                  Welcome to Q-Chem
     A Quantum Leap Into The Future Of Chemistry


 Q-Chem 6.0 (devel), Q-Chem, Inc., Pleasanton, CA (2022)

 E. Epifanovsky,  A. T. B. Gilbert,  Xintian Feng,  Joonho Lee,  Yuezhi Mao,  
 N. Mardirossian,  P. Pokhilko,  A. White,  M. Wormit,  M. P. Coons,  
 A. L. Dempwolff,  Zhengting Gan,  D. Hait,  P. R. Horn,  L. D. Jacobson,  
 I. Kaliman,  J. Kussmann,  A. W. Lange,  Ka Un Lao,  D. S. Levine,  Jie Liu,  
 S. C. McKenzie,  A. F. Morrison,  K. Nanda,  F. Plasser,  D. R. Rehn,  
 M. L. Vidal,  Zhi-Qiang You,  Ying Zhu,  B. Alam,  B. Albrecht,  
 A. Aldossary,  E. Alguire,  J. H. Andersen,  V. Athavale,  D. Barton,  
 K. Begam,  A. Behn,  N. Bellonzi,  Y. A. Bernard,  E. J. Berquist,  
 H. Burton,  A. Carreras,  K. Carter-Fenk,  Romit Chakraborty,  
 Chandrima Chakravarty,  Junhan Chen,  A. D. Chien,  K. D. Closser,  
 V. Cofer-Shabica,  L. Cunha,  S. Dasgupta,  Jia Deng,  M. de Wergifosse,  
 M. Diedenhofen,  Hainam Do,  S. Ehlert,  Po-Tung Fang,  S. Fatehi,  
 Qingguo Feng,  T. Friedhoff,  B. Ganoe,  J. Gayvert,  Qinghui Ge,  
 G. Gidofalvi,  M. Goldey,  J. Gomes,  C. Gonzalez-Espinoza,  S. Gulania,  
 A. Gunina,  J. A. Gyamfi,  M. W. D. Hanson-Heine,  P. H. P. Harbach,  
 A. W. Hauser,  M. F. Herbst,  M. Hernandez Vera,  M. Hodecker,  
 Z. C. Holden,  S. Houck,  Xunkun Huang,  Kerwin Hui,  B. C. Huynh,  
 K. Ikeda,  M. Ivanov,  Hyunjun Ji,  Zuxin Jin,  Hanjie Jiang,  B. Kaduk,  
 S. Kaehler,  R. Kang,  K. Khistyaev,  Jaehoon Kim,  Yongbin Kim,  
 P. Klunzinger,  Z. Koczor-Benda,  Joong Hoon Koh,  D. Kosenkov,  
 Saikiran Kotaru,  L. Koulias,  T. Kowalczyk,  C. M. Krauter,  K. Kue,  
 A. Kunitsa,  T. Kus,  A. Landau,  K. V. Lawler,  D. Lefrancois,  S. Lehtola,  
 Rain Li,  Shaozhi Li,  Yi-Pei Li,  Jiashu Liang,  M. Liebenthal,  
 Hung-Hsuan Lin,  You-Sheng Lin,  Fenglai Liu,  Kuan-Yu Liu,  
 M. Loipersberger,  A. Luenser,  C. Malbon,  A. Manjanath,  P. Manohar,  
 E. Mansoor,  S. F. Manzer,  Shan-Ping Mao,  A. V. Marenich,  T. Markovich,  
 S. Mason,  F. Matz,  S. A. Maurer,  P. F. McLaughlin,  M. F. S. J. Menger,  
 J.-M. Mewes,  S. A. Mewes,  P. Morgante,  Mohammad Mostafanejad,  
 J. W. Mullinax,  K. J. Oosterbaan,  G. Paran,  V. Parravicini,  
 Alexander C. Paul,  Suranjan K. Paul,  F. Pavosevic,  Zheng Pei,  S. Prager,  
 E. I. Proynov,  E. Ramos,  B. Rana,  A. E. Rask,  A. Rettig,  R. M. Richard,  
 F. Rob,  E. Rossomme,  T. Scheele,  M. Scheurer,  M. Schneider,  
 P. E. Schneider,  N. Sergueev,  S. M. Sharada,  Hengyuan Shen,  
 W. Skomorowski,  D. W. Small,  C. J. Stein,  Yingli Su,  Yu-Chuan Su,  
 E. J. Sundstrom,  Zhen Tao,  J. Thirman,  Hung-Yi Tsai,  T. Tsuchimochi,  
 N. M. Tubman,  C. Utku,  S. P. Veccham,  O. Vydrov,  J. Wenzel,  
 Jonathan Wong,  J. Witte,  A. Yamada,  Chou-Hsun Yang,  Kun Yao,  
 S. Yeganeh,  S. R. Yost,  A. Zech,  F. Zeller,  Igor Ying Zhang,  
 Xing Zhang,  Yu Zhang,  D. Zuev,  A. Aspuru-Guzik,  A. T. Bell,  
 N. A. Besley,  K. B. Bravaya,  B. R. Brooks,  D. Casanova,  Jeng-Da Chai,  
 Hsing-Ta Chen,  S. Coriani,  C. J. Cramer,  A. E. DePrince, III,  
 R. A. DiStasio Jr.,  A. Dreuw,  B. D. Dunietz,  T. R. Furlani,  
 W. A. Goddard III,  S. Grimme,  S. Hammes-Schiffer,  T. Head-Gordon,  
 W. J. Hehre,  Chao-Ping Hsu,  T.-C. Jagau,  Yousung Jung,  A. Klamt,  
 Jing Kong,  D. S. Lambrecht,  Xiangyuan Li,  WanZhen Liang,  N. J. Mayhall,  
 C. W. McCurdy,  J. B. Neaton,  T. Neudecker,  C. Ochsenfeld,  
 J. A. Parkhill,  R. Peverati,  V. A. Rassolov,  Haisheng Ren,  Yihan Shao,  
 L. V. Slipchenko,  R. P. Steele,  J. E. Subotnik,  A. J. W. Thom,  
 A. Tkatchenko,  D. G. Truhlar,  T. Van Voorhis,  Fan Wang,  
 T. A. Wesolowski,  K. B. Whaley,  H. L. Woodcock III,  P. M. Zimmerman,  
 S. Faraji,  P. M. W. Gill,  M. Head-Gordon,  J. M. Herbert,  A. I. Krylov

 Contributors to earlier versions of Q-Chem not listed above: 
 R. D. Adamson,  B. Austin,  R. Baer,  J. Baker,  G. J. O. Beran,  
 K. Brandhorst,  S. T. Brown,  E. F. C. Byrd,  Arup K. Chakraborty,  
 G. K. L. Chan,  Chun-Min Chang,  Yunqing Chen,  C.-L. Cheng,  
 Siu Hung Chien,  D. M. Chipman,  D. L. Crittenden,  H. Dachsel,  
 R. J. Doerksen,  A. D. Dutoi,  R. G. Edgar,  J. Fosso-Tande,  
 L. Fusti-Molnar,  D. Ghosh,  A. Ghysels,  A. Golubeva-Zadorozhnaya,  
 J. Gonthier,  M. S. Gordon,  S. R. Gwaltney,  G. Hawkins,  J. E. Herr,  
 A. Heyden,  S. Hirata,  E. G. Hohenstein,  G. Kedziora,  F. J. Keil,  
 C. Kelley,  Jihan Kim,  R. A. King,  R. Z. Khaliullin,  P. P. Korambath,  
 W. Kurlancheek,  A. Laurent,  A. M. Lee,  M. S. Lee,  S. V. Levchenko,  
 Ching Yeh Lin,  D. Liotard,  E. Livshits,  R. C. Lochan,  I. Lotan,  
 L. A. Martinez-Martinez,  P. E. Maslen,  N. Nair,  D. P. O'Neill,  
 D. Neuhauser,  E. Neuscamman,  C. M. Oana,  R. Olivares-Amaya,  R. Olson,  
 T. M. Perrine,  B. Peters,  P. A. Pieniazek,  A. Prociuk,  Y. M. Rhee,  
 J. Ritchie,  M. A. Rohrdanz,  E. Rosta,  N. J. Russ,  H. F. Schaefer III,  
 M. W. Schmidt,  N. E. Schultz,  S. Sharma,  N. Shenvi,  C. D. Sherrill,  
 A. C. Simmonett,  A. Sodt,  T. Stein,  D. Stuck,  K. S. Thanthiriwatte,  
 V. Vanovschi,  L. Vogt,  Tao Wang,  A. Warshel,  M. A. Watson,  
 C. F. Williams,  Q. Wu,  X. Xu,  Jun Yang,  W. Zhang,  Yan Zhao

   Please cite Q-Chem as follows:
  "Software for the frontiers of quantum chemistry:
   An overview of developments in the Q-Chem 5 package"
   J. Chem. Phys. 155, 084801 (2021)
   https://doi.org/10.1063/5.0055522 (open access)

 Q-Chem 6.0.1 for Intel X86 EM64T Linux

 Parts of Q-Chem use Armadillo 9.900.5 (Nocturnal Misbehaviour).
 http://arma.sourceforge.net/

 Q-Chem begins on Fri Jan 13 11:54:40 2023  

 Host: atlas-172
0

     Scratch files written to ./qchem231785//
 Processing $rem in /scratch/abel/SOFTWARE/qchem/config/preferences:
 Processing $rem in /dipc/acebg/.qchemrc:

 Checking the input file for inconsistencies... 	...done.

--------------------------------------------------------------
User input:
--------------------------------------------------------------
$comment
 RAS-SF CALCULATION
$end

$molecule
 READ mncn5no_2-_d6.molecule 
$end

$rem
!**CALCULATION TYPE***
JOBTYPE            sp
EXCHANGE           HF
CORRELATION        RASCI    !RASCI=Casanova; RASCI2=Zimmerman
BASIS              def2-TZVP
BASIS2             STO-3G

!***SCF REFERENCE***
SKIP_SCFMAN        FALSE
UNRESTRICTED       FALSE
!SCF_GUESS          read
!SCF_GUESS_MIX      FALSE
!SCF_GUESS_ALWAYS   FALSE
MAX_SCF_CYCLES     500
SCF_CONVERGENCE    8
!SCF_ALGORITHM      DIIS !DIIS,DM,DIIS_DM,GDM,DIIS_GDM,GD

SYMMETRY           TRUE !use of symmetry for calculating integrals
SYM_IGNORE         FALSE !turn off using symmetry
SYM_TOL            5 !tolerance for determining point group

!THRESH             14
SCF_FINAL_PRINT     1 !0,1,2,3

!****RAS-SF****
RAS_ROOTS          10       !number of RAS-CI roots to be computed
SET_ITER           170     !number of iterations in RASCI
RAS_ELEC           9       !number of electrons in RAS2
!RAS_ELEC_ALPHA            !spin-α electrons in RAS2
!RAS_ELEC_BETA             !spin-β electrons in RAS2

RAS_ACT            8       !number of orbitals in RAS2
RAS_ACT_ORB    [48, 51, 52, 53, 54, 55, 56, 57]  !user-selected RAS2 orbitals
RAS_OCC            49       !number of orbitals in RAS1
N_FROZEN_CORE      FC     !Number of frozen core orbitals
N_FROZEN_VIRTUAL   0      !Number of frozen virtual orbitals
RAS_NATORB         TRUE    !computation of the natural orbital occupancies
!RAS_NATORB_STATE  0      !Saves NO of i RAS computed state in .fchk ﬁle

RAS_DO_HOLE        TRUE   !presence of hole excitations in RAS-CI wave function
RAS_DO_PART        TRUE   !presence of particle excitations
RAS_AMPL_PRINT     10     !threshold (×10 2 ) for the CI amplitudes

RAS_GUESS_CS       0      !number of closed shell guess conﬁgurations
RAS_SPIN_MULT      0      !spin multiplicity: 0=any, 2n+1=defined
RAS_SRDFT          FALSE  !short-range density functional RAS-CI
RAS_NFRAG          0     !fragments of excitation analysis in RASCI

RAS_PRINT          2      !level of information
RAS_NATORB         TRUE   !computation of the natural orbital occupancies
!RAS_NATORB_STATE  0      !Saves NO of i RAS computed state in .fchk ﬁle
RAS_FOD            TRUE

!****RAS-SOC****
CALC_SOC           TRUE   !calculate SOC for EOM-CC, RAS-CI, ADC, TDDFT/TDA and TDDFT
!RAS_SOC_2E        TRUE   !two-electron mean-ﬁeld contribution, default=true
RAS_SOC_SYM_DENS   TRUE   !averaging of α and β densities

!****MEMORY****
MEM_TOTAL          60000 !Default 2000 MB
MEM_STATIC         16000  !Default 64 MB

!**Molecular Properties and Analysis **
GUI                2
STATE_ANALYSIS     TRUE
MOLDEN_FORMAT      TRUE
PRINT_ORBITALS     20
$end

--------------------------------------------------------------
 ----------------------------------------------------------------
             Standard Nuclear Orientation (Angstroms)
    I     Atom           X                Y                Z
 ----------------------------------------------------------------
    1      Mn      0.0000000000     0.0000000000     0.1157786495
    2      C       1.9695731070    -0.0000000000    -0.0682623505
    3      N       3.1365373081    -0.0000000000    -0.1732398505
    4      N       0.0000000000     0.0000000000     1.7907724495
    5      C      -0.0000000000    -1.9695731070    -0.0682623505
    6      N      -0.0000000000    -3.1365373081    -0.1732398505
    7      C       0.0000000000     1.9695731070    -0.0682623505
    8      N       0.0000000000     3.1365373081    -0.1732398505
    9      C       0.0000000000     0.0000000000    -1.8704679505
   10      N       0.0000000000     0.0000000000    -3.0413905505
   11      C      -1.9695731070     0.0000000000    -0.0682623505
   12      N      -3.1365373081     0.0000000000    -0.1732398505
   13      O       0.0000000000     0.0000000000     2.9464600495
 ----------------------------------------------------------------
 Molecular Point Group                 C2v   NOp =  4
 Largest Abelian Subgroup              C2v   NOp =  4
 Nuclear Repulsion Energy =         934.97505434 hartrees
 There are       54 alpha and       54 beta electrons
 Requested basis set is def2-TZVP
 There are 147 shells and 417 basis functions

 Q-Chem warning in module libmdc/get_mega.C, line 167:

 Allowed MEM_STATIC has been capped at MEM_STATIC=8191.
 Reduce the value of MEM_STATIC to silence this warning.


 Total QAlloc Memory Limit  60000 MB
 Mega-Array Size      8007 MB
 MEM_STATIC part      8191 MB


                       Distance Matrix (Angstroms)
             Mn(  1)   C (  2)   N (  3)   N (  4)   C (  5)   N (  6)
   C (  2)  1.978153
   N (  3)  3.149825  1.171676
   N (  4)  1.674994  2.708363  3.700704
   C (  5)  1.978153  2.785397  3.705146  2.708363
   N (  6)  3.149825  3.705146  4.435734  3.700704  1.171676
   C (  7)  1.978153  2.785397  3.705146  2.708363  3.939146  5.107189
   N (  8)  3.149825  3.705146  4.435734  3.700704  5.107189  6.273075
   C (  9)  1.986247  2.669675  3.566294  3.661240  2.669675  3.566294
   N ( 10)  3.157169  3.566330  4.250195  4.832163  3.566330  4.250195
   C ( 11)  1.978153  3.939146  5.107189  2.708363  2.785397  3.705146
   N ( 12)  3.149825  5.107189  6.273075  3.700704  3.705146  4.435734
   O ( 13)  2.830681  3.601079  4.423844  1.155688  3.601079  4.423844
             C (  7)   N (  8)   C (  9)   N ( 10)   C ( 11)   N ( 12)
   N (  8)  1.171676
   C (  9)  2.669675  3.566294
   N ( 10)  3.566330  4.250195  1.170923
   C ( 11)  2.785397  3.705146  2.669675  3.566330
   N ( 12)  3.705146  4.435734  3.566294  4.250195  1.171676
   O ( 13)  3.601079  4.423844  4.816928  5.987851  3.601079  4.423844

 
 A cutoff of  1.0D-12 yielded   9054 shell pairs
 There are     74564 function pairs (     99797 Cartesian)
 Smallest overlap matrix eigenvalue = 4.95E-05

 Scale SEOQF with 1.000000e-01/1.000000e-01/1.000000e-01

 Standard Electronic Orientation quadrupole field applied
 Nucleus-field energy     =     0.0000000006 hartrees
 Requested basis set is STO-3G
 There are 29 shells and 78 basis functions
 A cutoff of  1.0D-12 yielded    343 shell pairs
 There are      3029 function pairs (      3113 Cartesian)
 Smallest overlap matrix eigenvalue = 1.36E-01
 Guess from superposition of atomic densities
 Warning:  Energy on first SCF cycle will be non-variational
 SAD guess density has 105.000000 electrons
 A restricted Hartree-Fock SCF calculation will be
 performed using Pulay DIIS extrapolation
 SCF converges when DIIS error is below 1.0E-04
 ---------------------------------------
  Cycle       Energy         DIIS Error
 ---------------------------------------
    1   -1720.2681220681      1.38E-01
    2   -1715.8507329649      6.50E-02
    3   -1698.5323445763      1.24E-01
    4   -1719.6281396726      1.78E-02
    5   -1719.7086762767      1.88E-02
    6   -1719.9529519362      6.11E-03
    7   -1719.9656253308      5.67E-03
    8   -1719.9923522192      7.14E-04
    9   -1719.9913627835      1.84E-03
   10   -1719.9920076452      1.54E-03
   11   -1719.9933897397      5.07E-04
   12   -1719.9935582497      2.76E-05 Convergence criterion met
 ---------------------------------------
 One-Electron    Energy = -4285.7255334424
 Total Coulomb   Energy =  1756.6112945888
 Alpha Exchange  Energy =   -62.9271868679
 Beta  Exchange  Energy =   -62.9271868679
 DFT   Exchange  Energy =     0.0000000000
 DFT Correlation Energy =     0.0000000000
 Nuclear Repu.   Energy =   934.9750543397
 Nuclear Attr.   Energy = -6001.9080887175
 Kinetic         Energy =  1716.1825552751
 SCF time:  CPU 4.49 s  wall 5.02 s
 Final Alpha MO Eigenvalues
            1           2           3           4           5           6
    1-237.8511501 -28.4160636 -24.5261618 -24.5060920 -24.5060920 -19.6760702
            7           8           9          10          11          12
    1 -14.8393307 -14.7457117 -14.7399795 -14.7399762 -14.7399762 -14.7399725
           13          14          15          16          17          18
    1 -10.4544491 -10.4502052 -10.4501892 -10.4501892 -10.4498316  -3.3467186
           19          20          21          22          23          24
    1  -2.0500052  -2.0270933  -2.0270933  -0.8957592  -0.6287213  -0.6235156
           25          26          27          28          29          30
    1  -0.6235156  -0.6218516  -0.6211035  -0.3347952  -0.1585907  -0.0748267
           31          32          33          34          35          36
    1  -0.0748267  -0.0489119  -0.0384802  -0.0297509  -0.0240920  -0.0240920
           37          38          39          40          41          42
    1   0.0465173   0.0641364   0.0651293   0.0651293   0.0755093   0.0938401
           43          44          45          46          47          48
    1   0.0938401   0.1079448   0.1171181   0.1184020   0.1184020   0.1230735
           49          50          51          52          53          54
    1   0.1374217   0.1374217   0.1382454   0.1954172   0.3692547   0.3692547
           55          56          57          58          59          60
    1   0.7609817   0.7609817   0.8437924   0.8568983   0.8637548   0.8637548
           61          62          63          64          65          66
    1   0.8866166   0.8866166   0.9022037   0.9401407   0.9401407   0.9444757
           67          68          69          70          71          72
    1   0.9642681   1.0192323   1.2846545   1.3748174   1.3748174   1.3942295
           73          74          75          76          77          78
    1   1.5851496   1.7433668   1.7446406   1.7684250   1.7684250   1.7813918
 SCF   energy in the small basis set = -1719.99355825
 Total energy in the small basis set = -1719.99355825
 ----------------------------------------------------
  Cycle       Energy    
 ----------------------------------------------------
    1    -115.3527314006     -1.15E+02
 A restricted Hartree-Fock SCF calculation will be
 performed using Pulay DIIS extrapolation
 SCF converges when DIIS error is below 1.0E-08
 ---------------------------------------
  Cycle       Energy         DIIS Error
 ---------------------------------------
    1   -1736.0843441533      2.01E-02
    2   -1725.2959110146      2.85E-02
    3   -1738.7798642641      9.96E-03
    4   -1740.1968625535      3.94E-03
    5   -1740.3679481400      2.39E-03
    6   -1740.4181602250      1.21E-03
    7   -1740.4392505862      1.99E-04
    8   -1740.4397720956      2.11E-04
    9   -1740.4402546434      9.19E-05
   10   -1740.4403980789      3.11E-05
   11   -1740.4404171512      1.01E-05
   12   -1740.4404187416      2.92E-06
   13   -1740.4404190764      7.22E-07
   14   -1740.4404191471      3.96E-07
   15   -1740.4404191529      1.39E-07
   16   -1740.4404191534      4.32E-08
   17   -1740.4404191536      2.82E-08
   18   -1740.4404191535      9.10E-09 Convergence criterion met
 ---------------------------------------
 One-Electron    Energy = -4298.7838821932
 Total Coulomb   Energy =  1748.0189045469
 Alpha Exchange  Energy =   -62.3252479234
 Beta  Exchange  Energy =   -62.3252479234
 DFT   Exchange  Energy =     0.0000000000
 DFT Correlation Energy =     0.0000000000
 Nuclear Repu.   Energy =   934.9750543397
 Nuclear Attr.   Energy = -6038.6999215531
 Kinetic         Energy =  1739.9160393598
 SCF time:  CPU 863.19 s  wall 870.32 s

 Q-Chem warning in module 0, line  204:

 Quadrupole field failed to resolve orbital degeneracies.


 Q-Chem warning in module 0, line  204:

 Quadrupole field failed to resolve orbital degeneracies.

 Final Alpha MO Eigenvalues
            1           2           3           4           5           6
    1-240.1941789 -28.7990634 -24.5108333 -24.4955458 -24.4955458 -20.2963660
            7           8           9          10          11          12
    1 -15.3995895 -15.1172326 -15.1172320 -15.1172320 -15.1172318 -15.1034426
           13          14          15          16          17          18
    1 -10.8128039 -10.8128035 -10.8128035 -10.8128019 -10.7989639  -3.4399630
           19          20          21          22          23          24
    1  -2.1173368  -2.0957617  -2.0957617  -1.2236847  -0.7656090  -0.7628123
           25          26          27          28          29          30
    1  -0.7628123  -0.7613712  -0.7489106  -0.5964772  -0.3784515  -0.3257335
           31          32          33          34          35          36
    1  -0.3257335  -0.2702740  -0.1986722  -0.1986722  -0.1880134  -0.1826711
           37          38          39          40          41          42
    1  -0.1303604  -0.1176314  -0.0920640  -0.0920640  -0.0824911  -0.0754374
           43          44          45          46          47          48
    1  -0.0637363  -0.0637363  -0.0303981  -0.0228039  -0.0228039  -0.0216829
           49          50          51          52          53          54
    1  -0.0156253  -0.0153541  -0.0013300  -0.0013300   0.0388487   0.0388487
           55          56          57          58          59          60
    1   0.4476912   0.4620929   0.4620929   0.5828123   0.5828123   0.5832568
           61          62          63          64          65          66
    1   0.5945808   0.6123911   0.6179048   0.6179048   0.6184301   0.6316804
           67          68          69          70          71          72
    1   0.6486787   0.6486787   0.6556312   0.7019007   0.7103170   0.7103170
           73          74          75          76          77          78
    1   0.7211094   0.7224996   0.7233288   0.7522051   0.7600142   0.7691764
           79          80          81          82          83          84
    1   0.7691764   0.7818109   0.7818109   0.8032454   0.8042568   0.8165865
           85          86          87          88          89          90
    1   0.8307220   0.8307220   0.8480797   0.8721883   0.8778494   0.8778494
           91          92          93          94          95          96
    1   0.9240195   0.9470153   0.9528394   0.9631877   0.9631877   0.9896811
           97          98          99         100         101         102
    1   1.0053869   1.0053869   1.0139365   1.0312958   1.0312958   1.0474430
          103         104         105         106         107         108
    1   1.0720306   1.0720306   1.0725471   1.0881826   1.0964212   1.0964212
          109         110         111         112         113         114
    1   1.1026521   1.1049384   1.1049384   1.1223356   1.1341217   1.1448720
          115         116         117         118         119         120
    1   1.1575908   1.1734743   1.1734743   1.1832781   1.2153677   1.2223305
          121         122         123         124         125         126
    1   1.2223305   1.2726683   1.3054439   1.3054439   1.3102989   1.3304729
          127         128         129         130         131         132
    1   1.3627792   1.3702664   1.3702664   1.4030904   1.4032027   1.4146787
          133         134         135         136         137         138
    1   1.4164395   1.4430162   1.4430162   1.4656523   1.4927635   1.4927635
          139         140         141         142         143         144
    1   1.5035972   1.5144721   1.5144721   1.5297731   1.5958379   1.6317689
          145         146         147         148         149         150
    1   1.6588590   1.6712383   1.6810390   1.6810390   1.7374764   1.7592965
          151         152         153         154         155         156
    1   1.7932291   1.8011932   1.8555068   1.8619234   1.8619234   1.8741770
          157         158         159         160         161         162
    1   1.8929775   1.8929775   1.9030341   1.9030341   1.9071845   1.9258498
          163         164         165         166         167         168
    1   1.9270140   1.9386293   1.9554808   1.9632547   1.9632547   1.9765016
          169         170         171         172         173         174
    1   1.9989961   2.0002288   2.0002288   2.0081081   2.0081081   2.0346391
          175         176         177         178         179         180
    1   2.0497398   2.1064962   2.1284501   2.1548862   2.1548862   2.1838590
          181         182         183         184         185         186
    1   2.1910901   2.1910901   2.2053770   2.2061933   2.2175662   2.2175662
          187         188         189         190         191         192
    1   2.2287635   2.2556708   2.2556708   2.2597484   2.2857346   2.3094399
          193         194         195         196         197         198
    1   2.3326545   2.3326545   2.3328499   2.3889253   2.4222795   2.4831664
          199         200         201         202         203         204
    1   2.4831664   2.5120273   2.5207944   2.5580229   2.5580229   2.5734499
          205         206         207         208         209         210
    1   2.6490346   2.7121854   2.7121854   2.7136950   2.7429807   2.7429807
          211         212         213         214         215         216
    1   2.7702458   2.7854273   2.7854273   2.7960110   2.9679907   3.0410903
          217         218         219         220         221         222
    1   3.0410903   3.0677098   3.0677098   3.0821914   3.0906520   3.0933021
          223         224         225         226         227         228
    1   3.1168492   3.1181900   3.1845651   3.1845651   3.1899664   3.2583971
          229         230         231         232         233         234
    1   3.2583971   3.2762148   3.3006669   3.3028325   3.3172575   3.3172575
          235         236         237         238         239         240
    1   3.3421803   3.3421803   3.3477350   3.3873006   3.4134667   3.4241596
          241         242         243         244         245         246
    1   3.4286790   3.4330709   3.4330709   3.4444851   3.4444851   3.4679589
          247         248         249         250         251         252
    1   3.4936677   3.4936677   3.5239405   3.5239405   3.5407859   3.5548009
          253         254         255         256         257         258
    1   3.5711303   3.5713968   3.5713968   3.5721950   3.5968325   3.5968325
          259         260         261         262         263         264
    1   3.6729784   3.6993431   3.7251822   3.7822841   3.7898115   3.7898115
          265         266         267         268         269         270
    1   3.8298617   3.8298617   3.8331524   3.8832570   3.9068541   3.9085921
          271         272         273         274         275         276
    1   3.9191410   3.9191410   3.9403491   3.9419467   3.9419467   3.9609442
          277         278         279         280         281         282
    1   4.0089062   4.0089062   4.0288720   4.0427384   4.0530830   4.0699695
          283         284         285         286         287         288
    1   4.1011568   4.1019691   4.1019691   4.1049335   4.1102283   4.1389099
          289         290         291         292         293         294
    1   4.1655571   4.1655571   4.1771829   4.1826713   4.2162835   4.2162835
          295         296         297         298         299         300
    1   4.2442435   4.2980620   4.2980620   4.3055040   4.3138991   4.3414451
          301         302         303         304         305         306
    1   4.3414451   4.3472259   4.3784487   4.4047568   4.4047568   4.4171286
          307         308         309         310         311         312
    1   4.4585401   4.4786152   4.4786152   4.5267959   4.5644529   4.5773152
          313         314         315         316         317         318
    1   4.5773152   4.7010946   4.7010946   4.7290297   4.7354605   4.7774214
          319         320         321         322         323         324
    1   4.7786284   4.7786284   4.7787885   4.7801323   4.7814944   4.7814944
          325         326         327         328         329         330
    1   4.7893234   4.8034257   4.8034257   4.8316627   4.9788425   5.1094856
          331         332         333         334         335         336
    1   5.1429417   5.1429417   5.2787526   5.2852333   5.2860499   5.3025159
          337         338         339         340         341         342
    1   5.3025159   5.3096220   5.3129374   5.3129374   5.3219229   5.3391859
          343         344         345         346         347         348
    1   5.3391859   5.3413633   5.3414355   5.3660687   5.4377159   5.4409460
          349         350         351         352         353         354
    1   5.4476446   5.4476446   5.4502547   5.4516487   5.4516772   5.4516772
          355         356         357         358         359         360
    1   5.4642617   5.4799895   5.4911092   5.5617239   5.6001540   5.6710050
          361         362         363         364         365         366
    1   5.6710050   5.6805782   5.7951274   5.7951274   5.8025244   5.8122647
          367         368         369         370         371         372
    1   5.8389343   5.8451432   5.8451432   5.8914836   5.8914836   5.9111550
          373         374         375         376         377         378
    1   5.9196732   5.9196732   6.2828170   6.3198280   6.3201624   6.3201624
          379         380         381         382         383         384
    1   6.3408512   6.3408512   6.3456621   6.3587025   6.3779450   6.4203050
          385         386         387         388         389         390
    1   6.4203050   6.4231555   6.4245270   6.4268530   6.4268530   6.4553643
          391         392         393         394         395         396
    1   6.4754775   6.4951945   6.6731833   6.6731833   6.7049488   6.7072305
          397         398         399         400         401         402
    1   6.7161310   7.0868400   7.1246190   7.3515482   7.3515482   7.7639716
          403         404         405         406         407         408
    1   7.7639716   8.1052450   8.2681355  24.3368460  24.3368460  24.5364410
          409         410         411         412         413         414
    1  24.7131052  24.7657478  33.8084253  33.8084253  33.8485598  33.8750903
          415         416         417
    1  33.8775629  34.2190957  46.2220200
 SCF   energy in the final basis set = -1740.44041915
 Total energy in the final basis set = -1740.44041915
Setting RAS_srDFT_COR/EXC
  
     ##========================================##
     ||                                        ||
     ||              R A S M A N 2             ||
     ||________________________________________||
     ||                                        ||
     ||  Author:                               ||
     ||                                        ||
     ||        David Casanova (2010)           ||
     ||                                        ||
     ##========================================##
  
  ***************************************************
  *  RAS-CI Dimensions:                             *
  *                                                 *
  *  Active Elec.:   9 ( 5, 4)   Active Orb.:   8   *
  *  Doubly Occ. :  49           Doubly Vir.: 360   *
  *  Frozen Occ. :  21           Frozen Vir.:   0   *
  *                                                 *
  *  Total CI configurations:   3039568             * 
  *    Active configurations:      3920             * 
  *      Hole configurations:    142688             * 
  *  Particle configurations:   2892960             * 
  *                                                 *
  *   Requested states:       10                    *
  *  Spin multiplicity: Any multiplicity            *
  *                                                 *
  ***************************************************
-----------------------------------------
    Memory requirements of RASCI

 Each CI-vector requires     23.19 MiB 
 Max. subspace vectors           1700      

 Reduced Lists                0.00 MiB 
 Excitation Lists             0.00 MiB 
 Excitation Lists Sign        0.00 MiB 
 CI-space (Max)           39677.07 MiB 
 Integrals                  184.76 MiB 
 Memory required (Max)    39677.08 MiB 
 Memory available          7811.55 MiB 

 Q-Chem warning in module rasman2/ras_mem_check.C, line 162:

 Static memory may be insufficient to store the subspace vectors


    Disk requirements of RASCI

 Fock matrix                  2.65 MiB 
 2-electron integrals       267.59 MiB 
 CI-space                 78846.22 MiB 
 Disk required            79116.46 MiB 
-----------------------------------------
  
RAS1 HF-like energy:          -1730.1469594988
 Computing integrals
 Computing J and K matrices
 Computing addressing
 Making amplitude guesses
 
Direct CI diagonalization
 ---------------------------------------------------
 Iter    Rts Conv    Rts Left    Ttl Dev     Max Dev
 ---------------------------------------------------
   1         0          10      0.002147    0.000285
   2         0          10      0.001169    0.000159
   3         0          10      0.000646    0.000099
   4         0          10      0.000454    0.000076
   5         0          10      0.000521    0.000083
   6         0          10      0.000362    0.000088
   7         0          10      0.000284    0.000066
   8         0          10      0.000283    0.000066
   9         0          10      0.000210    0.000065
  10         0          10      0.000183    0.000040
  11         0          10      0.000203    0.000043
  12         0          10      0.000149    0.000031
  13         0          10      0.000423    0.000140
  14         0          10      0.000411    0.000158
  15         0          10      0.000215    0.000086
  16         0          10      0.000218    0.000104
  17         0          10      0.000202    0.000080
  18         0          10      0.000189    0.000079
  19         0          10      0.000181    0.000078
  20         0          10      0.000153    0.000058
  21         0          10      0.000149    0.000054
  22         1           9      0.000140    0.000057
  23         2           8      0.000150    0.000049
  24         2           8      0.000159    0.000042
  25         3           7      0.000226    0.000063
  26         3           7      0.000217    0.000058
  27         4           6      0.000221    0.000079
  28         6           4      0.000176    0.000069
  29         6           4      0.000149    0.000056
  30         6           4      0.000134    0.000047
  31         6           4      0.000114    0.000036
  32         6           4      0.000093    0.000027
  33         6           4      0.000090    0.000033
  34         6           4      0.000074    0.000024
  35         6           4      0.000057    0.000018
  36         6           4      0.000056    0.000022
  37         6           4      0.000045    0.000015
  38         6           4      0.000039    0.000014
  39         6           4      0.000034    0.000014
  40         6           4      0.000032    0.000012
  41         6           4      0.000029    0.000011
  42         6           4      0.000028    0.000011
  43         6           4      0.000026    0.000010
  44         6           4      0.000025    0.000011
  45         6           4      0.000024    0.000010
  46         6           4      0.000021    0.000008
  47         6           4      0.000018    0.000007
  48         6           4      0.000017    0.000006
  49         6           4      0.000016    0.000005
  50         6           4      0.000014    0.000005
  51         5           5      0.000070    0.000059
  52         5           5      0.000077    0.000068
  53         5           5      0.000069    0.000060
  54         6           4      0.000068    0.000060
  55         6           4      0.000064    0.000056
  56         6           4      0.000053    0.000046
  57         7           3      0.000045    0.000039
  58         8           2      0.000044    0.000039
  59         8           2      0.000035    0.000030
  60         8           2      0.000030    0.000025
  61         8           2      0.000030    0.000025
  62         8           2      0.000027    0.000022
  63         8           2      0.000025    0.000021
  64         8           2      0.000028    0.000023
  65         8           2      0.000024    0.000020
  66         8           2      0.000024    0.000020
  67         8           2      0.000025    0.000021
  68         8           2      0.000022    0.000018
  69         9           1      0.000023    0.000020
  70         9           1      0.000025    0.000021
  71         9           1      0.000024    0.000021
  72         9           1      0.000026    0.000022
  73         9           1      0.000029    0.000025
  74         9           1      0.000027    0.000024
  75         9           1      0.000028    0.000025
  76         9           1      0.000032    0.000028
  77         9           1      0.000031    0.000027
  78         9           1      0.000032    0.000029
  79         9           1      0.000037    0.000034
  80         9           1      0.000036    0.000033
  81         9           1      0.000040    0.000036
  82         9           1      0.000043    0.000040
  83         9           1      0.000038    0.000034
  84         9           1      0.000037    0.000034
  85         8           2      0.000069    0.000035
  86         8           2      0.000050    0.000026
  87         8           2      0.000050    0.000026
  88         8           2      0.000046    0.000024
  89         8           2      0.000036    0.000018
  90         8           2      0.000035    0.000017
  91         8           2      0.000032    0.000016
  92         8           2      0.000028    0.000013
  93         8           2      0.000028    0.000014
  94         8           2      0.000024    0.000011
  95         8           2      0.000023    0.000010
  96         8           2      0.000023    0.000011
  97         8           2      0.000020    0.000009
  98         8           2      0.000019    0.000008
  99         8           2      0.000019    0.000008
 100         8           2      0.000018    0.000008
 101         9           1      0.000014    0.000006
 102         9           1      0.000014    0.000006
 103         9           1      0.000012    0.000005
 104         9           1      0.000010    0.000004
 105         9           1      0.000009    0.000003
 106         9           1      0.000008    0.000003
 107         9           1      0.000007    0.000002
 108         9           1      0.000007    0.000002
 109         9           1      0.000006    0.000002
 110         9           1      0.000006    0.000002
 111         9           1      0.000005    0.000002
 112         9           1      0.000005    0.000001
 113         9           1      0.000005    0.000001
 114         9           1      0.000005    0.000001
 115         9           1      0.000005    0.000001
 116         9           1      0.000004    0.000001
 117        10           0      0.000004    0.000001    Roots Converged
 ---------------------------------------------------
   
**************************************************
 RAS-CI total energy for state   1:  -1740.666723222210
  Excitation energy (eV) =  0.000000000000
 Warning : Irrep of orbital( 137) could not be determined
 Warning : Irrep of orbital( 138) could not be determined
 Warning : Irrep of orbital( 140) could not be determined
 Warning : Irrep of orbital( 141) could not be determined
 Warning : Irrep of orbital( 137) could not be determined
 Warning : Irrep of orbital( 138) could not be determined
 Warning : Irrep of orbital( 140) could not be determined
 Warning : Irrep of orbital( 141) could not be determined
  Warning: not all configurations have same symmetry
  State symmetry: *B2    (C2v      )
  <S^2>      :  0.7500
  Dipole Moment:   -0.0000 X    -0.0000 Y    -3.8280 Z
 NATURAL OCCUPATION NUMBERS (higher than 1.0E-05)
            1           2           3           4           5           6
    1   2.0000000   2.0000000   2.0000000   2.0000000   2.0000000   2.0000000
            7           8           9          10          11          12
    1   2.0000000   2.0000000   2.0000000   2.0000000   2.0000000   2.0000000
           13          14          15          16          17          18
    1   2.0000000   2.0000000   2.0000000   2.0000000   2.0000000   2.0000000
           19          20          21          22          23          24
    1   2.0000000   2.0000000   2.0000000   2.0000000   2.0000000   1.9999999
           25          26          27          28          29          30
    1   1.9999999   1.9999998   1.9999998   1.9999996   1.9999994   1.9999994
           31          32          33          34          35          36
    1   1.9999981   1.9999976   1.9999974   1.9999952   1.9999942   1.9999916
           37          38          39          40          41          42
    1   1.9999891   1.9999857   1.9999623   1.9999563   1.9999284   1.9999178
           43          44          45          46          47          48
    1   1.9997238   1.9995194   1.9995069   1.9994618   1.9974285   1.9953867
           49          50          51          52          53          54
    1   1.9943486   1.9938740   1.9910471   1.9852915   1.7302899   0.9618718
           55          56          57          58          59          60
    1   0.2678058   0.0637115   0.0062877   0.0054740   0.0025404   0.0015362
           61          62          63          64          65          66
    1   0.0012137   0.0011790   0.0006884   0.0003603   0.0003018   0.0002490
           67          68          69          70          71          72
    1   0.0002086   0.0001964   0.0001487   0.0001221   0.0000906   0.0000770
           73          74          75          76          77          78
    1   0.0000665   0.0000503   0.0000436   0.0000282   0.0000189   0.0000178
           79          80
    1   0.0000133   0.0000100
Natural Orbitals stored in FCHK

  Amplitudes : 
  
 | HOLE  | ALPHA    | BETA     | PART  |    AMPLITUDE 
--------------------------------------------------
 |       | 11111000 | 11110000 |       |     8.4562650218420E-01
 |       | 11111000 | 11011000 |       |     1.1934144519405E-01
 |       | 11110010 | 11101000 |       |     1.0150870389340E-01
 |       | 11110001 | 11110000 |       |    -1.4261756365999E-01
 |       | 11110001 | 11100010 |       |    -1.4770148923144E-01
 |       | 11101010 | 11100010 |       |     2.2960667773032E-01
 |       | 11100011 | 11100010 |       |     1.0561908326792E-01
 |       | 11110000 | 11110000 |  64   |    -1.0426309535488E-01
--------------------------------------------------
*** Contributions RASCI wfn    Active:  87.05
                                 Hole:   5.18
                                 Part:   7.77

      Mulliken population analysis 
 ---------------------------------------------------
   Atom    Charge (a.u.)   Spin (a.u.)  
 ---------------------------------------------------
   1 Mn    1.129328        0.815865 
   2  C   -0.323549        0.000006 
   3  N   -0.346601       -0.000415 
   4  N    0.259657       -0.044240 
   5  C   -0.310397        0.012286 
   6  N   -0.319772        0.027978 
   7  C   -0.310397        0.012286 
   8  N   -0.319772        0.027978 
   9  C   -0.308365        0.021599 
  10  N   -0.250836        0.063701 
  11  C   -0.323549        0.000006 
  12  N   -0.346601       -0.000415 
  13  O   -0.229147        0.063366 
 ---------------------------------------------------
   Sum:   -2.000000        1.000000 
 ---------------------------------------------------
 
  
 NATURAL OCCUPATION NUMBERS (higher than 1.0E-05)
            1           2           3           4           5           6
    1   2.0000000   2.0000000   2.0000000   2.0000000   2.0000000   2.0000000
            7           8           9          10          11          12
    1   2.0000000   2.0000000   2.0000000   2.0000000   2.0000000   2.0000000
           13          14          15          16          17          18
    1   2.0000000   2.0000000   2.0000000   2.0000000   2.0000000   2.0000000
           19          20          21          22          23          24
    1   2.0000000   2.0000000   2.0000000   2.0000000   2.0000000   1.9999999
           25          26          27          28          29          30
    1   1.9999999   1.9999998   1.9999998   1.9999996   1.9999994   1.9999994
           31          32          33          34          35          36
    1   1.9999981   1.9999976   1.9999974   1.9999952   1.9999942   1.9999916
           37          38          39          40          41          42
    1   1.9999891   1.9999857   1.9999623   1.9999563   1.9999284   1.9999178
           43          44          45          46          47          48
    1   1.9997238   1.9995194   1.9995069   1.9994618   1.9974285   1.9953867
           49          50          51          52          53          54
    1   1.9943486   1.9938740   1.9910471   1.9852915   1.7302899   0.9618718
           55          56          57          58          59          60
    1   0.2678058   0.0637115   0.0062877   0.0054740   0.0025404   0.0015362
           61          62          63          64          65          66
    1   0.0012137   0.0011790   0.0006884   0.0003603   0.0003018   0.0002490
           67          68          69          70          71          72
    1   0.0002086   0.0001964   0.0001487   0.0001221   0.0000906   0.0000770
           73          74          75          76          77          78
    1   0.0000665   0.0000503   0.0000436   0.0000282   0.0000189   0.0000178
           79          80
    1   0.0000133   0.0000100
  
*** Unpaired Electrons
 Yamaguchi Nd:         2.18
 Head-Gordon Nu:       1.63
 Head-Gordon Nu_nl:    1.45
  
**************************************************
 RAS-CI total energy for state   2:  -1740.666723219785
  Excitation energy (eV) =  0.000000066008
  Warning: not all configurations have same symmetry
  State symmetry: *B1    (C2v      )
  <S^2>      :  0.7500
  Dipole Moment:   -0.0000 X    -0.0000 Y    -3.8280 Z
  Trans. Moment:   -0.0000 X    -0.0000 Y    -0.0000 Z
  Strength   :  0.000000
  Natural transition orbitals ( 1 -> 2 ):
   e-/hole pair  1 alpha:  ampl =  0.136154 (  1.9%)   [8 : 9]
   e-/hole pair  2 alpha:  ampl =  0.089609 (  0.8%)   [7 : 10]
   e-/hole pair  1 beta :  ampl =  0.836688 ( 70.0%)   [8 : 9]
   e-/hole pair  2 beta :  ampl =  0.110426 (  1.2%)   [7 : 10]
   Sum of square amplitudes: 0.74

 NATURAL OCCUPATION NUMBERS (higher than 1.0E-05)
            1           2           3           4           5           6
    1   2.0000000   2.0000000   2.0000000   2.0000000   2.0000000   2.0000000
            7           8           9          10          11          12
    1   2.0000000   2.0000000   2.0000000   2.0000000   2.0000000   2.0000000
           13          14          15          16          17          18
    1   2.0000000   2.0000000   2.0000000   2.0000000   2.0000000   2.0000000
           19          20          21          22          23          24
    1   2.0000000   2.0000000   2.0000000   2.0000000   2.0000000   1.9999999
           25          26          27          28          29          30
    1   1.9999999   1.9999998   1.9999998   1.9999996   1.9999994   1.9999994
           31          32          33          34          35          36
    1   1.9999981   1.9999976   1.9999974   1.9999952   1.9999942   1.9999916
           37          38          39          40          41          42
    1   1.9999890   1.9999857   1.9999623   1.9999563   1.9999284   1.9999178
           43          44          45          46          47          48
    1   1.9997236   1.9995195   1.9995069   1.9994616   1.9974281   1.9953857
           49          50          51          52          53          54
    1   1.9943504   1.9938746   1.9910482   1.9852891   1.7302725   0.9618635
           55          56          57          58          59          60
    1   0.2678212   0.0637239   0.0062879   0.0054735   0.0025400   0.0015362
           61          62          63          64          65          66
    1   0.0012137   0.0011789   0.0006879   0.0003603   0.0003018   0.0002489
           67          68          69          70          71          72
    1   0.0002086   0.0001964   0.0001487   0.0001221   0.0000906   0.0000770
           73          74          75          76          77          78
    1   0.0000665   0.0000503   0.0000436   0.0000282   0.0000189   0.0000178
           79          80
    1   0.0000133   0.0000100
Natural Orbitals stored in FCHK

  Amplitudes : 
  
 | HOLE  | ALPHA    | BETA     | PART  |    AMPLITUDE 
--------------------------------------------------
 |       | 11111000 | 11101000 |       |     8.4562658146737E-01
 |       | 11111000 | 10111000 |       |     1.1934137914833E-01
 |       | 11110001 | 11100001 |       |    -2.2960996100126E-01
 |       | 11101010 | 11101000 |       |     1.4258991639400E-01
 |       | 11101010 | 11100001 |       |     1.4771175256161E-01
 |       | 11101001 | 11110000 |       |    -1.0153389209456E-01
 |       | 11100011 | 11100001 |       |     1.0562836259147E-01
 |       | 11101000 | 11101000 |  63   |     1.0425463382455E-01
--------------------------------------------------
*** Contributions RASCI wfn    Active:  87.05
                                 Hole:   5.18
                                 Part:   7.77

      Mulliken population analysis 
 ---------------------------------------------------
   Atom    Charge (a.u.)   Spin (a.u.)  
 ---------------------------------------------------
   1 Mn    1.129313        0.815854 
   2  C   -0.310394        0.012290 
   3  N   -0.319772        0.027979 
   4  N    0.259665       -0.044247 
   5  C   -0.323549        0.000006 
   6  N   -0.346603       -0.000416 
   7  C   -0.323549        0.000006 
   8  N   -0.346603       -0.000416 
   9  C   -0.308365        0.021600 
  10  N   -0.250834        0.063699 
  11  C   -0.310394        0.012290 
  12  N   -0.319772        0.027979 
  13  O   -0.229141        0.063375 
 ---------------------------------------------------
   Sum:   -2.000000        1.000000 
 ---------------------------------------------------
 
  
 NATURAL OCCUPATION NUMBERS (higher than 1.0E-05)
            1           2           3           4           5           6
    1   2.0000000   2.0000000   2.0000000   2.0000000   2.0000000   2.0000000
            7           8           9          10          11          12
    1   2.0000000   2.0000000   2.0000000   2.0000000   2.0000000   2.0000000
           13          14          15          16          17          18
    1   2.0000000   2.0000000   2.0000000   2.0000000   2.0000000   2.0000000
           19          20          21          22          23          24
    1   2.0000000   2.0000000   2.0000000   2.0000000   2.0000000   1.9999999
           25          26          27          28          29          30
    1   1.9999999   1.9999998   1.9999998   1.9999996   1.9999994   1.9999994
           31          32          33          34          35          36
    1   1.9999981   1.9999976   1.9999974   1.9999952   1.9999942   1.9999916
           37          38          39          40          41          42
    1   1.9999890   1.9999857   1.9999623   1.9999563   1.9999284   1.9999178
           43          44          45          46          47          48
    1   1.9997236   1.9995195   1.9995069   1.9994616   1.9974281   1.9953857
           49          50          51          52          53          54
    1   1.9943504   1.9938746   1.9910482   1.9852891   1.7302725   0.9618635
           55          56          57          58          59          60
    1   0.2678212   0.0637239   0.0062879   0.0054735   0.0025400   0.0015362
           61          62          63          64          65          66
    1   0.0012137   0.0011789   0.0006879   0.0003603   0.0003018   0.0002489
           67          68          69          70          71          72
    1   0.0002086   0.0001964   0.0001487   0.0001221   0.0000906   0.0000770
           73          74          75          76          77          78
    1   0.0000665   0.0000503   0.0000436   0.0000282   0.0000189   0.0000178
           79          80
    1   0.0000133   0.0000100
  
*** Unpaired Electrons
 Yamaguchi Nd:         2.18
 Head-Gordon Nu:       1.63
 Head-Gordon Nu_nl:    1.45
  
**************************************************
 RAS-CI total energy for state   3:  -1740.650799400879
  Excitation energy (eV) =  0.433309224511
  Warning: not all configurations have same symmetry
  State symmetry: *A1    (C2v      )
  <S^2>      :  0.7500
  Dipole Moment:   -0.0000 X    -0.0000 Y    -3.8362 Z
  Trans. Moment:   -0.0006 X     0.0000 Y    -0.0000 Z
  Strength   :  0.000000
  Natural transition orbitals ( 1 -> 3 ):
   e-/hole pair  1 alpha:  ampl =  0.067095 (  0.5%)   [8 : 9]
   e-/hole pair  2 alpha:  ampl =  0.024444 (  0.1%)   [7 : 10]
   e-/hole pair  1 beta :  ampl =  0.886752 ( 78.6%)   [8 : 9]
   e-/hole pair  2 beta :  ampl =  0.085011 (  0.7%)   [7 : 10]
   Sum of square amplitudes: 0.80

 NATURAL OCCUPATION NUMBERS (higher than 1.0E-05)
            1           2           3           4           5           6
    1   2.0000000   2.0000000   2.0000000   2.0000000   2.0000000   2.0000000
            7           8           9          10          11          12
    1   2.0000000   2.0000000   2.0000000   2.0000000   2.0000000   2.0000000
           13          14          15          16          17          18
    1   2.0000000   2.0000000   2.0000000   2.0000000   2.0000000   2.0000000
           19          20          21          22          23          24
    1   2.0000000   2.0000000   2.0000000   2.0000000   1.9999999   1.9999999
           25          26          27          28          29          30
    1   1.9999998   1.9999998   1.9999997   1.9999997   1.9999994   1.9999985
           31          32          33          34          35          36
    1   1.9999966   1.9999966   1.9999966   1.9999959   1.9999847   1.9999847
           37          38          39          40          41          42
    1   1.9999803   1.9999803   1.9999663   1.9999531   1.9999236   1.9999011
           43          44          45          46          47          48
    1   1.9998765   1.9997505   1.9992826   1.9992826   1.9980166   1.9980166
           49          50          51          52          53          54
    1   1.9948484   1.9948484   1.9591959   1.8382183   1.8382183   1.0420030
           55          56          57          58          59          60
    1   0.1573312   0.1573312   0.0083896   0.0083896   0.0017079   0.0013708
           61          62          63          64          65          66
    1   0.0008383   0.0008383   0.0004685   0.0004500   0.0004500   0.0002100
           67          68          69          70          71          72
    1   0.0001761   0.0001761   0.0001116   0.0001116   0.0000651   0.0000606
           73          74          75          76          77          78
    1   0.0000603   0.0000339   0.0000339   0.0000293   0.0000293   0.0000132
           79          80          81          82
    1   0.0000124   0.0000124   0.0000117   0.0000109
Natural Orbitals stored in FCHK

  Amplitudes : 
  
 | HOLE  | ALPHA    | BETA     | PART  |    AMPLITUDE 
--------------------------------------------------
 |       | 11111000 | 01111000 |       |     7.9062913450320E-01
 |       | 11110001 | 01110001 |       |    -1.2723771045114E-01
 |       | 11101010 | 01101010 |       |    -1.2723771004755E-01
 |  37   | 11111000 | 11111000 |       |    -3.5579964008778E-01
 |  37   | 11110001 | 11111000 |       |     1.2503811272541E-01
 |  37   | 11101010 | 11111000 |       |    -1.2503811244649E-01
--------------------------------------------------
*** Contributions RASCI wfn    Active:  72.35
                                 Hole:  21.91
                                 Part:   5.74

      Mulliken population analysis 
 ---------------------------------------------------
   Atom    Charge (a.u.)   Spin (a.u.)  
 ---------------------------------------------------
   1 Mn    1.119684        0.822939 
   2  C   -0.290185        0.026236 
   3  N   -0.316354        0.054616 
   4  N    0.265124       -0.092933 
   5  C   -0.290185        0.026236 
   6  N   -0.316354        0.054616 
   7  C   -0.290185        0.026236 
   8  N   -0.316354        0.054616 
   9  C   -0.335804        0.001056 
  10  N   -0.320290        0.001681 
  11  C   -0.290185        0.026236 
  12  N   -0.316354        0.054616 
  13  O   -0.302557       -0.056154 
 ---------------------------------------------------
   Sum:   -2.000000        1.000000 
 ---------------------------------------------------
 
  
 NATURAL OCCUPATION NUMBERS (higher than 1.0E-05)
            1           2           3           4           5           6
    1   2.0000000   2.0000000   2.0000000   2.0000000   2.0000000   2.0000000
            7           8           9          10          11          12
    1   2.0000000   2.0000000   2.0000000   2.0000000   2.0000000   2.0000000
           13          14          15          16          17          18
    1   2.0000000   2.0000000   2.0000000   2.0000000   2.0000000   2.0000000
           19          20          21          22          23          24
    1   2.0000000   2.0000000   2.0000000   2.0000000   1.9999999   1.9999999
           25          26          27          28          29          30
    1   1.9999998   1.9999998   1.9999997   1.9999997   1.9999994   1.9999985
           31          32          33          34          35          36
    1   1.9999966   1.9999966   1.9999966   1.9999959   1.9999847   1.9999847
           37          38          39          40          41          42
    1   1.9999803   1.9999803   1.9999663   1.9999531   1.9999236   1.9999011
           43          44          45          46          47          48
    1   1.9998765   1.9997505   1.9992826   1.9992826   1.9980166   1.9980166
           49          50          51          52          53          54
    1   1.9948484   1.9948484   1.9591959   1.8382183   1.8382183   1.0420030
           55          56          57          58          59          60
    1   0.1573312   0.1573312   0.0083896   0.0083896   0.0017079   0.0013708
           61          62          63          64          65          66
    1   0.0008383   0.0008383   0.0004685   0.0004500   0.0004500   0.0002100
           67          68          69          70          71          72
    1   0.0001761   0.0001761   0.0001116   0.0001116   0.0000651   0.0000606
           73          74          75          76          77          78
    1   0.0000603   0.0000339   0.0000339   0.0000293   0.0000293   0.0000132
           79          80          81          82
    1   0.0000124   0.0000124   0.0000117   0.0000109
  
*** Unpaired Electrons
 Yamaguchi Nd:         2.33
 Head-Gordon Nu:       1.68
 Head-Gordon Nu_nl:    1.35
  
**************************************************
 RAS-CI total energy for state   4:  -1740.629075096451
  Excitation energy (eV) =  1.024457624692
  Warning: not all configurations have same symmetry
  State symmetry: *B1    (C2v      )
  <S^2>      :  0.7500
  Dipole Moment:   -0.0000 X    -0.0000 Y     0.0133 Z
  Trans. Moment:   -0.0000 X    -0.0000 Y     1.1277 Z
  Strength   :  0.031918
  Natural transition orbitals ( 1 -> 4 ):
   e-/hole pair  1 alpha:  ampl =  0.050566 (  0.3%)   [8 : 9]
   e-/hole pair  2 alpha:  ampl =  0.040866 (  0.2%)   [7 : 10]
   e-/hole pair  1 beta :  ampl =  0.892693 ( 79.7%)   [8 : 9]
   e-/hole pair  2 beta :  ampl =  0.039943 (  0.2%)   [7 : 10]
   Sum of square amplitudes: 0.81

 NATURAL OCCUPATION NUMBERS (higher than 1.0E-05)
            1           2           3           4           5           6
    1   2.0000000   2.0000000   2.0000000   2.0000000   2.0000000   2.0000000
            7           8           9          10          11          12
    1   2.0000000   2.0000000   2.0000000   2.0000000   2.0000000   2.0000000
           13          14          15          16          17          18
    1   2.0000000   2.0000000   2.0000000   2.0000000   2.0000000   2.0000000
           19          20          21          22          23          24
    1   2.0000000   2.0000000   2.0000000   2.0000000   1.9999999   1.9999999
           25          26          27          28          29          30
    1   1.9999998   1.9999997   1.9999996   1.9999996   1.9999988   1.9999984
           31          32          33          34          35          36
    1   1.9999977   1.9999961   1.9999954   1.9999953   1.9999926   1.9999852
           37          38          39          40          41          42
    1   1.9999843   1.9999779   1.9999578   1.9999380   1.9999230   1.9999089
           43          44          45          46          47          48
    1   1.9998717   1.9998545   1.9994816   1.9994717   1.9992176   1.9966433
           49          50          51          52          53          54
    1   1.9949206   1.9946809   1.9937167   1.8274632   1.8272095   1.0051329
           55          56          57          58          59          60
    1   0.1742134   0.1664918   0.0066782   0.0062713   0.0021791   0.0018170
           61          62          63          64          65          66
    1   0.0016469   0.0007325   0.0006332   0.0003251   0.0002899   0.0002820
           67          68          69          70          71          72
    1   0.0001686   0.0001651   0.0000854   0.0000853   0.0000816   0.0000808
           73          74          75          76          77          78
    1   0.0000596   0.0000523   0.0000455   0.0000384   0.0000383   0.0000308
           79          80          81          82          83          84
    1   0.0000261   0.0000193   0.0000185   0.0000160   0.0000148   0.0000142
           85          86
    1   0.0000129   0.0000125
Natural Orbitals stored in FCHK

  Amplitudes : 
  
 | HOLE  | ALPHA    | BETA     | PART  |    AMPLITUDE 
--------------------------------------------------
 |       | 11111000 | 11110000 |       |    -1.0543036347745E-01
 |       | 11111000 | 11011000 |       |     8.8195555765886E-01
 |       | 11110001 | 11010001 |       |    -1.7173358613912E-01
 |       | 11110001 | 11001010 |       |     1.0636045501240E-01
 |       | 11101010 | 11010001 |       |     1.0804159569664E-01
 |       | 11101010 | 11001010 |       |    -1.7275343202335E-01
--------------------------------------------------
*** Contributions RASCI wfn    Active:  89.47
                                 Hole:   4.96
                                 Part:   5.58

      Mulliken population analysis 
 ---------------------------------------------------
   Atom    Charge (a.u.)   Spin (a.u.)  
 ---------------------------------------------------
   1 Mn    0.809667        0.008208 
   2  C   -0.306643        0.005122 
   3  N   -0.360415        0.011960 
   4  N    0.127377       -0.002146 
   5  C   -0.252920        0.065695 
   6  N   -0.308703        0.069358 
   7  C   -0.252920        0.065695 
   8  N   -0.308703        0.069358 
   9  C   -0.001935        0.207340 
  10  N   -0.064855        0.478056 
  11  C   -0.306643        0.005122 
  12  N   -0.360415        0.011960 
  13  O   -0.412891        0.004270 
 ---------------------------------------------------
   Sum:   -2.000000        1.000000 
 ---------------------------------------------------
 
  
 NATURAL OCCUPATION NUMBERS (higher than 1.0E-05)
            1           2           3           4           5           6
    1   2.0000000   2.0000000   2.0000000   2.0000000   2.0000000   2.0000000
            7           8           9          10          11          12
    1   2.0000000   2.0000000   2.0000000   2.0000000   2.0000000   2.0000000
           13          14          15          16          17          18
    1   2.0000000   2.0000000   2.0000000   2.0000000   2.0000000   2.0000000
           19          20          21          22          23          24
    1   2.0000000   2.0000000   2.0000000   2.0000000   1.9999999   1.9999999
           25          26          27          28          29          30
    1   1.9999998   1.9999997   1.9999996   1.9999996   1.9999988   1.9999984
           31          32          33          34          35          36
    1   1.9999977   1.9999961   1.9999954   1.9999953   1.9999926   1.9999852
           37          38          39          40          41          42
    1   1.9999843   1.9999779   1.9999578   1.9999380   1.9999230   1.9999089
           43          44          45          46          47          48
    1   1.9998717   1.9998545   1.9994816   1.9994717   1.9992176   1.9966433
           49          50          51          52          53          54
    1   1.9949206   1.9946809   1.9937167   1.8274632   1.8272095   1.0051329
           55          56          57          58          59          60
    1   0.1742134   0.1664918   0.0066782   0.0062713   0.0021791   0.0018170
           61          62          63          64          65          66
    1   0.0016469   0.0007325   0.0006332   0.0003251   0.0002899   0.0002820
           67          68          69          70          71          72
    1   0.0001686   0.0001651   0.0000854   0.0000853   0.0000816   0.0000808
           73          74          75          76          77          78
    1   0.0000596   0.0000523   0.0000455   0.0000384   0.0000383   0.0000308
           79          80          81          82          83          84
    1   0.0000261   0.0000193   0.0000185   0.0000160   0.0000148   0.0000142
           85          86
    1   0.0000129   0.0000125
  
*** Unpaired Electrons
 Yamaguchi Nd:         2.34
 Head-Gordon Nu:       1.73
 Head-Gordon Nu_nl:    1.39
  
**************************************************
 RAS-CI total energy for state   5:  -1740.629075004714
  Excitation energy (eV) =  1.024460120965
  Warning: not all configurations have same symmetry
  State symmetry: *B2    (C2v      )
  <S^2>      :  0.7500
  Dipole Moment:   -0.0000 X    -0.0000 Y     0.0138 Z
  Trans. Moment:   -0.0000 X    -0.0000 Y     0.0000 Z
  Strength   :  0.000000
  Natural transition orbitals ( 1 -> 5 ):
   e-/hole pair  1 alpha:  ampl =  0.025266 (  0.1%)   [8 : 9]
   e-/hole pair  2 alpha:  ampl =  0.011729 (  0.0%)   [7 : 10]
   e-/hole pair  1 beta :  ampl =  0.890113 ( 79.2%)   [8 : 9]
   e-/hole pair  2 beta :  ampl =  0.040734 (  0.2%)   [7 : 10]
   Sum of square amplitudes: 0.80

 NATURAL OCCUPATION NUMBERS (higher than 1.0E-05)
            1           2           3           4           5           6
    1   2.0000000   2.0000000   2.0000000   2.0000000   2.0000000   2.0000000
            7           8           9          10          11          12
    1   2.0000000   2.0000000   2.0000000   2.0000000   2.0000000   2.0000000
           13          14          15          16          17          18
    1   2.0000000   2.0000000   2.0000000   2.0000000   2.0000000   2.0000000
           19          20          21          22          23          24
    1   2.0000000   2.0000000   2.0000000   2.0000000   1.9999999   1.9999999
           25          26          27          28          29          30
    1   1.9999998   1.9999997   1.9999996   1.9999996   1.9999988   1.9999984
           31          32          33          34          35          36
    1   1.9999976   1.9999961   1.9999954   1.9999954   1.9999927   1.9999852
           37          38          39          40          41          42
    1   1.9999844   1.9999779   1.9999581   1.9999377   1.9999232   1.9999090
           43          44          45          46          47          48
    1   1.9998729   1.9998546   1.9994817   1.9994720   1.9992160   1.9966448
           49          50          51          52          53          54
    1   1.9949210   1.9946863   1.9937127   1.8274274   1.8272517   1.0051362
           55          56          57          58          59          60
    1   0.1741633   0.1665296   0.0066777   0.0062708   0.0021765   0.0018173
           61          62          63          64          65          66
    1   0.0016468   0.0007327   0.0006338   0.0003254   0.0002898   0.0002824
           67          68          69          70          71          72
    1   0.0001688   0.0001649   0.0000857   0.0000856   0.0000816   0.0000807
           73          74          75          76          77          78
    1   0.0000596   0.0000524   0.0000456   0.0000384   0.0000383   0.0000308
           79          80          81          82          83          84
    1   0.0000261   0.0000193   0.0000185   0.0000160   0.0000148   0.0000142
           85          86
    1   0.0000129   0.0000125
Natural Orbitals stored in FCHK

  Amplitudes : 
  
 | HOLE  | ALPHA    | BETA     | PART  |    AMPLITUDE 
--------------------------------------------------
 |       | 11111000 | 11101000 |       |    -1.0542981921247E-01
 |       | 11111000 | 10111000 |       |     8.8195689822405E-01
 |       | 11110001 | 10110001 |       |    -1.7272855839761E-01
 |       | 11110001 | 10101010 |       |     1.0802545388398E-01
 |       | 11101010 | 10110001 |       |     1.0636875651750E-01
 |       | 11101010 | 10101010 |       |    -1.7176936635860E-01
--------------------------------------------------
*** Contributions RASCI wfn    Active:  89.47
                                 Hole:   4.96
                                 Part:   5.58

      Mulliken population analysis 
 ---------------------------------------------------
   Atom    Charge (a.u.)   Spin (a.u.)  
 ---------------------------------------------------
   1 Mn    0.809700        0.007961 
   2  C   -0.252951        0.065638 
   3  N   -0.308713        0.069360 
   4  N    0.127298       -0.001977 
   5  C   -0.306636        0.005131 
   6  N   -0.360399        0.011977 
   7  C   -0.306636        0.005131 
   8  N   -0.360399        0.011977 
   9  C   -0.001930        0.207392 
  10  N   -0.064772        0.478071 
  11  C   -0.252951        0.065638 
  12  N   -0.308713        0.069360 
  13  O   -0.412897        0.004342 
 ---------------------------------------------------
   Sum:   -2.000000        1.000000 
 ---------------------------------------------------
 
  
 NATURAL OCCUPATION NUMBERS (higher than 1.0E-05)
            1           2           3           4           5           6
    1   2.0000000   2.0000000   2.0000000   2.0000000   2.0000000   2.0000000
            7           8           9          10          11          12
    1   2.0000000   2.0000000   2.0000000   2.0000000   2.0000000   2.0000000
           13          14          15          16          17          18
    1   2.0000000   2.0000000   2.0000000   2.0000000   2.0000000   2.0000000
           19          20          21          22          23          24
    1   2.0000000   2.0000000   2.0000000   2.0000000   1.9999999   1.9999999
           25          26          27          28          29          30
    1   1.9999998   1.9999997   1.9999996   1.9999996   1.9999988   1.9999984
           31          32          33          34          35          36
    1   1.9999976   1.9999961   1.9999954   1.9999954   1.9999927   1.9999852
           37          38          39          40          41          42
    1   1.9999844   1.9999779   1.9999581   1.9999377   1.9999232   1.9999090
           43          44          45          46          47          48
    1   1.9998729   1.9998546   1.9994817   1.9994720   1.9992160   1.9966448
           49          50          51          52          53          54
    1   1.9949210   1.9946863   1.9937127   1.8274274   1.8272517   1.0051362
           55          56          57          58          59          60
    1   0.1741633   0.1665296   0.0066777   0.0062708   0.0021765   0.0018173
           61          62          63          64          65          66
    1   0.0016468   0.0007327   0.0006338   0.0003254   0.0002898   0.0002824
           67          68          69          70          71          72
    1   0.0001688   0.0001649   0.0000857   0.0000856   0.0000816   0.0000807
           73          74          75          76          77          78
    1   0.0000596   0.0000524   0.0000456   0.0000384   0.0000383   0.0000308
           79          80          81          82          83          84
    1   0.0000261   0.0000193   0.0000185   0.0000160   0.0000148   0.0000142
           85          86
    1   0.0000129   0.0000125
  
*** Unpaired Electrons
 Yamaguchi Nd:         2.34
 Head-Gordon Nu:       1.73
 Head-Gordon Nu_nl:    1.39
  
**************************************************
 RAS-CI total energy for state   6:  -1740.574562553995
  Excitation energy (eV) =  2.507819375998
  Warning: not all configurations have same symmetry
  State symmetry: *A1    (C2v      )
  <S^2>      :  0.7500
  Dipole Moment:   -0.0000 X    -0.0000 Y    -3.5017 Z
  Trans. Moment:    0.0000 X     0.0000 Y    -0.1403 Z
  Strength   :  0.001210
  Natural transition orbitals ( 1 -> 6 ):
   e-/hole pair  1 alpha:  ampl =  0.420176 ( 17.7%)   [8 : 9]
   e-/hole pair  2 alpha:  ampl =  0.176970 (  3.1%)   [7 : 10]
   e-/hole pair  1 beta :  ampl =  0.450808 ( 20.3%)   [8 : 9]
   e-/hole pair  2 beta :  ampl =  0.130891 (  1.7%)   [7 : 10]
   Sum of square amplitudes: 0.45

 NATURAL OCCUPATION NUMBERS (higher than 1.0E-05)
            1           2           3           4           5           6
    1   2.0000000   2.0000000   2.0000000   2.0000000   2.0000000   2.0000000
            7           8           9          10          11          12
    1   2.0000000   2.0000000   2.0000000   2.0000000   2.0000000   2.0000000
           13          14          15          16          17          18
    1   2.0000000   2.0000000   2.0000000   2.0000000   2.0000000   2.0000000
           19          20          21          22          23          24
    1   2.0000000   2.0000000   2.0000000   2.0000000   2.0000000   1.9999999
           25          26          27          28          29          30
    1   1.9999997   1.9999997   1.9999996   1.9999995   1.9999992   1.9999982
           31          32          33          34          35          36
    1   1.9999978   1.9999964   1.9999945   1.9999935   1.9999904   1.9999876
           37          38          39          40          41          42
    1   1.9999848   1.9999816   1.9999630   1.9999613   1.9999445   1.9999167
           43          44          45          46          47          48
    1   1.9994682   1.9994347   1.9991749   1.9989633   1.9983837   1.9946847
           49          50          51          52          53          54
    1   1.9943016   1.9913348   1.9861986   1.9801561   1.2647063   0.7915596
           55          56          57          58          59          60
    1   0.6404941   0.3376232   0.0070513   0.0056053   0.0021051   0.0020598
           61          62          63          64          65          66
    1   0.0018238   0.0013199   0.0011882   0.0008055   0.0002813   0.0002685
           67          68          69          70          71          72
    1   0.0002524   0.0002076   0.0001685   0.0001029   0.0000774   0.0000715
           73          74          75          76          77          78
    1   0.0000610   0.0000486   0.0000464   0.0000375   0.0000375   0.0000257
           79          80          81          82
    1   0.0000178   0.0000168   0.0000129   0.0000109
Natural Orbitals stored in FCHK

  Amplitudes : 
  
 | HOLE  | ALPHA    | BETA     | PART  |    AMPLITUDE 
--------------------------------------------------
 |       | 11111000 | 11110000 |       |    -2.1835761217126E-01
 |       | 11111000 | 11100010 |       |     4.4253319679533E-01
 |       | 11110010 | 11101000 |       |     5.4708122254161E-01
 |       | 11110010 | 11100001 |       |    -1.7280573060184E-01
 |       | 11110001 | 11110000 |       |    -4.0780897366104E-01
 |       | 11101010 | 11110000 |       |     1.0454802576815E-01
 |       | 11101001 | 11101000 |       |     1.8507794310543E-01
 |       | 11100011 | 11110000 |       |     1.7319777851075E-01
--------------------------------------------------
*** Contributions RASCI wfn    Active:  84.50
                                 Hole:   6.83
                                 Part:   8.67

      Mulliken population analysis 
 ---------------------------------------------------
   Atom    Charge (a.u.)   Spin (a.u.)  
 ---------------------------------------------------
   1 Mn    1.164155        0.296213 
   2  C   -0.326816        0.006658 
   3  N   -0.334834        0.014947 
   4  N    0.230746        0.427222 
   5  C   -0.317567        0.006326 
   6  N   -0.316505        0.002555 
   7  C   -0.317567        0.006326 
   8  N   -0.316505        0.002555 
   9  C   -0.297733       -0.000097 
  10  N   -0.250057        0.003137 
  11  C   -0.326816        0.006658 
  12  N   -0.334834        0.014947 
  13  O   -0.255667        0.212551 
 ---------------------------------------------------
   Sum:   -2.000000        1.000000 
 ---------------------------------------------------
 
  
 NATURAL OCCUPATION NUMBERS (higher than 1.0E-05)
            1           2           3           4           5           6
    1   2.0000000   2.0000000   2.0000000   2.0000000   2.0000000   2.0000000
            7           8           9          10          11          12
    1   2.0000000   2.0000000   2.0000000   2.0000000   2.0000000   2.0000000
           13          14          15          16          17          18
    1   2.0000000   2.0000000   2.0000000   2.0000000   2.0000000   2.0000000
           19          20          21          22          23          24
    1   2.0000000   2.0000000   2.0000000   2.0000000   2.0000000   1.9999999
           25          26          27          28          29          30
    1   1.9999997   1.9999997   1.9999996   1.9999995   1.9999992   1.9999982
           31          32          33          34          35          36
    1   1.9999978   1.9999964   1.9999945   1.9999935   1.9999904   1.9999876
           37          38          39          40          41          42
    1   1.9999848   1.9999816   1.9999630   1.9999613   1.9999445   1.9999167
           43          44          45          46          47          48
    1   1.9994682   1.9994347   1.9991749   1.9989633   1.9983837   1.9946847
           49          50          51          52          53          54
    1   1.9943016   1.9913348   1.9861986   1.9801561   1.2647063   0.7915596
           55          56          57          58          59          60
    1   0.6404941   0.3376232   0.0070513   0.0056053   0.0021051   0.0020598
           61          62          63          64          65          66
    1   0.0018238   0.0013199   0.0011882   0.0008055   0.0002813   0.0002685
           67          68          69          70          71          72
    1   0.0002524   0.0002076   0.0001685   0.0001029   0.0000774   0.0000715
           73          74          75          76          77          78
    1   0.0000610   0.0000486   0.0000464   0.0000375   0.0000375   0.0000257
           79          80          81          82
    1   0.0000178   0.0000168   0.0000129   0.0000109
  
*** Unpaired Electrons
 Yamaguchi Nd:         3.48
 Head-Gordon Nu:       2.59
 Head-Gordon Nu_nl:    2.86
  
**************************************************
 RAS-CI total energy for state   7:  -1740.574560877654
  Excitation energy (eV) =  2.507864991553
  Warning: not all configurations have same symmetry
  State symmetry: *B2    (C2v      )
  <S^2>      :  0.7500
  Dipole Moment:   -0.0000 X    -0.0000 Y    -3.5024 Z
  Trans. Moment:    0.0000 X     0.0000 Y    -0.0000 Z
  Strength   :  0.000000
  Natural transition orbitals ( 1 -> 7 ):
   e-/hole pair  1 alpha:  ampl =  0.492410 ( 24.2%)   [8 : 9]
   e-/hole pair  2 alpha:  ampl =  0.179209 (  3.2%)   [7 : 10]
   e-/hole pair  1 beta :  ampl =  0.474962 ( 22.6%)   [8 : 9]
   e-/hole pair  2 beta :  ampl =  0.174424 (  3.0%)   [7 : 10]
   Sum of square amplitudes: 0.54

 NATURAL OCCUPATION NUMBERS (higher than 1.0E-05)
            1           2           3           4           5           6
    1   2.0000000   2.0000000   2.0000000   2.0000000   2.0000000   2.0000000
            7           8           9          10          11          12
    1   2.0000000   2.0000000   2.0000000   2.0000000   2.0000000   2.0000000
           13          14          15          16          17          18
    1   2.0000000   2.0000000   2.0000000   2.0000000   2.0000000   2.0000000
           19          20          21          22          23          24
    1   2.0000000   2.0000000   2.0000000   2.0000000   2.0000000   1.9999999
           25          26          27          28          29          30
    1   1.9999997   1.9999997   1.9999996   1.9999995   1.9999991   1.9999982
           31          32          33          34          35          36
    1   1.9999978   1.9999962   1.9999942   1.9999936   1.9999904   1.9999877
           37          38          39          40          41          42
    1   1.9999844   1.9999815   1.9999630   1.9999611   1.9999444   1.9999149
           43          44          45          46          47          48
    1   1.9994716   1.9994452   1.9991843   1.9989617   1.9983859   1.9946780
           49          50          51          52          53          54
    1   1.9942479   1.9914309   1.9863793   1.9800871   1.2650475   0.7912987
           55          56          57          58          59          60
    1   0.6371962   0.3407033   0.0070407   0.0056056   0.0020849   0.0020552
[...]
   161    1.598467323848e-02
   162    2.161902601383e-12
   163   -1.415255176332e-03
   164   -1.746888224352e-13
   165   -4.107891765618e-03
   166   -2.402735785519e-03
   167    5.608859730832e-14
   168    1.406172270638e-13
   169   -4.266303275913e-03
   170    2.581528706082e-03
   171    5.054001573113e-03
   172   -2.084290589797e-03
   173   -1.140312389902e-01
   174    2.403484617891e+00
   175   -8.223651794259e-12
   176   -7.468770058593e-02
   177   -1.636757086574e-02
   178   -3.237757284502e-12
   179    1.918663765754e-02
   180   -4.984955218180e-04
   181   -4.327319058639e-11
   182    5.398226239424e-01
   183   -3.593128441942e-02
   184    1.989695079594e-03
   185    8.027772375888e-14
   186    6.505816849046e-04
   187    3.855784063188e-03
   188    5.506571761071e-13
   189   -2.706082653007e-02
   190   -3.141456279138e-13
   191    5.479238284550e-03
   192   -4.891860102472e-02
   193    8.391655426099e-13
   194   -1.761927193195e-04
   195   -3.595463770462e-14
   196   -2.496496397276e-03
   197   -2.246573581048e-04
   198   -1.431553443496e-14
   199   -9.584130364337e-14
   200   -3.368649002555e-03
   201   -1.888263774520e-02
   202   -4.484562033874e-02
   203    1.224097821181e-01
   204   -6.813846075102e-01
   205    2.885734926408e+00
   206   -2.984927843092e-12
   207   -8.219187177856e-02
   208    2.410138799246e-02
   209   -6.476039322856e-12
   210   -2.634886357329e-01
   211    6.243251831713e-02
   212    1.680745820298e-12
   213   -3.139865122746e+00
   214    4.369159682019e-01
   215    1.372565826615e-02
   216   -1.949692035423e-13
   217    4.446570566268e-03
   218    2.195540645695e-02
   219    1.890640421998e-13
   220    1.739725681716e-03
   221    8.213204422125e-13
   222    3.530403792421e-03
   223    1.598467354009e-02
   224   -3.066949472164e-12
   225   -1.415255181644e-03
   226   -1.414184524692e-13
   227    4.107891798452e-03
   228   -2.402735792874e-03
   229   -2.212889160108e-14
   230    3.859902848735e-13
   231    4.266303318002e-03
   232    2.581528708912e-03
   233    5.054001585878e-03
   234   -2.084290770438e-03
   235   -1.140312377115e-01
   236    2.403484618065e+00
   237   -2.538767807092e-15
   238    7.468770060793e-02
   239   -1.636757082092e-02
   240   -2.776182062014e-13
   241   -1.918663827803e-02
   242   -4.984954557823e-04
   243    7.241884175668e-12
   244   -5.398226241303e-01
   245   -3.593128401259e-02
   246    1.989695076826e-03
   247    2.671433495423e-15
   248   -6.505816798163e-04
   249    3.855784059066e-03
   250    2.307793713074e-13
   251   -2.706082660805e-02
   252   -2.520739693368e-13
   253   -5.479238318116e-03
   254   -4.891860115801e-02
   255   -1.059936860504e-12
   256   -1.761927218110e-04
   257   -4.874551283451e-14
   258    2.496496405232e-03
   259   -2.246573612720e-04
   260    7.718679211413e-15
   261   -1.347528859330e-13
   262    3.368649013029e-03
   263   -3.543180870772e-10
   264   -8.031796209021e-10
   265   -2.010486950532e-10
   266    1.089588638759e-08
   267    1.798646173008e-07
   268   -4.381013141239e-11
   269   -6.634927069565e-11
   270    6.068069406326e-10
   271   -6.678948540062e-11
   272   -6.642249944511e-11
   273   -5.036770226591e-09
   274   -1.299412834277e-10
   275   -3.147741095555e-10
   276    1.073724987446e-07
   277    1.285229542014e-10
   278   -1.675294885456e-12
   279   -2.285735836716e-12
   280   -4.308024468589e-03
   281    4.032218254061e-14
   282    4.969592674875e-09
   283    1.935618332283e-12
   284    2.139637078624e-11
   285    2.766255205641e-02
   286   -3.118932345597e-13
   287   -7.796340791922e-11
   288   -1.128578567405e-12
   289   -1.390290660375e-12
   290    2.961992340551e-03
   291   -1.296063296046e-14
   292    3.987359487728e-14
   293    1.150440420011e-12
   294   -2.071661490291e-11
   295   -8.543687923747e-11
   296    1.098302221739e-09
   297   -9.964668819251e-09
   298    2.809013416750e-08
   299    2.755874348170e-11
   300    3.106427723561e-11
   301    2.756666700465e-10
   302    2.174661145604e-11
   303    4.538654174713e-12
   304   -3.776302676811e-09
   305    1.152939098359e-10
   306    2.580554936404e-10
   307   -4.217989966419e-09
   308    1.175513219208e-10
   309   -1.994493112334e-12
   310   -4.576974649978e-12
   311    7.383102121236e-04
   312   -2.060929841902e-15
   313   -1.236570875210e-09
   314   -4.922798280127e-14
   315    7.770204618618e-12
   316   -2.938581250912e-03
   317    1.568101228506e-14
   318   -1.520629233425e-11
   319    3.326943755211e-13
   320    4.410079072759e-13
   321   -4.381754359018e-04
   322    5.592527615430e-15
   323    2.312332183368e-15
   324   -1.301766854034e-13
   325    1.888263761183e-02
   326    4.484562009514e-02
   327   -1.224097831372e-01
   328    6.813846217597e-01
   329   -2.885735284333e+00
   330   -8.219187192180e-02
   331   -1.450832292846e-11
   332   -2.410138578297e-02
   333   -2.634886374228e-01
   334   -1.130403409766e-11
   335   -6.243251273112e-02
   336   -3.139865136029e+00
   337   -1.022587292621e-10
   338   -4.369159675961e-01
   339   -1.372565899000e-02
   340    4.446570723998e-03
   341    8.356447044749e-13
   342    2.195540686918e-02
   343   -7.592398931777e-13
   344   -1.739722952448e-03
   345    3.530403745298e-03
   346   -3.585153875163e-12
   347    1.598467358135e-02
   348    2.009142505144e-11
   349    1.415255154503e-03
   350    4.107891946660e-03
   351    5.453200824929e-13
   352   -2.402735716642e-03
   353   -4.246557532700e-13
   354   -4.266303380641e-03
   355   -9.458191608386e-13
   356   -2.581528931347e-03
   357   -5.054002225110e-03
   358    2.084293813362e-03
   359    1.140312268997e-01
   360   -2.403484523620e+00
   361    7.468770159882e-02
   362   -7.196344214977e-13
   363    1.636756976039e-02
   364   -1.918663857047e-02
   365   -8.995450218041e-12
   366    4.984946497564e-04
   367   -5.398225970357e-01
   368    8.555964617352e-11
   369    3.593127983220e-02
   370   -1.989695059313e-03
   371   -6.505815386957e-04
   372   -2.130313883197e-13
   373    3.855784015166e-03
   374   -1.881628099859e-12
   375    2.706082614554e-02
   376   -5.479238514750e-03
   377    1.712809066670e-12
   378   -4.891860123615e-02
   379    8.431099568496e-12
   380    1.761927497214e-04
   381    2.496496374392e-03
   382   -1.796018845798e-13
   383   -2.246574177213e-04
   384    2.161527792692e-13
   385   -3.368649094705e-03
   386    4.846774023792e-13
   387   -1.269699913167e-10
   388   -3.346820027842e-10
   389    1.188428511417e-09
   390   -2.866240833219e-09
   391    4.301448013749e-09
   392    9.202345916531e-13
   393   -7.917347116457e-12
   394   -4.800354532278e-10
   395    8.120405389778e-12
   396   -1.011569127074e-11
   397    2.527771453091e-09
   398   -3.504787692704e-11
   399    2.109381419535e-11
   400    6.265690115579e-09
   401    1.791000250667e-10
   402   -6.695021056644e-13
   403    2.728182263434e-13
   404    4.925994784437e-04
   405    8.240597978655e-16
   406   -1.131059823058e-09
   407    5.286222848344e-14
   408   -4.145813900513e-12
   409   -6.533198667131e-04
   410    5.421097484383e-14
   411    5.806386925086e-11
   412    6.245026197560e-14
   413    1.370409861978e-13
   414    5.718427531393e-05
   415   -7.278890285204e-15
   416   -1.035469889459e-14
   417    4.503064316829e-15
Sym=X
Ene= 0.722500
Spin=Alpha
Occup=0
     1    1.020748120489e-02
     2   -2.564232266347e-02
     3    9.510055099941e-02
     4   -7.324590748985e-03
     5    5.001166362513e+00
     6   -8.611292905136e+00
     7   -4.221384526659e-13
     8    2.263251521958e-11
     9   -3.379217452809e-03
    10    3.243780244411e-12
    11   -7.496796239348e-11
    12    5.823084877064e-03
    13   -1.930981416431e-11
    14    4.408341053308e-11
    15    3.809660494936e-02
    16   -1.715148023607e-10
    17    2.539722265826e-09
    18    1.457461284398e+00
    19    7.736055606956e-03
    20   -1.899679632350e-12
    21    2.798398231890e-12
    22    9.375793980602e-09
    23    6.404930361234e-13
    24   -8.214169714781e-03
    25   -1.738928445683e-12
    26   -4.695306643487e-12
    27    6.410361084255e-09
    28    1.812786026641e-13
    29    3.478772379768e-01
    30    1.230360258120e-11
    31   -2.613356406278e-11
    32    1.020107645577e-08
    33    1.727653103837e-12
    34    1.048582906678e+01
    35   -1.290353171535e-10
    36   -1.180130611289e-09
    37    4.709022505267e-08
    38   -5.328506866123e-11
    39    5.102569242308e-03
    40   -2.899809298934e-13
    41   -3.600585107844e-12
    42    7.151221455282e-12
    43   -4.098317071097e-14
    44   -1.134273014056e-12
    45   -8.910322132905e-12
    46    5.771183185337e-03
    47    1.174206066376e-02
    48    1.327755694423e-02
    49   -3.003474337698e-01
    50    9.508219188404e+00
    51    7.011533150456e-03
    52    7.648848568409e-12
    53   -6.017570660913e-02
    54   -9.417831198269e-03
    55    6.787290868226e-11
    56   -1.546182701801e-01
    57    7.741141752912e-02
    58    6.951014763779e-11
    59   -1.403858711362e-02
    60    1.817034135203e-02
    61    4.015096307068e-03
    62   -3.652096203580e-12
    63   -9.340210558788e-03
    64    1.182876157592e-12
    65   -7.528835434843e-02
    66   -6.158814675091e-03
    67    1.409777416334e-11
    68    2.919430800702e-03
    69    1.838994516563e-11
    70    1.034104882504e-03
    71    4.032314421980e-03
    72   -1.667525275847e-12
    73   -2.305593132241e-03
    74   -7.661141686321e-13
    75   -1.205727525905e-03
    76   -1.524940330261e-12
    77    6.594335022285e-03
    78    1.885145085968e-02
    79   -8.666179086647e-02
    80    3.097177922396e-01
    81   -2.985539763526e+00
    82    1.671846485234e-02
    83    2.874560789054e-11
    84    2.813260885390e-02
    85   -1.002364800527e-02
    86    3.444614428763e-11
    87    2.256827740695e-02
    88    8.533787868081e-01
    89   -6.283661178191e-11
    90    8.659962145435e-02
    91   -9.466512459244e-04
    92    3.542395377820e-03
    93    3.680161373126e-13
    94    1.929135887012e-03
    95   -3.025221078420e-12
    96    1.595749585616e-02
    97   -4.080136034985e-03
    98   -4.858017308741e-12
    99   -6.148354292615e-03
   100    1.591927718120e-11
   101   -7.930478733929e-04
   102   -1.049887623485e-03
   103    2.909874489802e-13
   104    1.551103069200e-03
   105    5.834508223779e-13
   106   -1.771200177064e-03
   107   -7.167536963254e-13
   108    1.069324388979e-02
   109    3.008486220779e-02
   110   -7.849768550345e-02
   111    3.890487425035e-01
   112   -9.673575900492e+00
   113    1.845175227888e-11
   114   -6.656930605711e-11
   115    1.033261841130e-03
   116    3.871725162696e-11
   117   -1.591117394090e-10
   118   -2.249312530338e-01
   119   -1.695288354142e-11
   120    4.844806084092e-10
   121    2.715266805664e+00
   122   -4.454254192175e-03
   123   -2.750395397544e-13
   124   -1.846574976261e-12
   125   -7.256431566738e-12
   126   -1.795030832816e-13
   127   -2.192417393583e-01
   128    7.819755259986e-12
   129   -6.301816707355e-13
   130    1.552816764061e-10
   131    4.129069765835e-13
   132   -1.470352144917e-02
   133    6.112562712934e-13
   134   -1.144415942220e-12
   135   -1.966325951890e-11
   136   -2.057259267441e-14
   137   -3.400604450809e-13
   138   -2.127163029053e-12
   139    5.771182467322e-03
   140    1.174205895038e-02
   141    1.327756099880e-02
   142   -3.003474544570e-01
   143    9.508219262057e+00
   144   -5.574387305918e-12
   145   -7.011530059111e-03
   146   -6.017570589686e-02
   147    1.462881552006e-11
   148    9.417838344970e-03
   149   -1.546182682957e-01
   150   -2.218557004774e-10
   151   -7.741130734274e-02
   152   -1.403857448312e-02
   153    1.817034183533e-02
   154   -7.524120215763e-13
   155   -4.015096458485e-03
   156    9.340211311609e-03
   157    1.092013632298e-12
   158   -7.528835508253e-02
   159    3.491987948800e-12
   160    6.158814678283e-03
   161   -2.919431400689e-03
   162   -1.321735082493e-11
   163    1.034104848882e-03
   164    1.287581152809e-13
   165   -4.032314471018e-03
   166    2.305593073123e-03
   167    4.786615982050e-13
   168   -1.315158485587e-12
   169   -1.205727543175e-03
   170    6.594335115277e-03
   171    1.885145100723e-02
   172   -8.666179016621e-02
   173    3.097177822791e-01
   174   -2.985539668378e+00
   175    6.902377757897e-12
   176   -1.671846765274e-02
   177    2.813260838598e-02
   178   -8.921485078472e-12
   179    1.002364650989e-02
   180    2.256827716493e-02
   181    8.494435710382e-11
   182   -8.533787649505e-01
   183    8.659962152532e-02
   184   -9.466511525304e-04
   185    3.150558698477e-14
   186   -3.542395373206e-03
   187   -1.929135710838e-03
   188   -6.514268291458e-13
   189    1.595749501272e-02
   190   -1.157918433446e-12
   191    4.080136180689e-03
   192    6.148352780163e-03
   193   -2.102221174916e-12
   194   -7.930478730600e-04
   195    9.079427476782e-14
   196    1.049887551987e-03
   197   -1.551103069155e-03
   198   -2.085519257289e-13
   199    7.266457401067e-13
   200   -1.771200274669e-03
   201    5.771182484118e-03
   202    1.174205902089e-02
   203    1.327756127103e-02
   204   -3.003474594804e-01
   205    9.508219255680e+00
   206    3.127519770940e-11
   207    7.011530012926e-03
   208   -6.017570547232e-02
   209    6.696725465827e-11
   210   -9.417842466463e-03
   211   -1.546182673141e-01
   212   -3.908123824559e-11
   213    7.741131076447e-02
   214   -1.403857203258e-02
   215    1.817034186857e-02
   216   -7.247067529415e-13
   217    4.015096458818e-03
   218    9.340211359174e-03
   219   -2.087552353203e-12
   220   -7.528835401891e-02
   221    3.874744275434e-12
   222   -6.158814309036e-03
   223   -2.919429577428e-03
   224    1.552431447283e-11
   225    1.034104812206e-03
   226    6.194177115670e-14
   227    4.032314588169e-03
   228    2.305593026808e-03
   229   -5.861981906830e-13
   230   -1.990644628302e-12
   231    1.205727705410e-03
   232    6.594335070347e-03
   233    1.885145093572e-02
   234   -8.666179087160e-02
   235    3.097177891916e-01
   236   -2.985539667939e+00
   237   -1.528873273642e-11
   238    1.671846775700e-02
   239    2.813260813592e-02
   240   -1.832960172532e-11
   241   -1.002364900745e-02
   242    2.256827731294e-02
   243   -4.641315110021e-11
   244    8.533787624468e-01
   245    8.659962003637e-02
   246   -9.466511505787e-04
   247    2.415093949479e-13
   248    3.542395347255e-03
   249   -1.929135712946e-03
   250   -1.404844990338e-12
   251    1.595749465904e-02
   252   -1.422096110575e-12
   253   -4.080136266134e-03
   254    6.148352145764e-03
   255    2.747843619311e-12
   256   -7.930478777394e-04
   257    1.332432157230e-13
   258   -1.049887518691e-03
   259   -1.551103075313e-03
   260    2.381429472023e-13
   261    8.854154388838e-13
   262    1.771200318950e-03
   263    1.417514112277e-02
   264    3.173319975129e-02
   265    3.839878281038e-02
   266   -7.340326910981e-01
   267   -8.824284555662e+00
   268   -5.910547723996e-11
   269    3.400431143261e-10
   270   -1.112380897389e-02
   271   -7.014895088420e-11
   272    5.461005259111e-10
   273    3.290642200378e-01
   274   -4.384353990972e-10
   275    1.069276757415e-09
   276   -4.906325981103e+00
   277   -1.237328950714e-02
   278   -6.315295508763e-13
   279    1.500253740683e-11
   280   -7.567155582699e-11
   281   -1.511851145871e-13
   282   -2.623098601424e-01
   283   -2.086726624828e-11
   284   -1.207667091330e-10
   285    5.159283833489e-10
   286    1.196363343195e-12
   287    5.331045861096e-03
   288    3.405747905916e-13
   289    1.799185060376e-11
   290    5.372081685745e-11
   291    5.263604999782e-14
   292   -7.584471245492e-13
   293   -2.320885345887e-12
   294    4.827189991591e-04
   295    3.068582333822e-03
   296   -5.824565602687e-02
   297    5.219689004501e-01
   298   -9.198943395105e-01
   299    4.587610315503e-11
   300   -1.636671638060e-10
   301   -3.341587504125e-02
   302    2.579785343682e-11
   303   -1.105319108810e-10
   304    1.980638427200e-01
   305    2.276351884767e-10
   306   -1.075096008312e-09
   307    3.527672350440e-01
   308   -7.127142626922e-03
   309   -2.883472974280e-12
   310    2.123336196539e-11
   311    1.134042946355e-11
   312    9.146919942081e-15
   313    7.813459123707e-02
   314   -4.312640522475e-12
   315   -5.135657329090e-11
   316   -4.008679499456e-11
   317   -6.296275371733e-14
   318    1.835002335091e-03
   319   -5.198448008864e-13
   320   -7.670027156806e-12
   321   -7.482328992503e-12
   322   -2.077130624842e-14
   323    5.664750352824e-14
   324    1.585567614704e-13
   325    5.771183189748e-03
   326    1.174206067826e-02
   327    1.327755692004e-02
   328   -3.003474341782e-01
   329    9.508219186925e+00
   330   -7.011533156974e-03
   331    4.709501452010e-11
   332   -6.017570654353e-02
   333    9.417831697928e-03
   334    1.285794526407e-10
   335   -1.546182700667e-01
   336   -7.741141783571e-02
   337    1.520534739785e-10
   338   -1.403858687151e-02
   339    1.817034135699e-02
   340   -4.015096306040e-03
   341   -3.359655002116e-12
   342   -9.340210563653e-03
   343    2.334264102540e-13
   344   -7.528835424114e-02
   345    6.158814628256e-03
   346    1.374789865283e-11
   347    2.919430622605e-03
   348   -2.922835042572e-11
   349    1.034104879144e-03
   350   -4.032314431764e-03
   351   -1.998172460826e-12
   352   -2.305593127481e-03
   353    1.030427262613e-12
   354    1.205727540456e-03
   355    1.665083002034e-13
   356    6.594335019215e-03
   357    1.885145085341e-02
   358   -8.666179090003e-02
   359    3.097177927148e-01
   360   -2.985539762743e+00
   361   -1.671846486521e-02
   362    9.119878029845e-12
   363    2.813260881741e-02
   364    1.002364824787e-02
   365    2.320971735116e-11
   366    2.256827741425e-02
   367   -8.533787862789e-01
   368   -1.753785255042e-10
   369    8.659962127721e-02
   370   -9.466512437970e-04
   371   -3.542395374826e-03
   372    5.771335286845e-13
   373    1.929135883997e-03
   374    5.193365756970e-12
   375    1.595749581405e-02
   376    4.080136046896e-03
   377   -4.907747710829e-12
   378   -6.148354213059e-03
   379   -1.862896772606e-11
   380   -7.930478740343e-04
   381    1.049887620024e-03
   382    4.634654205554e-13
   383    1.551103069969e-03
   384   -6.488095379963e-13
   385    1.771200181877e-03
   386   -1.307916665597e-12
   387    7.790191220800e-03
   388    2.055296436461e-02
   389   -6.875214184706e-02
   390    1.504903776288e-01
   391   -3.422504098150e-01
   392    7.283422996662e-13
   393    3.913002875281e-11
   394    4.408931742610e-02
   395    4.254407590110e-12
   396    3.807488265645e-11
   397   -1.115781579575e-01
   398   -1.401058435935e-11
   399   -3.676128498831e-11
   400   -2.633786384003e-01
   401   -9.366473804815e-03
   402   -6.757615300668e-13
   403    4.512141528468e-13
   404    5.851751375130e-12
   405   -4.900259364079e-15
   406    6.180539639167e-02
   407    2.295125894891e-13
   408    1.227507783190e-11
   409   -1.016913983576e-11
   410   -2.003256261046e-13
   411   -3.209227351143e-03
   412   -3.187272494543e-13
   413    3.327654449735e-13
   414    3.409814748265e-12
   415    2.713933115706e-14
   416    2.045835289372e-14
   417   -8.319542700152e-14
[5D7F]

======= END OF MOLDEN-FORMATTED INPUT FILE =======


        *************************************************************
        *                                                           *
        *  Thank you very much for using Q-Chem.  Have a nice day.  *
        *                                                           *
        *************************************************************


