                  Welcome to Q-Chem
     A Quantum Leap Into The Future Of Chemistry


 Q-Chem 6.0 (devel), Q-Chem, Inc., Pleasanton, CA (2022)

 E. Epifanovsky,  A. T. B. Gilbert,  Xintian Feng,  Joonho Lee,  Yuezhi Mao,  
 N. Mardirossian,  P. Pokhilko,  A. White,  M. Wormit,  M. P. Coons,  
 A. L. Dempwolff,  Zhengting Gan,  D. Hait,  P. R. Horn,  L. D. Jacobson,  
 I. Kaliman,  J. Kussmann,  A. W. Lange,  Ka Un Lao,  D. S. Levine,  Jie Liu,  
 S. C. McKenzie,  A. F. Morrison,  K. Nanda,  F. Plasser,  D. R. Rehn,  
 M. L. Vidal,  Zhi-Qiang You,  Ying Zhu,  B. Alam,  B. Albrecht,  
 A. Aldossary,  E. Alguire,  J. H. Andersen,  V. Athavale,  D. Barton,  
 K. Begam,  A. Behn,  N. Bellonzi,  Y. A. Bernard,  E. J. Berquist,  
 H. Burton,  A. Carreras,  K. Carter-Fenk,  Romit Chakraborty,  
 Chandrima Chakravarty,  Junhan Chen,  A. D. Chien,  K. D. Closser,  
 V. Cofer-Shabica,  L. Cunha,  S. Dasgupta,  Jia Deng,  M. de Wergifosse,  
 M. Diedenhofen,  Hainam Do,  S. Ehlert,  Po-Tung Fang,  S. Fatehi,  
 Qingguo Feng,  T. Friedhoff,  B. Ganoe,  J. Gayvert,  Qinghui Ge,  
 G. Gidofalvi,  M. Goldey,  J. Gomes,  C. Gonzalez-Espinoza,  S. Gulania,  
 A. Gunina,  J. A. Gyamfi,  M. W. D. Hanson-Heine,  P. H. P. Harbach,  
 A. W. Hauser,  M. F. Herbst,  M. Hernandez Vera,  M. Hodecker,  
 Z. C. Holden,  S. Houck,  Xunkun Huang,  Kerwin Hui,  B. C. Huynh,  
 K. Ikeda,  M. Ivanov,  Hyunjun Ji,  Zuxin Jin,  Hanjie Jiang,  B. Kaduk,  
 S. Kaehler,  R. Kang,  K. Khistyaev,  Jaehoon Kim,  Yongbin Kim,  
 P. Klunzinger,  Z. Koczor-Benda,  Joong Hoon Koh,  D. Kosenkov,  
 Saikiran Kotaru,  L. Koulias,  T. Kowalczyk,  C. M. Krauter,  K. Kue,  
 A. Kunitsa,  T. Kus,  A. Landau,  K. V. Lawler,  D. Lefrancois,  S. Lehtola,  
 Rain Li,  Shaozhi Li,  Yi-Pei Li,  Jiashu Liang,  M. Liebenthal,  
 Hung-Hsuan Lin,  You-Sheng Lin,  Fenglai Liu,  Kuan-Yu Liu,  
 M. Loipersberger,  A. Luenser,  C. Malbon,  A. Manjanath,  P. Manohar,  
 E. Mansoor,  S. F. Manzer,  Shan-Ping Mao,  A. V. Marenich,  T. Markovich,  
 S. Mason,  F. Matz,  S. A. Maurer,  P. F. McLaughlin,  M. F. S. J. Menger,  
 J.-M. Mewes,  S. A. Mewes,  P. Morgante,  Mohammad Mostafanejad,  
 J. W. Mullinax,  K. J. Oosterbaan,  G. Paran,  V. Parravicini,  
 Alexander C. Paul,  Suranjan K. Paul,  F. Pavosevic,  Zheng Pei,  S. Prager,  
 E. I. Proynov,  E. Ramos,  B. Rana,  A. E. Rask,  A. Rettig,  R. M. Richard,  
 F. Rob,  E. Rossomme,  T. Scheele,  M. Scheurer,  M. Schneider,  
 P. E. Schneider,  N. Sergueev,  S. M. Sharada,  Hengyuan Shen,  
 W. Skomorowski,  D. W. Small,  C. J. Stein,  Yingli Su,  Yu-Chuan Su,  
 E. J. Sundstrom,  Zhen Tao,  J. Thirman,  Hung-Yi Tsai,  T. Tsuchimochi,  
 N. M. Tubman,  C. Utku,  S. P. Veccham,  O. Vydrov,  J. Wenzel,  
 Jonathan Wong,  J. Witte,  A. Yamada,  Chou-Hsun Yang,  Kun Yao,  
 S. Yeganeh,  S. R. Yost,  A. Zech,  F. Zeller,  Igor Ying Zhang,  
 Xing Zhang,  Yu Zhang,  D. Zuev,  A. Aspuru-Guzik,  A. T. Bell,  
 N. A. Besley,  K. B. Bravaya,  B. R. Brooks,  D. Casanova,  Jeng-Da Chai,  
 Hsing-Ta Chen,  S. Coriani,  C. J. Cramer,  A. E. DePrince, III,  
 R. A. DiStasio Jr.,  A. Dreuw,  B. D. Dunietz,  T. R. Furlani,  
 W. A. Goddard III,  S. Grimme,  S. Hammes-Schiffer,  T. Head-Gordon,  
 W. J. Hehre,  Chao-Ping Hsu,  T.-C. Jagau,  Yousung Jung,  A. Klamt,  
 Jing Kong,  D. S. Lambrecht,  Xiangyuan Li,  WanZhen Liang,  N. J. Mayhall,  
 C. W. McCurdy,  J. B. Neaton,  T. Neudecker,  C. Ochsenfeld,  
 J. A. Parkhill,  R. Peverati,  V. A. Rassolov,  Haisheng Ren,  Yihan Shao,  
 L. V. Slipchenko,  R. P. Steele,  J. E. Subotnik,  A. J. W. Thom,  
 A. Tkatchenko,  D. G. Truhlar,  T. Van Voorhis,  Fan Wang,  
 T. A. Wesolowski,  K. B. Whaley,  H. L. Woodcock III,  P. M. Zimmerman,  
 S. Faraji,  P. M. W. Gill,  M. Head-Gordon,  J. M. Herbert,  A. I. Krylov

 Contributors to earlier versions of Q-Chem not listed above: 
 R. D. Adamson,  B. Austin,  R. Baer,  J. Baker,  G. J. O. Beran,  
 K. Brandhorst,  S. T. Brown,  E. F. C. Byrd,  Arup K. Chakraborty,  
 G. K. L. Chan,  Chun-Min Chang,  Yunqing Chen,  C.-L. Cheng,  
 Siu Hung Chien,  D. M. Chipman,  D. L. Crittenden,  H. Dachsel,  
 R. J. Doerksen,  A. D. Dutoi,  R. G. Edgar,  J. Fosso-Tande,  
 L. Fusti-Molnar,  D. Ghosh,  A. Ghysels,  A. Golubeva-Zadorozhnaya,  
 J. Gonthier,  M. S. Gordon,  S. R. Gwaltney,  G. Hawkins,  J. E. Herr,  
 A. Heyden,  S. Hirata,  E. G. Hohenstein,  G. Kedziora,  F. J. Keil,  
 C. Kelley,  Jihan Kim,  R. A. King,  R. Z. Khaliullin,  P. P. Korambath,  
 W. Kurlancheek,  A. Laurent,  A. M. Lee,  M. S. Lee,  S. V. Levchenko,  
 Ching Yeh Lin,  D. Liotard,  E. Livshits,  R. C. Lochan,  I. Lotan,  
 L. A. Martinez-Martinez,  P. E. Maslen,  N. Nair,  D. P. O'Neill,  
 D. Neuhauser,  E. Neuscamman,  C. M. Oana,  R. Olivares-Amaya,  R. Olson,  
 T. M. Perrine,  B. Peters,  P. A. Pieniazek,  A. Prociuk,  Y. M. Rhee,  
 J. Ritchie,  M. A. Rohrdanz,  E. Rosta,  N. J. Russ,  H. F. Schaefer III,  
 M. W. Schmidt,  N. E. Schultz,  S. Sharma,  N. Shenvi,  C. D. Sherrill,  
 A. C. Simmonett,  A. Sodt,  T. Stein,  D. Stuck,  K. S. Thanthiriwatte,  
 V. Vanovschi,  L. Vogt,  Tao Wang,  A. Warshel,  M. A. Watson,  
 C. F. Williams,  Q. Wu,  X. Xu,  Jun Yang,  W. Zhang,  Yan Zhao

   Please cite Q-Chem as follows:
  "Software for the frontiers of quantum chemistry:
   An overview of developments in the Q-Chem 5 package"
   J. Chem. Phys. 155, 084801 (2021)
   https://doi.org/10.1063/5.0055522 (open access)

 Q-Chem 6.0.1 for Intel X86 EM64T Linux

 Parts of Q-Chem use Armadillo 9.900.5 (Nocturnal Misbehaviour).
 http://arma.sourceforge.net/

 Q-Chem begins on Mon Sep  4 19:02:33 2023  

 Host: atlas-095
0

     Scratch files written to ./qchem25715//
 Processing $rem in /scratch/abel/SOFTWARE/qchem/config/preferences:
 Processing $rem in /dipc/acebg/.qchemrc:

 Checking the input file for inconsistencies... 	...done.

--------------------------------------------------------------
User input:
--------------------------------------------------------------
$comment
 RAS-SF CALCULATION
$end

$molecule
 READ 2b1.molecule
$end

$rem
!**CALCULATION TYPE***     
JOBTYPE            sp    
EXCHANGE           HF
CORRELATION        RASCI    !RASCI=Casanova; RASCI2=Zimmerman
BASIS              6-311G(d,p)

!***SCF REFERENCE***
!SKIP_SCFMAN        FALSE
UNRESTRICTED       FALSE
!SCF_GUESS          core
!SCF_GUESS_MIX      FALSE
!SCF_GUESS_ALWAYS   FALSE
MAX_SCF_CYCLES     500
!SCF_CONVERGENCE    8
SCF_ALGORITHM      DIIS_GDM !DIIS,DM,DIIS_DM,GDM,DIIS_GDM,GD

!SYMMETRY           TRUE   !use of symmetry for calculating integrals
!SYM_IGNORE         FALSE  !turn off using symmetry
!SYM_TOL            5      !tolerance for determining point group
!USE_ABELIAN_SUBGROUP      !define to use abelian group

!THRESH             14
SCF_FINAL_PRINT     1 !0,1,2,3

!****RAS-SF****
RAS_ROOTS          20       !number of RAS-CI roots to be computed
SET_ITER           60     !number of iterations in RASCI
RAS_ELEC           9       !number of electrons in RAS2
!RAS_ELEC_ALPHA     6       !spin-α electrons in RAS2 
!RAS_ELEC_BETA      4       !spin-β electrons in RAS2

RAS_ACT            9       !number of orbitals in RAS2 
RAS_ACT_ORB  [68,69,70,71,72,73,74,75,76] !user-selected RAS2 orbitals
RAS_OCC            67       !number of orbitals in RAS1
!N_FROZEN_CORE      47     !Number of frozen core orbitals
!N_FROZEN_VIRTUAL   371      !Number of frozen virtual orbitals

RAS_DO_HOLE        TRUE   !presence of hole excitations in RAS-CI wave function
RAS_DO_PART        TRUE   !presence of particle excitations
!RAS_AMPL_PRINT     10     !threshold (×10 2 ) for the CI amplitudes

!RAS_GUESS_CS       0      !number of closed shell guess conﬁgurations
!RAS_SPIN_MULT      0      !spin multiplicity. Only for Ms = 0 
!RAS_SRDFT          FALSE  !short-range density functional RAS-CI
!RAS_NFRAG          0     !fragments of excitation analysis in RASCI

RAS_PRINT          2      !level of information
RAS_NATORB         TRUE   !computation of the natural orbital occupancies
!RAS_NATORB_STATE  0      !Saves NO of i RAS computed state in .fchk ﬁle
!RAS_FOD            TRUE

!****RAS-SOC****
CALC_SOC           TRUE   !calculate SOC for EOM-CC, RAS-CI, ADC, TDDFT/TDA and TDDFT
!RAS_SOC_2E        TRUE   !two-electron mean-ﬁeld contribution, default=true
RAS_SOC_SYM_DENS   TRUE   !averaging of α and β densities

!****MEMORY****
MEM_TOTAL          12000 !Default 2000 MB
MEM_STATIC         3000  !Default 64 MB

!**Molecular Properties and Analysis **                                                                                          
POP_MULLIKEN       TRUE   !Run Mulliken population analysis
LOWDIN_POPULATION  TRUE   !Run Löwdin population analysis
GUI                2       !Checkpoints generation
STATE_ANALYSIS     TRUE

!**Wave function analysis of RAS-CI states: MOLDEN**
!PLOTS = 0     ! Note: This can be omitted, default is 0
!NTO_PAIRS = 2 ! Note: This can be omitted, default is 2
!GUI 0
!MOLDEN_FORMAT      TRUE
!PRINT_ORBITALS     15

!**Wave function analysis of RAS-CI state: CUBE**
!NTO_PAIRS = 2 ! Note: This can be omitted, default is 2
!PLOTS = 1
!GUI 0

!**SR-DFT**
!RAS_SRDFT           TRUE !Perform short-range density functional RAS-CI
!RAS_SRDFT_EXC       0 !EX functional. 0=HF. 
!RAS_SRDFT_ONLY_COR  TRUE !No use of EXC functional
!RAS_SRDFT_COR       srPBE !short-range correlation functional
!ras_srdft_0         TRUE !true: no iteration (one-shot); false: iteration
!RAS_OMEGA           400 !Coulomb range-separation parameter. def=400
!RAS_SRDFT_DAMP     0.5 !dumping factor. def=0.5
$end

!$plots
!   grid_points 100 100 100
!   grid_range  (-10,10) (-10,10) (-10,10)
!$end
--------------------------------------------------------------
 ----------------------------------------------------------------
             Standard Nuclear Orientation (Angstroms)
    I     Atom           X                Y                Z
 ----------------------------------------------------------------
    1      C       0.0000318954    -1.4763309088    -0.0000000000
    2      C      -1.2407590112    -2.1571257089    -0.0000000000
    3      C      -1.2148594545    -3.5675249830    -0.0000000000
    4      H      -2.1446236993    -4.1292910599    -0.0000000000
    5      C       0.0000997827    -4.2534109080     0.0000000000
    6      H       0.0001201654    -5.3367109078     0.0000000000
    7      C       1.2150205451    -3.5674768335     0.0000000000
    8      H       2.1448062999    -4.1292007565     0.0000000000
    9      C       1.2408609884    -2.1570761082     0.0000000000
   10      C      -2.4587599244    -1.4114798692    -0.0000000000
   11      H      -3.3967545010    -1.9614161769    -0.0000000000
   12      C      -2.5076195002    -0.0004012390    -0.0000000000
   13      C      -1.2897602402     0.7391029180    -0.0000000000
   14      C      -1.2594002844     2.1668837700    -0.0000000000
   15      C      -2.4988089738     2.8332390092    -0.0000000000
   16      H      -2.5301594158     3.9186481304    -0.0000000000
   17      C      -3.7062087347     2.1115951456    -0.0000000000
   18      H      -4.6405541397     2.6608489408    -0.0000000000
   19      C      -3.7349800334     0.7316943382    -0.0000000000
   20      H      -4.6830652455     0.2044177475    -0.0000000000
   21      C      -0.0000591689     2.8402290904     0.0000000000
   22      H      -0.0000896403     3.9266890899    -0.0000000000
   23      C       1.2592997149     2.1669444107     0.0000000000
   24      C       2.4986810248     2.8333591712     0.0000000000
   25      H       2.5299805831     3.9187600495     0.0000000000
   26      C       3.7061112635     2.1117630351     0.0000000000
   27      H       4.6404358580     2.6610592398     0.0000000000
   28      C       3.7349499648     0.7318638434     0.0000000000
   29      H       4.6830547525     0.2046204342     0.0000000000
   30      C       1.2897197593     0.7391552633     0.0000000000
   31      C       2.5076204986    -0.0002905792     0.0000000000
   32      C       2.4588200745    -1.4113719484     0.0000000000
   33      H       3.3968454974    -1.9612656403     0.0000000000
   34      B       0.0000004738     0.0005590909     0.0000000000
 ----------------------------------------------------------------
 Molecular Point Group                 Cs    NOp =  2
 Largest Abelian Subgroup              Cs    NOp =  2
 Nuclear Repulsion Energy =        1548.36842549 hartrees
 There are       72 alpha and       71 beta electrons
 Requested basis set is 6-311G(d,p)
 There are 158 shells and 468 basis functions

 Total QAlloc Memory Limit  12000 MB
 Mega-Array Size      2933 MB
 MEM_STATIC part      3000 MB

 A cutoff of  1.0D-09 yielded   7095 shell pairs
 There are     68757 function pairs (     75079 Cartesian)
 Smallest overlap matrix eigenvalue = 1.17E-04

 Scale SEOQF with 1.000000e-01/1.000000e-02/1.000000e+00

 Standard Electronic Orientation quadrupole field applied
 Nucleus-field energy     =     0.0000000326 hartrees
 Guess from superposition of atomic densities
 Warning:  Energy on first SCF cycle will be non-variational
 SAD guess density has 143.000000 electrons

 -----------------------------------------------------------------------
  General SCF calculation program by
  Eric Jon Sundstrom, Paul Horn, Yuezhi Mao, Dmitri Zuev, Alec White,
  David Stuck, Shaama M.S., Shane Yost, Joonho Lee, David Small,
  Daniel Levine, Susi Lehtola, Hugh Burton, Evgeny Epifanovsky,
  Bang C. Huynh
 -----------------------------------------------------------------------
 Hartree-Fock
 Orthonormalizing orbitals
 A restricted open-shell SCF calculation will be
 performed using DIIS, GDM
 SCF converges when RMS gradient is below 1.0e-05
 ---------------------------------------
  Cycle       Energy         DIIS error
 ---------------------------------------
    1    -821.5725292475      3.43e-02  
    2    -822.1887768890      2.91e-02  
    3    -824.6310452500      1.35e-02  
    4    -826.7020535588      5.99e-03  Done DIIS. Switching to GDM
 ---------------------------------------
  Cycle       Energy        RMS Gradient
 ---------------------------------------
    1    -826.7020535588      2.80e-01   Descent step
    2    -826.9553044476      7.96e-02   Descent step
    3    -827.0088446058      6.03e-02   Normal BFGS step
    4    -827.0264045029      1.73e-02   Normal BFGS step
    5    -827.0296667608      1.15e-02   Normal BFGS step
    6    -827.0305999576      9.42e-03   Normal BFGS step
    7    -827.0308776736      2.41e-03   Normal BFGS step
    8    -827.0309338482      1.67e-03   Normal BFGS step
    9    -827.0309479407      9.12e-04   Normal BFGS step
   10    -827.0309544011      5.35e-04   Normal BFGS step
   11    -827.0309555133      1.94e-04   Normal BFGS step
   12    -827.0309556912      1.02e-04   Normal BFGS step
   13    -827.0309557292      2.50e-05   Normal BFGS step
   14    -827.0309562380      7.15e-06  Convergence criterion met
The disked orbital energies are calculated using alpha and beta Focks
 ---------------------------------------
 Alpha HF Exchange    Energy = -58.84926333934278
 Beta HF Exchange     Energy = -58.41368519942161
 Nuclear Attraction   Energy =   0.00000000000000
 One-Electron (alpha) Energy = -2110.15141463286091
 One-Electron (beta)  Energy = -2086.90477617144461
 Total Coulomb        Energy = 1938.91975758564786
 Final Alpha MO Eigenvalues
            1           2           3           4           5           6
    1 -11.2912401 -11.2754632 -11.2754369 -11.2710482 -11.2710210 -11.2480488
            7           8           9          10          11          12
    1 -11.2480222 -11.2446883 -11.2446752 -11.2360390 -11.2360301 -11.2298410
           13          14          15          16          17          18
    1 -11.2298247 -11.2248291 -11.2248241 -11.2222848 -11.2230795 -11.2219293
           19          20          21          22          23          24
    1 -11.1895835 -11.1895739 -11.1854418  -7.4770090  -1.1796672  -1.1596322
           25          26          27          28          29          30
    1  -1.1480525  -1.0941004  -1.0824510  -1.0575396  -1.0258497  -1.0024989
           31          32          33          34          35          36
    1  -0.9943916  -0.9378262  -0.9242669  -0.9103836  -0.8406242  -0.8326849
           37          38          39          40          41          42
    1  -0.8165280  -0.8171309  -0.7513897  -0.7450156  -0.7090948  -0.7049702
           43          44          45          46          47          48
    1  -0.6968152  -0.6566778  -0.6508612  -0.6289802  -0.6242384  -0.6215298
           49          50          51          52          53          54
    1  -0.6163398  -0.5924821  -0.5764566  -0.5730215  -0.5523807  -0.5427834
           55          56          57          58          59          60
    1  -0.5442774  -0.5349888  -0.5160792  -0.5075194  -0.5063538  -0.5096166
           61          62          63          64          65          66
    1  -0.4931514  -0.5059341  -0.4237819  -0.4176448  -0.4128039  -0.4252998
           67          68          69          70          71          72
    1  -0.3987969  -0.3246126  -0.3250482  -0.3104574  -0.2536232  -0.1945655
           73          74          75          76          77          78
    1  -0.0361972   0.1154251   0.1262129   0.1238888   0.1317070   0.1432755
           79          80          81          82          83          84
    1   0.1526062   0.1640677   0.1724411   0.1764810   0.1905304   0.1958633
           85          86          87          88          89          90
    1   0.2141727   0.2204041   0.2225546   0.2267856   0.2507881   0.2545694
           91          92          93          94          95          96
    1   0.2635042   0.2682658   0.2848345   0.3431641   0.3447335   0.3584196
           97          98          99         100         101         102
    1   0.3617376   0.3640017   0.3776195   0.3912733   0.4000212   0.4093605
          103         104         105         106         107         108
    1   0.4181385   0.4296209   0.4393645   0.4532895   0.4536991   0.4710691
          109         110         111         112         113         114
    1   0.4765346   0.4788669   0.4837625   0.4873315   0.5017667   0.5111059
          115         116         117         118         119         120
    1   0.5152392   0.5336515   0.5489409   0.5618807   0.5647649   0.5724051
          121         122         123         124         125         126
    1   0.5860341   0.5961672   0.5972532   0.5976515   0.6003637   0.6056751
          127         128         129         130         131         132
    1   0.6081099   0.6057722   0.6103614   0.6170925   0.6197258   0.6283578
          133         134         135         136         137         138
    1   0.6423608   0.6529420   0.6538757   0.6594855   0.6631051   0.6692518
          139         140         141         142         143         144
    1   0.6691782   0.6721347   0.6761688   0.6805790   0.6881895   0.6925537
          145         146         147         148         149         150
    1   0.7136569   0.7173953   0.7285461   0.7282150   0.7308913   0.7363367
          151         152         153         154         155         156
    1   0.7388946   0.7664325   0.7721079   0.7729522   0.7819811   0.7906693
          157         158         159         160         161         162
    1   0.8001056   0.8093350   0.8111746   0.8281114   0.8370454   0.8383093
          163         164         165         166         167         168
    1   0.8478125   0.8486237   0.8468336   0.8506035   0.8646352   0.8669155
          169         170         171         172         173         174
    1   0.8733592   0.8828533   0.8940932   0.9241394   0.9361246   0.9388642
          175         176         177         178         179         180
    1   0.9405391   0.9410473   0.9490225   0.9617525   0.9743288   0.9790275
          181         182         183         184         185         186
    1   1.0014166   1.0111087   1.0138628   1.0144341   1.0168853   1.0372129
          187         188         189         190         191         192
    1   1.0375071   1.0506334   1.0524251   1.0814617   1.0813269   1.0874382
          193         194         195         196         197         198
    1   1.0871269   1.0921658   1.0980338   1.1100773   1.1155110   1.1184595
          199         200         201         202         203         204
    1   1.1440875   1.1500904   1.1615438   1.1695509   1.1753403   1.2100133
          205         206         207         208         209         210
    1   1.2177220   1.2204016   1.2234197   1.2302185   1.2337257   1.2365111
          211         212         213         214         215         216
    1   1.2394277   1.2443847   1.2494587   1.2543851   1.2553857   1.2968880
          217         218         219         220         221         222
    1   1.2970038   1.3141109   1.3145983   1.3218392   1.3233187   1.3285698
          223         224         225         226         227         228
    1   1.3558433   1.3588709   1.3638929   1.3691202   1.3729436   1.4019425
          229         230         231         232         233         234
    1   1.4045078   1.4118169   1.4248309   1.4320431   1.4394863   1.4747018
          235         236         237         238         239         240
    1   1.4825012   1.5206344   1.5377198   1.5499557   1.5718426   1.5870731
          241         242         243         244         245         246
    1   1.6236960   1.6422477   1.6436325   1.6723790   1.6785984   1.6874464
          247         248         249         250         251         252
    1   1.6872300   1.6896703   1.6953666   1.6999914   1.7063658   1.7170005
          253         254         255         256         257         258
    1   1.7234728   1.7372259   1.7633943   1.7977381   1.7983335   1.8077709
          259         260         261         262         263         264
    1   1.8095072   1.8092156   1.8232016   1.8339108   1.8335601   1.8406729
          265         266         267         268         269         270
    1   1.8612583   1.8637951   1.8675442   1.9039464   1.9188363   1.9235146
          271         272         273         274         275         276
    1   1.9322530   1.9368766   1.9402279   1.9490249   1.9637596   1.9925548
          277         278         279         280         281         282
    1   1.9933163   2.0034805   2.0071102   2.0215751   2.0255553   2.0328118
          283         284         285         286         287         288
    1   2.0637303   2.0664503   2.0754730   2.0791358   2.0914083   2.1024285
          289         290         291         292         293         294
    1   2.1048196   2.1044779   2.1130828   2.1190084   2.1226979   2.1249523
          295         296         297         298         299         300
    1   2.1595333   2.1618860   2.1918441   2.1971228   2.1994563   2.1997020
          301         302         303         304         305         306
    1   2.2054294   2.2103039   2.2143167   2.2195184   2.2254857   2.2366406
          307         308         309         310         311         312
    1   2.2480035   2.2580109   2.2658684   2.2793963   2.3068892   2.3137228
          313         314         315         316         317         318
    1   2.3340841   2.3477626   2.3555202   2.3597850   2.3767094   2.3816338
          319         320         321         322         323         324
    1   2.3919449   2.4399698   2.4621684   2.4632253   2.4728704   2.4769247
          325         326         327         328         329         330
    1   2.5109020   2.5130042   2.5211196   2.5381954   2.5468111   2.5466984
          331         332         333         334         335         336
    1   2.5922843   2.5975819   2.6253901   2.6258661   2.6318425   2.6377824
          337         338         339         340         341         342
    1   2.6771433   2.6773045   2.6911738   2.7157851   2.7321592   2.7712625
          343         344         345         346         347         348
    1   2.7916291   2.7992422   2.8020762   2.8472990   2.8801370   2.8867775
          349         350         351         352         353         354
    1   2.8929800   2.8985229   2.8999697   2.9059113   2.9135904   2.9257631
          355         356         357         358         359         360
    1   2.9327896   2.9417008   2.9491517   2.9544760   2.9543769   2.9598126
          361         362         363         364         365         366
    1   2.9668822   2.9725085   2.9792364   2.9835752   2.9949132   3.0041996
          367         368         369         370         371         372
    1   3.0083760   3.0270934   3.0411055   3.0676722   3.0791779   3.0913284
          373         374         375         376         377         378
    1   3.1144990   3.1145203   3.1162628   3.1158372   3.1411569   3.1476787
          379         380         381         382         383         384
    1   3.1558841   3.1621252   3.1689607   3.2055873   3.2171957   3.2229072
          385         386         387         388         389         390
    1   3.2259743   3.2291690   3.2371901   3.2468545   3.2496285   3.2601393
          391         392         393         394         395         396
    1   3.3288586   3.3408294   3.3552822   3.4125082   3.4147725   3.4762523
          397         398         399         400         401         402
    1   3.4946282   3.4996310   3.5252055   3.6152516   3.6190450   3.6365893
          403         404         405         406         407         408
    1   3.6376693   3.6664785   3.6980811   3.7081617   3.7220718   3.7232233
          409         410         411         412         413         414
    1   3.7716465   3.7763151   3.7889836   3.8144269   3.8169953   3.8210445
          415         416         417         418         419         420
    1   3.8255707   3.8566726   3.8587897   3.8948825   3.9020654   3.9238589
          421         422         423         424         425         426
    1   3.9377041   3.9592966   4.0115013   4.0347892   4.0568049   4.0930946
          427         428         429         430         431         432
    1   4.1391992   4.1531561   4.3283358   4.4184313   4.4267822   4.4589198
          433         434         435         436         437         438
    1   4.4867443   4.4944582   4.5254890   4.6256001   4.6414765   4.6529028
          439         440         441         442         443         444
    1   4.7507748   4.7520467   5.0458478   5.0682606   5.2253470   5.2584590
          445         446         447         448         449         450
    1   5.2850780   5.3137922  15.8993836  24.5918083  24.8082665  24.8303005
          451         452         453         454         455         456
    1  24.9898784  25.0167628  25.0381375  25.0773789  25.1202086  25.1221749
          457         458         459         460         461         462
    1  25.1554901  25.1727137  25.1838157  25.2090364  25.2124239  25.2316811
          463         464         465         466         467         468
    1  25.2449799  25.2487758  25.2748099  25.3077551  25.3159447  25.3437435
 Final Beta MO Eigenvalues
            1           2           3           4           5           6
    1 -11.2912401 -11.2750159 -11.2749889 -11.2706291 -11.2706010 -11.2480458
            7           8           9          10          11          12
    1 -11.2480192 -11.2446865 -11.2446735 -11.2360216 -11.2360127 -11.2270480
           13          14          15          16          17          18
    1 -11.2270280 -11.2246868 -11.2246825 -11.2212684 -11.2184943 -11.2183844
           19          20          21          22          23          24
    1 -11.1889421 -11.1889339 -11.1854418  -7.4770082  -1.1774809  -1.1573447
           25          26          27          28          29          30
    1  -1.1401461  -1.0918065  -1.0754112  -1.0511582  -1.0227029  -0.9957330
           31          32          33          34          35          36
    1  -0.9900728  -0.9347945  -0.9193265  -0.8959366  -0.8388459  -0.8301012
           37          38          39          40          41          42
    1  -0.8139206  -0.8112448  -0.7482924  -0.7409822  -0.7071216  -0.7035554
           43          44          45          46          47          48
    1  -0.6945126  -0.6548775  -0.6487064  -0.6267621  -0.6211678  -0.6189083
           49          50          51          52          53          54
    1  -0.6147025  -0.5913946  -0.5742783  -0.5714791  -0.5482816  -0.5413025
           55          56          57          58          59          60
    1  -0.5366277  -0.5334862  -0.5146401  -0.5054863  -0.5044520  -0.5015326
           61          62          63          64          65          66
    1  -0.4898521  -0.4830212  -0.4136167  -0.4165774  -0.4111105  -0.3991715
           67          68          69          70          71          72
    1  -0.3757622  -0.3188629  -0.2912854  -0.2956321  -0.2260981   0.0262534
           73          74          75          76          77          78
    1  -0.0189886   0.1267324   0.1353330   0.1445601   0.1521919   0.1434216
           79          80          81          82          83          84
    1   0.1527828   0.1645234   0.1731744   0.1769853   0.1909356   0.1965690
           85          86          87          88          89          90
    1   0.2147739   0.2209578   0.2378688   0.2479454   0.2511251   0.2650159
           91          92          93          94          95          96
    1   0.2647717   0.2690054   0.2857970   0.3440554   0.3459918   0.3647488
           97          98          99         100         101         102
    1   0.3623533   0.3778039   0.3785628   0.3919864   0.4006685   0.4134918
          103         104         105         106         107         108
    1   0.4215658   0.4313399   0.4400996   0.4543505   0.4557624   0.4728129
          109         110         111         112         113         114
    1   0.4782454   0.4804737   0.4849232   0.4894644   0.5050556   0.5146942
          115         116         117         118         119         120
    1   0.5168511   0.5358052   0.5526005   0.5643506   0.5676340   0.5800093
          121         122         123         124         125         126
    1   0.5876731   0.6003110   0.6001627   0.6026151   0.6061162   0.6079668
          127         128         129         130         131         132
    1   0.6114320   0.6184544   0.6189905   0.6236540   0.6231789   0.6321448
          133         134         135         136         137         138
    1   0.6501234   0.6569285   0.6575370   0.6676530   0.6638646   0.6714891
          139         140         141         142         143         144
    1   0.6797693   0.6758343   0.6773253   0.6834176   0.6905486   0.6950776
          145         146         147         148         149         150
    1   0.7160055   0.7191739   0.7300757   0.7310755   0.7329042   0.7434021
          151         152         153         154         155         156
    1   0.7513167   0.7699283   0.7732469   0.7738686   0.7844418   0.7919254
          157         158         159         160         161         162
    1   0.8055923   0.8103343   0.8115601   0.8292433   0.8378639   0.8412609
          163         164         165         166         167         168
    1   0.8490881   0.8495579   0.8540760   0.8542104   0.8659081   0.8687108
          169         170         171         172         173         174
    1   0.8752142   0.8857789   0.8977306   0.9252445   0.9377631   0.9400521
          175         176         177         178         179         180
    1   0.9430723   0.9426240   0.9513326   0.9627283   0.9759380   0.9832140
          181         182         183         184         185         186
    1   1.0025422   1.0127009   1.0154676   1.0155477   1.0190631   1.0391810
          187         188         189         190         191         192
    1   1.0387276   1.0519364   1.0534065   1.0821501   1.0825511   1.0889377
          193         194         195         196         197         198
    1   1.0901349   1.0949930   1.0993552   1.1118871   1.1173781   1.1206792
          199         200         201         202         203         204
    1   1.1452539   1.1517356   1.1636716   1.1710383   1.1763792   1.2111106
          205         206         207         208         209         210
    1   1.2185205   1.2231474   1.2246913   1.2328571   1.2358252   1.2397754
          211         212         213         214         215         216
    1   1.2423619   1.2460352   1.2514461   1.2633891   1.2648110   1.2989521
          217         218         219         220         221         222
    1   1.3057613   1.3148708   1.3249643   1.3238090   1.3264120   1.3303052
          223         224         225         226         227         228
    1   1.3592992   1.3605455   1.3707796   1.3763598   1.3746141   1.4037717
          229         230         231         232         233         234
    1   1.4067328   1.4158305   1.4318844   1.4329358   1.4408316   1.4765283
          235         236         237         238         239         240
    1   1.4844453   1.5223230   1.5386046   1.5520813   1.5745948   1.5880317
          241         242         243         244         245         246
    1   1.6265655   1.6429092   1.6446319   1.6742252   1.6794245   1.6880259
          247         248         249         250         251         252
    1   1.6921277   1.6902609   1.6962033   1.7013136   1.7077207   1.7188793
          253         254         255         256         257         258
    1   1.7296718   1.7408980   1.7666664   1.7991713   1.7991719   1.8085957
          259         260         261         262         263         264
    1   1.8111073   1.8119431   1.8271965   1.8371333   1.8394141   1.8464147
          265         266         267         268         269         270
    1   1.8622870   1.8647395   1.8720915   1.9044455   1.9200493   1.9245729
          271         272         273         274         275         276
    1   1.9337371   1.9413468   1.9411134   1.9498691   1.9649411   1.9938131
          277         278         279         280         281         282
    1   1.9939402   2.0040240   2.0078438   2.0240300   2.0285362   2.0370134
          283         284         285         286         287         288
    1   2.0648854   2.0695868   2.0787217   2.0811650   2.0937442   2.1034677
          289         290         291         292         293         294
    1   2.1080955   2.1090890   2.1163413   2.1222676   2.1270226   2.1285145
          295         296         297         298         299         300
    1   2.1608114   2.1635630   2.1920947   2.1975972   2.2007196   2.2002905
          301         302         303         304         305         306
    1   2.2076359   2.2156900   2.2156422   2.2206168   2.2289344   2.2401674
          307         308         309         310         311         312
    1   2.2498915   2.2624232   2.2668783   2.2804547   2.3073427   2.3144312
          313         314         315         316         317         318
    1   2.3350962   2.3488253   2.3608166   2.3605596   2.3812211   2.3827337
          319         320         321         322         323         324
    1   2.3937170   2.4429716   2.4659781   2.4665667   2.4736116   2.4776705
          325         326         327         328         329         330
    1   2.5115869   2.5143864   2.5223311   2.5403176   2.5475373   2.5480457
          331         332         333         334         335         336
    1   2.5960995   2.5986867   2.6285569   2.6293337   2.6325387   2.6389785
          337         338         339         340         341         342
    1   2.6782122   2.6797721   2.6917469   2.7163923   2.7327611   2.7718599
          343         344         345         346         347         348
    1   2.7939787   2.8020778   2.8054704   2.8479387   2.8807327   2.8874167
          349         350         351         352         353         354
    1   2.8934570   2.8996870   2.9011024   2.9065359   2.9150217   2.9264439
          355         356         357         358         359         360
    1   2.9337616   2.9422703   2.9495913   2.9559803   2.9562320   2.9605981
          361         362         363         364         365         366
    1   2.9670189   2.9731237   2.9802850   2.9921261   2.9959492   3.0053912
          367         368         369         370         371         372
    1   3.0097288   3.0304399   3.0477548   3.0679560   3.0800008   3.0922457
          373         374         375         376         377         378
    1   3.1151699   3.1183613   3.1170013   3.1198272   3.1418642   3.1482778
          379         380         381         382         383         384
    1   3.1578901   3.1708813   3.1699881   3.2062221   3.2176389   3.2240422
          385         386         387         388         389         390
    1   3.2263219   3.2301986   3.2447133   3.2491082   3.2538291   3.2663693
          391         392         393         394         395         396
    1   3.3318104   3.3418051   3.3584252   3.4177327   3.4179283   3.4769399
          397         398         399         400         401         402
    1   3.4964456   3.5021493   3.5273674   3.6157832   3.6194409   3.6369750
          403         404         405         406         407         408
    1   3.6380744   3.6679844   3.6987808   3.7091448   3.7229563   3.7243820
          409         410         411         412         413         414
    1   3.7722171   3.7766863   3.7895196   3.8148551   3.8184095   3.8223136
          415         416         417         418         419         420
    1   3.8261400   3.8581391   3.8597223   3.8953001   3.9026187   3.9258240
          421         422         423         424         425         426
    1   3.9382361   3.9604429   4.0124428   4.0355710   4.0590493   4.0939594
          427         428         429         430         431         432
    1   4.1405148   4.1548436   4.3291748   4.4187094   4.4272258   4.4615099
          433         434         435         436         437         438
    1   4.4873079   4.4950740   4.5295101   4.6259719   4.6427441   4.6557805
          439         440         441         442         443         444
    1   4.7518480   4.7530354   5.0465536   5.0701038   5.2263220   5.2589731
          445         446         447         448         449         450
    1   5.2876836   5.3148385  15.8994093  24.5922467  24.8084919  24.8311658
          451         452         453         454         455         456
    1  24.9900570  25.0174567  25.0387593  25.0777238  25.1203532  25.1228901
          457         458         459         460         461         462
    1  25.1557997  25.1733722  25.1840340  25.2106102  25.2128476  25.2325064
          463         464         465         466         467         468
    1  25.2453881  25.2496469  25.2751314  25.3079284  25.3160778  25.3449607
 SCF time:   CPU 725.05s  wall 730.00s 
<S^2> =          0.750000000
 SCF   energy in the final basis set =     -827.0309562380
 Total energy in the final basis set =     -827.0309562380
  
     ##========================================##
     ||                                        ||
     ||              R A S M A N 2             ||
     ||________________________________________||
     ||                                        ||
     ||  Author:                               ||
     ||                                        ||
     ||        David Casanova (2010)           ||
     ||                                        ||
     ##========================================##
  
Setting single-point xc-functionals (if necessary)

  ***************************************************
  *  RAS-CI Dimensions:                             *
  *                                                 *
  *  Active Elec.:   9 ( 5, 4)   Active Orb.:   9   *
  *  Doubly Occ. :  67           Doubly Vir.: 392   *
  *  Frozen Occ. :   0           Frozen Vir.:   0   *
  *                                                 *
  *  Total CI configurations:  12161016             * 
  *    Active configurations:     15876             * 
  *      Hole configurations:   1772820             * 
  *  Particle configurations:  10372320             * 
  *                                                 *
  *   Requested states:       20                    *
  *  Spin multiplicity: Any multiplicity            *
  *                                                 *
  ***************************************************
-----------------------------------------
    Memory requirements of RASCI

 Each CI-vector requires     92.78 MiB 
 Max. subspace vectors           1200      

 Reduced Lists                0.01 MiB 
 Excitation Lists             0.01 MiB 
 Excitation Lists Sign        0.01 MiB 
 CI-space (Max)          113204.05 MiB 
 Integrals                  218.09 MiB 
 Memory required (Max)   113204.07 MiB 
 Memory available          2861.02 MiB 

 Q-Chem warning in module rasman2/ras_mem_check.C, line 162:

 Static memory may be insufficient to store the subspace vectors


    Disk requirements of RASCI

 Fock matrix                  3.34 MiB 
 2-electron integrals       428.61 MiB 
 CI-space                222674.85 MiB 
 Disk required           223106.80 MiB 
-----------------------------------------
  
RAS1 HF-like energy:           -818.6108766335
 Computing integrals
 Computing J and K matrices
 Computing addressing
 Making amplitude guesses
 
Direct CI diagonalization
 ---------------------------------------------------
 Iter    Rts Conv    Rts Left    Ttl Dev     Max Dev
 ---------------------------------------------------
   1         0          20      0.001479    0.000084
   2         0          20      0.000827    0.000048
   3         0          20      0.000574    0.000040
   4         0          20      0.000457    0.000034
   5         0          20      0.000377    0.000032
   6         0          20      0.000420    0.000069
   7         0          20      0.000385    0.000053
   8         0          20      0.000333    0.000048
   9         0          20      0.000307    0.000042
  10         0          20      0.000259    0.000033
  11         1          19      0.000216    0.000025
  12         2          18      0.000180    0.000021
  13         4          16      0.000157    0.000020
  14         5          15      0.000139    0.000019
  15         5          15      0.000123    0.000016
  16         6          14      0.000112    0.000016
  17         6          14      0.000112    0.000016
  18         6          14      0.000107    0.000019
  19         8          12      0.000101    0.000025
  20         8          12      0.000091    0.000028
  21         8          12      0.000082    0.000029
  22         8          12      0.000097    0.000026
  23         8          12      0.000093    0.000037
  24         8          12      0.000074    0.000033
  25         9          11      0.000064    0.000031
  26        10          10      0.000053    0.000022
  27        11           9      0.000053    0.000022
  28        12           8      0.000043    0.000018
  29        14           6      0.000031    0.000012
  30        15           5      0.000026    0.000008
  31        16           4      0.000025    0.000008
  32        18           2      0.000019    0.000006
  33        18           2      0.000014    0.000003
  34        18           2      0.000014    0.000003
  35        19           1      0.000014    0.000003
  36        19           1      0.000011    0.000002
  37        19           1      0.000011    0.000001
  38        19           1      0.000011    0.000001
  39        19           1      0.000010    0.000001
  40        20           0      0.000009    0.000001    Roots Converged
 ---------------------------------------------------
   
**************************************************
 RAS-CI total energy for state   1:   -827.136702450244
  Excitation energy (eV) =  0.000000000000
  State symmetry: A"    (Cs       )
  <S^2>      :  0.7500
  Dipole Moment:   -0.0011 X    -0.8859 Y     0.0000 Z
 NATURAL OCCUPATION NUMBERS (higher than 1.0E-05)
            1           2           3           4           5           6
    1   2.0000000   2.0000000   2.0000000   2.0000000   2.0000000   2.0000000
            7           8           9          10          11          12
    1   2.0000000   2.0000000   2.0000000   2.0000000   2.0000000   2.0000000
           13          14          15          16          17          18
    1   2.0000000   2.0000000   2.0000000   2.0000000   2.0000000   2.0000000
           19          20          21          22          23          24
    1   2.0000000   2.0000000   2.0000000   2.0000000   2.0000000   2.0000000
           25          26          27          28          29          30
    1   2.0000000   2.0000000   2.0000000   2.0000000   2.0000000   2.0000000
           31          32          33          34          35          36
    1   2.0000000   2.0000000   2.0000000   2.0000000   2.0000000   2.0000000
           37          38          39          40          41          42
    1   2.0000000   2.0000000   2.0000000   2.0000000   2.0000000   2.0000000
           43          44          45          46          47          48
    1   2.0000000   2.0000000   2.0000000   2.0000000   2.0000000   2.0000000
           49          50          51          52          53          54
    1   2.0000000   2.0000000   2.0000000   2.0000000   2.0000000   2.0000000
           55          56          57          58          59          60
    1   2.0000000   2.0000000   2.0000000   2.0000000   2.0000000   2.0000000
           61          62          63          64          65          66
    1   2.0000000   1.9989216   1.9979471   1.9976417   1.9939134   1.9909669
           67          68          69          70          71          72
    1   1.9870954   1.9496894   1.9474503   1.9241820   1.8392790   0.9915199
           73          74          75          76          77          78
    1   0.2034867   0.0532387   0.0404844   0.0404185   0.0153325   0.0076169
           79          80          81          82          83          84
    1   0.0072092   0.0040929   0.0019290   0.0018318   0.0014112   0.0003952
           85          86          87          88          89          90
    1   0.0003789   0.0003638   0.0003406   0.0002978   0.0002860   0.0002566
           91          92          93          94          95          96
    1   0.0002338   0.0001919   0.0001885   0.0001590   0.0001206   0.0001033
           97          98          99         100         101         102
    1   0.0000979   0.0000932   0.0000907   0.0000717   0.0000706   0.0000653
          103         104         105         106         107         108
    1   0.0000553   0.0000551   0.0000522   0.0000498   0.0000461   0.0000405
          109         110         111         112         113         114
    1   0.0000370   0.0000304   0.0000277   0.0000237   0.0000232   0.0000187
          115
    1   0.0000118
Natural Orbitals stored in FCHK

  Amplitudes : 
  
 | HOLE  | ALPHA     | BETA      | PART  |    AMPLITUDE 
--------------------------------------------------
 |       | 111110000 | 111100000 |       |     8.7628875913757E-01
 |       | 111110000 | 111001000 |       |     1.2053097840845E-01
 |       | 111101000 | 111010000 |       |     1.4472443119728E-01
 |       | 111011000 | 111001000 |       |     1.5019233534192E-01
--------------------------------------------------
*** Contributions RASCI wfn    Active:  91.18
                                 Hole:   3.80
                                 Part:   5.02

      Mulliken population analysis 
 ---------------------------------------------------
   Atom    Charge (a.u.)   Spin (a.u.)  
 ---------------------------------------------------
   1  C   -0.309971        0.019466 
   2  C   -0.032957       -0.026755 
   3  C   -0.070683        0.218356 
   4  H    0.080582        0.001464 
   5  C   -0.069374       -0.019673 
   6  H    0.092416       -0.000183 
   7  C   -0.070693        0.218284 
   8  H    0.080578        0.001464 
   9  C   -0.032977       -0.026741 
  10  C   -0.077520        0.221455 
  11  H    0.072546        0.001473 
  12  C   -0.047458       -0.013126 
  13  C   -0.331848        0.042374 
  14  C   -0.054052        0.002139 
  15  C   -0.028265        0.052542 
  16  H    0.100320        0.000403 
  17  C   -0.106238       -0.006920 
  18  H    0.103651       -0.000053 
  19  C   -0.013167        0.043299 
  20  H    0.105243        0.000281 
  21  C   -0.045894       -0.065660 
  22  H    0.098487       -0.000423 
  23  C   -0.054054        0.002166 
  24  C   -0.028157        0.052228 
  25  H    0.100333        0.000400 
  26  C   -0.106271       -0.006862 
  27  H    0.103657       -0.000052 
  28  C   -0.013081        0.043027 
  29  H    0.105254        0.000279 
  30  C   -0.331919        0.042383 
  31  C   -0.047482       -0.013069 
  32  C   -0.077448        0.220979 
  33  H    0.072548        0.001470 
  34  B    0.833895       -0.006412 
 ---------------------------------------------------
   Sum:   -0.000000        1.000000 
 ---------------------------------------------------
 
  
 NATURAL OCCUPATION NUMBERS (higher than 1.0E-05)
            1           2           3           4           5           6
    1   2.0000000   2.0000000   2.0000000   2.0000000   2.0000000   2.0000000
            7           8           9          10          11          12
    1   2.0000000   2.0000000   2.0000000   2.0000000   2.0000000   2.0000000
           13          14          15          16          17          18
    1   2.0000000   2.0000000   2.0000000   2.0000000   2.0000000   2.0000000
           19          20          21          22          23          24
    1   2.0000000   2.0000000   2.0000000   2.0000000   2.0000000   2.0000000
           25          26          27          28          29          30
    1   2.0000000   2.0000000   2.0000000   2.0000000   2.0000000   2.0000000
           31          32          33          34          35          36
    1   2.0000000   2.0000000   2.0000000   2.0000000   2.0000000   2.0000000
           37          38          39          40          41          42
    1   2.0000000   2.0000000   2.0000000   2.0000000   2.0000000   2.0000000
           43          44          45          46          47          48
    1   2.0000000   2.0000000   2.0000000   2.0000000   2.0000000   2.0000000
           49          50          51          52          53          54
    1   2.0000000   2.0000000   2.0000000   2.0000000   2.0000000   2.0000000
           55          56          57          58          59          60
    1   2.0000000   2.0000000   2.0000000   2.0000000   2.0000000   2.0000000
           61          62          63          64          65          66
    1   2.0000000   1.9989216   1.9979471   1.9976417   1.9939134   1.9909669
           67          68          69          70          71          72
    1   1.9870954   1.9496894   1.9474503   1.9241820   1.8392790   0.9915199
           73          74          75          76          77          78
    1   0.2034867   0.0532387   0.0404844   0.0404185   0.0153325   0.0076169
           79          80          81          82          83          84
    1   0.0072092   0.0040929   0.0019290   0.0018318   0.0014112   0.0003952
           85          86          87          88          89          90
    1   0.0003789   0.0003638   0.0003406   0.0002978   0.0002860   0.0002566
           91          92          93          94          95          96
    1   0.0002338   0.0001919   0.0001885   0.0001590   0.0001206   0.0001033
           97          98          99         100         101         102
    1   0.0000979   0.0000932   0.0000907   0.0000717   0.0000706   0.0000653
          103         104         105         106         107         108
    1   0.0000553   0.0000551   0.0000522   0.0000498   0.0000461   0.0000405
          109         110         111         112         113         114
    1   0.0000370   0.0000304   0.0000277   0.0000237   0.0000232   0.0000187
          115
    1   0.0000118
  
*** Unpaired Electrons
 Yamaguchi Nd:         2.42
 Head-Gordon Nu:       1.75
 Head-Gordon Nu_nl:    1.29
  
**************************************************
 RAS-CI total energy for state   2:   -827.134993912872
  Excitation energy (eV) =  0.046491667291
  State symmetry: A"    (Cs       )
  <S^2>      :  0.7500
  Dipole Moment:    0.0011 X     0.9243 Y     0.0000 Z
  Trans. Moment:   -0.8131 X     0.0012 Y    -0.0000 Z
  Strength   :  0.000753
  Natural transition orbitals ( 1 -> 2 ):
   e-/hole pair  1 alpha:  ampl =  0.774530 ( 60.0%)   [9 : 10]
   e-/hole pair  2 alpha:  ampl =  0.072086 (  0.5%)   [8 : 11]
   e-/hole pair  1 beta :  ampl =  0.163193 (  2.7%)   [9 : 10]
   e-/hole pair  2 beta :  ampl =  0.153697 (  2.4%)   [8 : 11]
   Sum of square amplitudes: 0.68

 NATURAL OCCUPATION NUMBERS (higher than 1.0E-05)
            1           2           3           4           5           6
    1   2.0000000   2.0000000   2.0000000   2.0000000   2.0000000   2.0000000
            7           8           9          10          11          12
    1   2.0000000   2.0000000   2.0000000   2.0000000   2.0000000   2.0000000
           13          14          15          16          17          18
    1   2.0000000   2.0000000   2.0000000   2.0000000   2.0000000   2.0000000
           19          20          21          22          23          24
    1   2.0000000   2.0000000   2.0000000   2.0000000   2.0000000   2.0000000
           25          26          27          28          29          30
    1   2.0000000   2.0000000   2.0000000   2.0000000   2.0000000   2.0000000
           31          32          33          34          35          36
    1   2.0000000   2.0000000   2.0000000   2.0000000   2.0000000   2.0000000
           37          38          39          40          41          42
    1   2.0000000   2.0000000   2.0000000   2.0000000   2.0000000   2.0000000
           43          44          45          46          47          48
    1   2.0000000   2.0000000   2.0000000   2.0000000   2.0000000   2.0000000
           49          50          51          52          53          54
    1   2.0000000   2.0000000   2.0000000   2.0000000   2.0000000   2.0000000
           55          56          57          58          59          60
    1   2.0000000   2.0000000   2.0000000   2.0000000   2.0000000   2.0000000
           61          62          63          64          65          66
    1   2.0000000   1.9986834   1.9981933   1.9969597   1.9930871   1.9898310
           67          68          69          70          71          72
    1   1.9869190   1.9574304   1.9418774   1.9271062   1.8139317   0.9768057
           73          74          75          76          77          78
    1   0.2431879   0.0472514   0.0468894   0.0416540   0.0131354   0.0087907
           79          80          81          82          83          84
    1   0.0058304   0.0036179   0.0018793   0.0015626   0.0010592   0.0004927
           85          86          87          88          89          90
    1   0.0003754   0.0003470   0.0003233   0.0002579   0.0002488   0.0002381
           91          92          93          94          95          96
    1   0.0002280   0.0002196   0.0001915   0.0001611   0.0001136   0.0001074
           97          98          99         100         101         102
    1   0.0000926   0.0000909   0.0000830   0.0000810   0.0000737   0.0000701
          103         104         105         106         107         108
    1   0.0000657   0.0000520   0.0000456   0.0000436   0.0000411   0.0000388
          109         110         111         112         113         114
    1   0.0000340   0.0000312   0.0000304   0.0000260   0.0000213   0.0000164
          115
    1   0.0000119
Natural Orbitals stored in FCHK

  Amplitudes : 
  
 | HOLE  | ALPHA     | BETA      | PART  |    AMPLITUDE 
--------------------------------------------------
 |       | 111110000 | 111010000 |       |     1.5362583352573E-01
 |       | 111101000 | 111100000 |       |     7.9841346194485E-01
 |       | 111101000 | 111001000 |       |    -1.6805546515763E-01
 |       | 111101000 | 101110000 |       |     2.4634316322247E-01
 |       | 111011000 | 111010000 |       |    -1.6479297033282E-01
 |       | 101111000 | 111100000 |       |     1.9794169563308E-01
--------------------------------------------------
*** Contributions RASCI wfn    Active:  90.88
                                 Hole:   4.17
                                 Part:   4.95

      Mulliken population analysis 
 ---------------------------------------------------
   Atom    Charge (a.u.)   Spin (a.u.)  
 ---------------------------------------------------
   1  C   -0.386047        0.026094 
   2  C   -0.034701        0.007549 
   3  C    0.013499       -0.016857 
   4  H    0.081314       -0.000100 
   5  C   -0.090385        0.001590 
   6  H    0.092341        0.000021 
   7  C    0.013523       -0.016848 
   8  H    0.081311       -0.000100 
   9  C   -0.034691        0.007530 
  10  C   -0.031637        0.020500 
  11  H    0.072890        0.000140 
  12  C   -0.046752       -0.005769 
  13  C   -0.289585        0.031592 
  14  C   -0.037177       -0.016268 
  15  C   -0.069387        0.171518 
  16  H    0.100056        0.001150 
  17  C   -0.093670       -0.029216 
  18  H    0.103721       -0.000225 
  19  C   -0.076381        0.153156 
  20  H    0.104644        0.001083 
  21  C   -0.147318        0.329635 
  22  H    0.097757        0.002181 
  23  C   -0.037189       -0.016306 
  24  C   -0.069511        0.171850 
  25  H    0.100067        0.001152 
  26  C   -0.093650       -0.029270 
  27  H    0.103727       -0.000225 
  28  C   -0.076492        0.153442 
  29  H    0.104652        0.001085 
  30  C   -0.289454        0.031582 
  31  C   -0.046752       -0.005826 
  32  C   -0.031734        0.020931 
  33  H    0.072891        0.000143 
  34  B    0.840121        0.003085 
 ---------------------------------------------------
   Sum:   -0.000000        1.000000 
 ---------------------------------------------------
 
  
 NATURAL OCCUPATION NUMBERS (higher than 1.0E-05)
            1           2           3           4           5           6
    1   2.0000000   2.0000000   2.0000000   2.0000000   2.0000000   2.0000000
            7           8           9          10          11          12
    1   2.0000000   2.0000000   2.0000000   2.0000000   2.0000000   2.0000000
           13          14          15          16          17          18
    1   2.0000000   2.0000000   2.0000000   2.0000000   2.0000000   2.0000000
           19          20          21          22          23          24
    1   2.0000000   2.0000000   2.0000000   2.0000000   2.0000000   2.0000000
           25          26          27          28          29          30
    1   2.0000000   2.0000000   2.0000000   2.0000000   2.0000000   2.0000000
           31          32          33          34          35          36
    1   2.0000000   2.0000000   2.0000000   2.0000000   2.0000000   2.0000000
           37          38          39          40          41          42
    1   2.0000000   2.0000000   2.0000000   2.0000000   2.0000000   2.0000000
           43          44          45          46          47          48
    1   2.0000000   2.0000000   2.0000000   2.0000000   2.0000000   2.0000000
           49          50          51          52          53          54
    1   2.0000000   2.0000000   2.0000000   2.0000000   2.0000000   2.0000000
           55          56          57          58          59          60
    1   2.0000000   2.0000000   2.0000000   2.0000000   2.0000000   2.0000000
           61          62          63          64          65          66
    1   2.0000000   1.9986834   1.9981933   1.9969597   1.9930871   1.9898310
           67          68          69          70          71          72
    1   1.9869190   1.9574304   1.9418774   1.9271062   1.8139317   0.9768057
           73          74          75          76          77          78
    1   0.2431879   0.0472514   0.0468894   0.0416540   0.0131354   0.0087907
           79          80          81          82          83          84
    1   0.0058304   0.0036179   0.0018793   0.0015626   0.0010592   0.0004927
           85          86          87          88          89          90
    1   0.0003754   0.0003470   0.0003233   0.0002579   0.0002488   0.0002381
           91          92          93          94          95          96
    1   0.0002280   0.0002196   0.0001915   0.0001611   0.0001136   0.0001074
           97          98          99         100         101         102
    1   0.0000926   0.0000909   0.0000830   0.0000810   0.0000737   0.0000701
          103         104         105         106         107         108
    1   0.0000657   0.0000520   0.0000456   0.0000436   0.0000411   0.0000388
          109         110         111         112         113         114
    1   0.0000340   0.0000312   0.0000304   0.0000260   0.0000213   0.0000164
          115
    1   0.0000119
  
*** Unpaired Electrons
 Yamaguchi Nd:         2.52
 Head-Gordon Nu:       1.79
 Head-Gordon Nu_nl:    1.36
  
**************************************************
 RAS-CI total energy for state   3:   -827.111747843818
  Excitation energy (eV) =  0.679049389793
  State symmetry: A"    (Cs       )
  <S^2>      :  3.7500
  Dipole Moment:   -0.0001 X     0.1308 Y     0.0000 Z
  Trans. Moment:    0.0000 X    -0.0000 Y    -0.0000 Z
  Strength   :  0.000000
  Natural transition orbitals ( 1 -> 3 ):
   e-/hole pair  1 alpha:  ampl =  0.514924 ( 26.5%)   [9 : 10]
   e-/hole pair  2 alpha:  ampl =  0.101244 (  1.0%)   [8 : 11]
   e-/hole pair  1 beta :  ampl =  0.514924 ( 26.5%)   [9 : 10]
   e-/hole pair  2 beta :  ampl =  0.101244 (  1.0%)   [8 : 11]
   Sum of square amplitudes: 0.57

 NATURAL OCCUPATION NUMBERS (higher than 1.0E-05)
            1           2           3           4           5           6
    1   2.0000000   2.0000000   2.0000000   2.0000000   2.0000000   2.0000000
            7           8           9          10          11          12
    1   2.0000000   2.0000000   2.0000000   2.0000000   2.0000000   2.0000000
           13          14          15          16          17          18
    1   2.0000000   2.0000000   2.0000000   2.0000000   2.0000000   2.0000000
           19          20          21          22          23          24
    1   2.0000000   2.0000000   2.0000000   2.0000000   2.0000000   2.0000000
           25          26          27          28          29          30
    1   2.0000000   2.0000000   2.0000000   2.0000000   2.0000000   2.0000000
           31          32          33          34          35          36
    1   2.0000000   2.0000000   2.0000000   2.0000000   2.0000000   2.0000000
           37          38          39          40          41          42
    1   2.0000000   2.0000000   2.0000000   2.0000000   2.0000000   2.0000000
           43          44          45          46          47          48
    1   2.0000000   2.0000000   2.0000000   2.0000000   2.0000000   2.0000000
           49          50          51          52          53          54
    1   2.0000000   2.0000000   2.0000000   2.0000000   2.0000000   2.0000000
           55          56          57          58          59          60
    1   2.0000000   2.0000000   2.0000000   2.0000000   2.0000000   2.0000000
           61          62          63          64          65          66
    1   2.0000000   1.9992782   1.9986456   1.9984155   1.9921024   1.9910471
           67          68          69          70          71          72
    1   1.9879038   1.9546381   1.9479354   1.9467051   1.0077420   0.9987831
           73          74          75          76          77          78
    1   0.9967081   0.0537768   0.0470104   0.0448234   0.0130845   0.0057177
           79          80          81          82          83          84
    1   0.0048683   0.0034755   0.0014742   0.0012560   0.0008563   0.0003772
           85          86          87          88          89          90
    1   0.0003548   0.0003360   0.0002770   0.0002468   0.0002186   0.0002132
           91          92          93          94          95          96
    1   0.0002094   0.0001619   0.0001563   0.0001412   0.0001270   0.0000806
           97          98          99         100         101         102
    1   0.0000756   0.0000715   0.0000687   0.0000658   0.0000655   0.0000615
          103         104         105         106         107         108
    1   0.0000514   0.0000476   0.0000462   0.0000413   0.0000392   0.0000303
          109         110         111         112         113         114
    1   0.0000262   0.0000250   0.0000231   0.0000190   0.0000159   0.0000154
Natural Orbitals stored in FCHK

  Amplitudes : 
  
 | HOLE  | ALPHA     | BETA      | PART  |    AMPLITUDE 
--------------------------------------------------
 |       | 111110000 | 111001000 |       |     5.1871841024821E-01
 |       | 111101000 | 111010000 |       |    -5.1871840926948E-01
 |       | 111011000 | 111100000 |       |     5.1871841016645E-01
--------------------------------------------------
*** Contributions RASCI wfn    Active:  90.74
                                 Hole:   4.34
                                 Part:   4.92

      Mulliken population analysis 
 ---------------------------------------------------
   Atom    Charge (a.u.)   Spin (a.u.)  
 ---------------------------------------------------
   1  C   -0.340992        0.052236 
   2  C   -0.035370       -0.007387 
   3  C   -0.073414        0.064222 
   4  H    0.080607        0.000426 
   5  C   -0.055772       -0.004466 
   6  H    0.092495       -0.000054 
   7  C   -0.073407        0.064214 
   8  H    0.080604        0.000426 
   9  C   -0.035375       -0.007394 
  10  C   -0.031878        0.139274 
  11  H    0.072905        0.000914 
  12  C   -0.041649       -0.009830 
  13  C   -0.310714        0.067418 
  14  C   -0.035468       -0.006218 
  15  C   -0.101541        0.073583 
  16  H    0.099795        0.000504 
  17  C   -0.069645       -0.011341 
  18  H    0.103867       -0.000099 
  19  C   -0.095672        0.064194 
  20  H    0.104557        0.000440 
  21  C   -0.098590        0.135507 
  22  H    0.098138        0.000890 
  23  C   -0.035478       -0.006220 
  24  C   -0.101543        0.073603 
  25  H    0.099806        0.000505 
  26  C   -0.069651       -0.011339 
  27  H    0.103873       -0.000099 
  28  C   -0.095669        0.064186 
  29  H    0.104566        0.000440 
  30  C   -0.310678        0.067435 
  31  C   -0.041664       -0.009834 
  32  C   -0.031887        0.139255 
  33  H    0.072907        0.000914 
  34  B    0.971938        0.063694 
 ---------------------------------------------------
   Sum:   -0.000000        1.000000 
 ---------------------------------------------------
 
  
 NATURAL OCCUPATION NUMBERS (higher than 1.0E-05)
            1           2           3           4           5           6
    1   2.0000000   2.0000000   2.0000000   2.0000000   2.0000000   2.0000000
            7           8           9          10          11          12
    1   2.0000000   2.0000000   2.0000000   2.0000000   2.0000000   2.0000000
           13          14          15          16          17          18
    1   2.0000000   2.0000000   2.0000000   2.0000000   2.0000000   2.0000000
           19          20          21          22          23          24
    1   2.0000000   2.0000000   2.0000000   2.0000000   2.0000000   2.0000000
           25          26          27          28          29          30
    1   2.0000000   2.0000000   2.0000000   2.0000000   2.0000000   2.0000000
           31          32          33          34          35          36
    1   2.0000000   2.0000000   2.0000000   2.0000000   2.0000000   2.0000000
           37          38          39          40          41          42
    1   2.0000000   2.0000000   2.0000000   2.0000000   2.0000000   2.0000000
           43          44          45          46          47          48
    1   2.0000000   2.0000000   2.0000000   2.0000000   2.0000000   2.0000000
           49          50          51          52          53          54
    1   2.0000000   2.0000000   2.0000000   2.0000000   2.0000000   2.0000000
           55          56          57          58          59          60
    1   2.0000000   2.0000000   2.0000000   2.0000000   2.0000000   2.0000000
           61          62          63          64          65          66
    1   2.0000000   1.9992782   1.9986456   1.9984155   1.9921024   1.9910471
           67          68          69          70          71          72
    1   1.9879038   1.9546381   1.9479354   1.9467051   1.0077420   0.9987831
           73          74          75          76          77          78
    1   0.9967081   0.0537768   0.0470104   0.0448234   0.0130845   0.0057177
           79          80          81          82          83          84
    1   0.0048683   0.0034755   0.0014742   0.0012560   0.0008563   0.0003772
           85          86          87          88          89          90
    1   0.0003548   0.0003360   0.0002770   0.0002468   0.0002186   0.0002132
           91          92          93          94          95          96
    1   0.0002094   0.0001619   0.0001563   0.0001412   0.0001270   0.0000806
           97          98          99         100         101         102
    1   0.0000756   0.0000715   0.0000687   0.0000658   0.0000655   0.0000615
          103         104         105         106         107         108
    1   0.0000514   0.0000476   0.0000462   0.0000413   0.0000392   0.0000303
          109         110         111         112         113         114
    1   0.0000262   0.0000250   0.0000231   0.0000190   0.0000159   0.0000154
  
*** Unpaired Electrons
 Yamaguchi Nd:         3.71
 Head-Gordon Nu:       3.35
 Head-Gordon Nu_nl:    3.06
  
**************************************************
 RAS-CI total energy for state   4:   -827.073343730528
  Excitation energy (eV) =  1.724078481832
  State symmetry: A"    (Cs       )
  <S^2>      :  0.7500
  Dipole Moment:    0.0002 X     0.0165 Y    -0.0000 Z
  Trans. Moment:   -0.0001 X     0.7797 Y    -0.0000 Z
  Strength   :  0.025678
  Natural transition orbitals ( 1 -> 4 ):
   e-/hole pair  1 alpha:  ampl =  0.242408 (  5.9%)   [9 : 10]
   e-/hole pair  2 alpha:  ampl =  0.099930 (  1.0%)   [8 : 11]
   e-/hole pair  1 beta :  ampl =  0.677690 ( 45.9%)   [9 : 10]
   e-/hole pair  2 beta :  ampl =  0.087577 (  0.8%)   [8 : 11]
   Sum of square amplitudes: 0.55

 NATURAL OCCUPATION NUMBERS (higher than 1.0E-05)
            1           2           3           4           5           6
    1   2.0000000   2.0000000   2.0000000   2.0000000   2.0000000   2.0000000
            7           8           9          10          11          12
    1   2.0000000   2.0000000   2.0000000   2.0000000   2.0000000   2.0000000
           13          14          15          16          17          18
    1   2.0000000   2.0000000   2.0000000   2.0000000   2.0000000   2.0000000
           19          20          21          22          23          24
    1   2.0000000   2.0000000   2.0000000   2.0000000   2.0000000   2.0000000
           25          26          27          28          29          30
    1   2.0000000   2.0000000   2.0000000   2.0000000   2.0000000   2.0000000
           31          32          33          34          35          36
    1   2.0000000   2.0000000   2.0000000   2.0000000   2.0000000   2.0000000
           37          38          39          40          41          42
    1   2.0000000   2.0000000   2.0000000   2.0000000   2.0000000   2.0000000
           43          44          45          46          47          48
    1   2.0000000   2.0000000   2.0000000   2.0000000   2.0000000   2.0000000
           49          50          51          52          53          54
    1   2.0000000   2.0000000   2.0000000   2.0000000   2.0000000   2.0000000
           55          56          57          58          59          60
    1   2.0000000   2.0000000   2.0000000   2.0000000   2.0000000   2.0000000
           61          62          63          64          65          66
    1   2.0000000   1.9987874   1.9966357   1.9963918   1.9897103   1.9853822
           67          68          69          70          71          72
    1   1.9853485   1.9376031   1.9368141   1.9296245   1.2962420   0.9957479
           73          74          75          76          77          78
    1   0.7348657   0.0675780   0.0511893   0.0502921   0.0129274   0.0121561
           79          80          81          82          83          84
    1   0.0073744   0.0042095   0.0026764   0.0022971   0.0016406   0.0004040
           85          86          87          88          89          90
    1   0.0003776   0.0003714   0.0003270   0.0002901   0.0002860   0.0002722
           91          92          93          94          95          96
    1   0.0002486   0.0002123   0.0002079   0.0001689   0.0001323   0.0001130
           97          98          99         100         101         102
    1   0.0001040   0.0000893   0.0000834   0.0000824   0.0000721   0.0000711
          103         104         105         106         107         108
    1   0.0000676   0.0000623   0.0000552   0.0000535   0.0000497   0.0000414
          109         110         111         112         113         114
    1   0.0000399   0.0000350   0.0000314   0.0000273   0.0000223   0.0000213
          115
    1   0.0000134
Natural Orbitals stored in FCHK

  Amplitudes : 
  
 | HOLE  | ALPHA     | BETA      | PART  |    AMPLITUDE 
--------------------------------------------------
 |       | 111110000 | 111100000 |       |    -1.7449498389514E-01
 |       | 111110000 | 111001000 |       |     6.6340367137850E-01
 |       | 111101000 | 111010000 |       |     4.5895501424635E-01
 |       | 111011000 | 111100000 |       |    -2.0444867071102E-01
 |       | 111011000 | 111001000 |       |     1.3368184400605E-01
--------------------------------------------------
*** Contributions RASCI wfn    Active:  87.69
                                 Hole:   6.29
                                 Part:   6.02

      Mulliken population analysis 
 ---------------------------------------------------
   Atom    Charge (a.u.)   Spin (a.u.)  
 ---------------------------------------------------
   1  C   -0.356686        0.064480 
   2  C   -0.026482       -0.010955 
   3  C   -0.070542        0.086412 
   4  H    0.080554        0.000570 
   5  C   -0.050542       -0.003662 
   6  H    0.092548       -0.000064 
   7  C   -0.070524        0.086382 
   8  H    0.080551        0.000569 
   9  C   -0.026493       -0.010962 
  10  C   -0.052415        0.205451 
  11  H    0.072741        0.001331 
  12  C   -0.047078       -0.004529 
  13  C   -0.279916        0.132268 
  14  C   -0.051464        0.000636 
  15  C   -0.109584       -0.026969 
  16  H    0.099705       -0.000153 
  17  C   -0.074005        0.002081 
  18  H    0.103843       -0.000013 
  19  C   -0.088570       -0.026734 
  20  H    0.104587       -0.000193 
  21  C   -0.052225        0.064920 
  22  H    0.098503        0.000413 
  23  C   -0.051472        0.000632 
  24  C   -0.109605       -0.027040 
  25  H    0.099716       -0.000154 
  26  C   -0.074014        0.002091 
  27  H    0.103849       -0.000013 
  28  C   -0.088594       -0.026796 
  29  H    0.104596       -0.000193 
  30  C   -0.279871        0.132264 
  31  C   -0.047082       -0.004527 
  32  C   -0.052459        0.205326 
  33  H    0.072743        0.001330 
  34  B    0.945689        0.155801 
 ---------------------------------------------------
   Sum:   -0.000000        1.000000 
 ---------------------------------------------------
 
  
 NATURAL OCCUPATION NUMBERS (higher than 1.0E-05)
            1           2           3           4           5           6
    1   2.0000000   2.0000000   2.0000000   2.0000000   2.0000000   2.0000000
            7           8           9          10          11          12
    1   2.0000000   2.0000000   2.0000000   2.0000000   2.0000000   2.0000000
           13          14          15          16          17          18
    1   2.0000000   2.0000000   2.0000000   2.0000000   2.0000000   2.0000000
           19          20          21          22          23          24
    1   2.0000000   2.0000000   2.0000000   2.0000000   2.0000000   2.0000000
           25          26          27          28          29          30
    1   2.0000000   2.0000000   2.0000000   2.0000000   2.0000000   2.0000000
           31          32          33          34          35          36
    1   2.0000000   2.0000000   2.0000000   2.0000000   2.0000000   2.0000000
           37          38          39          40          41          42
    1   2.0000000   2.0000000   2.0000000   2.0000000   2.0000000   2.0000000
           43          44          45          46          47          48
    1   2.0000000   2.0000000   2.0000000   2.0000000   2.0000000   2.0000000
           49          50          51          52          53          54
    1   2.0000000   2.0000000   2.0000000   2.0000000   2.0000000   2.0000000
           55          56          57          58          59          60
    1   2.0000000   2.0000000   2.0000000   2.0000000   2.0000000   2.0000000
           61          62          63          64          65          66
    1   2.0000000   1.9987874   1.9966357   1.9963918   1.9897103   1.9853822
           67          68          69          70          71          72
    1   1.9853485   1.9376031   1.9368141   1.9296245   1.2962420   0.9957479
           73          74          75          76          77          78
    1   0.7348657   0.0675780   0.0511893   0.0502921   0.0129274   0.0121561
           79          80          81          82          83          84
    1   0.0073744   0.0042095   0.0026764   0.0022971   0.0016406   0.0004040
           85          86          87          88          89          90
    1   0.0003776   0.0003714   0.0003270   0.0002901   0.0002860   0.0002722
           91          92          93          94          95          96
    1   0.0002486   0.0002123   0.0002079   0.0001689   0.0001323   0.0001130
           97          98          99         100         101         102
    1   0.0001040   0.0000893   0.0000834   0.0000824   0.0000721   0.0000711
          103         104         105         106         107         108
    1   0.0000676   0.0000623   0.0000552   0.0000535   0.0000497   0.0000414
          109         110         111         112         113         114
    1   0.0000399   0.0000350   0.0000314   0.0000273   0.0000223   0.0000213
          115
    1   0.0000134
  
*** Unpaired Electrons
 Yamaguchi Nd:         3.74
 Head-Gordon Nu:       2.89
 Head-Gordon Nu_nl:    2.78
  
**************************************************
 RAS-CI total energy for state   5:   -827.070267521578
  Excitation energy (eV) =  1.807786386294
  State symmetry: A"    (Cs       )
  <S^2>      :  0.7500
  Dipole Moment:   -0.0004 X    -0.2026 Y    -0.0000 Z
  Trans. Moment:    0.5709 X    -0.0002 Y     0.0000 Z
  Strength   :  0.014433
  Natural transition orbitals ( 1 -> 5 ):
   e-/hole pair  1 alpha:  ampl =  0.303637 (  9.2%)   [9 : 10]
[...]
  56    C 14  d     0.00018   0.01964   0.00023   0.00011   0.00000   0.00001
  57    H 8   s     0.00000   0.00000   0.00000   0.00000   0.00000   0.00000
  58    H 8   p     0.00000   0.00000   0.00000   0.00001   0.00582   0.00000
  59    C 15  s     0.00000   0.00000   0.00000   0.00000   0.00000   0.00000
  60    C 15  p     0.00114   0.34601   0.00143   0.00043   0.01272   0.00042
  61    C 15  d     0.00502   0.00100   0.00594   0.00391   0.01121   0.00380
  62    C 16  s     0.00000   0.00000   0.00000   0.00000   0.00000   0.00000
  63    C 16  p     0.11492   0.02605   0.13098   0.07811   0.00017   0.04693
  64    C 16  d     0.00325   0.01411   0.00072   0.00094   0.00178   0.00009
  65    H 9   s     0.00000   0.00000   0.00000   0.00000   0.00000   0.00000
  66    H 9   p     0.00180   0.00040   0.00269   0.00159   0.00000   0.00148
  67    C 17  s     0.00000   0.00000   0.00000   0.00000   0.00000   0.00000
  68    C 17  p     0.20019   0.17573   0.05996   0.05481   0.02682   0.00009
  69    C 17  d     0.00107   0.00507   0.00391   0.00205   0.00001   0.00350
  70    H 10  s     0.00000   0.00000   0.00000   0.00000   0.00000   0.00000
  71    H 10  p     0.00333   0.00351   0.00129   0.00118   0.00060   0.00001
  72    C 18  s     0.00000   0.00000   0.00000   0.00000   0.00000   0.00000
  73    C 18  p     0.02883   0.22297   0.03232   0.01335   0.00010   0.04373
  74    C 18  d     0.00614   0.00275   0.00592   0.00469   0.00222   0.00005
  75    H 11  s     0.00000   0.00000   0.00000   0.00000   0.00000   0.00000
  76    H 11  p     0.00042   0.00403   0.00054   0.00022   0.00000   0.00100
  77    C 19  s     0.00000   0.00000   0.00000   0.00000   0.00000   0.00000
  78    C 19  p     0.12257   0.15721   0.11818   0.07500   0.16090   0.06310
  79    C 19  d     0.00070   0.00532   0.00309   0.00177   0.00507   0.00017
  80    C 20  s     0.00000   0.00000   0.00000   0.00000   0.00000   0.00000
  81    C 20  p     0.06662   0.00118   0.17492   0.11656   0.02775   0.00014
  82    C 20  d     0.00287   0.00811   0.00273   0.00112   0.01268   0.01438
  83    C 21  s     0.00000   0.00000   0.00000   0.00000   0.00000   0.00000
  84    C 21  p     0.03917   0.00063   0.01767   0.00271   0.28778   0.28991
  85    C 21  d     0.00112   0.00029   0.01108   0.00669   0.00007   0.00001
  86    H 12  s     0.00000   0.00000   0.00000   0.00000   0.00000   0.00000
  87    H 12  p     0.00042   0.00000   0.00045   0.00003   0.00664   0.00750
  88    B     s     0.00000   0.00000   0.00000   0.00000   0.00000   0.00000
  89    B     p     0.13529   0.00000   0.00000   0.00174   0.40065   0.00000
  90    B     d     0.00032   0.01353   0.00987   0.02390   0.00001   0.00534
 
 -----------------------------------------------------------------
                    Cartesian Multipole Moments
 -----------------------------------------------------------------
    Charge (ESU x 10^10)
                -0.0000
    Dipole Moment (Debye)
         X       0.0013      Y       3.7465      Z       0.0000
       Tot       3.7465
    Quadrupole Moments (Debye-Ang)
        XX     -98.4251     XY       0.0021     YY    -104.2686
        XZ       0.0000     YZ      -0.0000     ZZ    -137.5300
    Octopole Moments (Debye-Ang^2)
       XXX       0.0177    XXY      15.6627    XYY       0.0059
       YYY      48.0522    XXZ       0.0000    XYZ       0.0000
       YYZ      -0.0000    XZZ       0.0010    YZZ       3.2787
       ZZZ       0.0000
    Hexadecapole Moments (Debye-Ang^3)
      XXXX   -3347.8581   XXXY       0.0185   XXYY   -1163.2170
      XYYY       0.0291   YYYY   -3469.1972   XXXZ       0.0000
      XXYZ      -0.0000   XYYZ       0.0000   YYYZ      -0.0000
      XXZZ    -769.4593   XYZZ       0.0021   YYZZ    -764.9523
      XZZZ      -0.0000   YZZZ      -0.0000   ZZZZ    -162.2770
 -----------------------------------------------------------------
 Mayer SCF Bond Order, atomic valence on the diagonal:

            1           2           3           4           5           6
    1   3.8471798   1.2854547  -0.0271317   0.0043082   0.0249174   0.0001764
    2   1.2854547   3.8314551   1.2034369  -0.0089712  -0.0322598   0.0041434
    3  -0.0271317   1.2034369   3.7435222   0.9966612   1.4438955  -0.0102926
    4   0.0043082  -0.0089712   0.9966612   0.9820875  -0.0127743  -0.0023879
    5   0.0249174  -0.0322598   1.4438955  -0.0127743   3.8732976   0.9893796
    6   0.0001764   0.0041434  -0.0102926  -0.0023879   0.9893796   0.9741998
    7  -0.0271345   0.0225400   0.0267254   0.0036606   1.4440750  -0.0102897
    8   0.0043082   0.0006591   0.0036609   0.0006193  -0.0127711  -0.0023879
    9   1.2854948  -0.0129827   0.0225277   0.0006591  -0.0322614   0.0041436
   10   0.0045207   1.3927413  -0.0048294  -0.0037610   0.0190448   0.0007555
   11   0.0072334  -0.0013224  -0.0037714   0.0027537   0.0000615   0.0000012
   12   0.0064282  -0.0397595   0.0074502   0.0002112   0.0003602  -0.0000249
   13   0.0780769   0.0113669   0.0068037  -0.0001314   0.0045860   0.0000529
   14   0.0002536  -0.0000436   0.0012729   0.0001017   0.0003244  -0.0000170
   15   0.0070034   0.0131540   0.0060510   0.0000308   0.0018467   0.0000163
   16   0.0000799   0.0000727   0.0000484   0.0000029   0.0000118   0.0000004
   17   0.0060151   0.0006708   0.0007123   0.0000087   0.0002443   0.0000007
   18   0.0000681  -0.0000178   0.0000353  -0.0000001   0.0000006   0.0000054
   19   0.0116506   0.0182508   0.0057569   0.0000002   0.0019237   0.0000444
   20  -0.0000964   0.0002431  -0.0000064   0.0000114   0.0000160  -0.0000001
   21   0.0341298   0.0013880   0.0004161  -0.0000242   0.0005804   0.0000024
   22   0.0003602   0.0000061   0.0000055  -0.0000005   0.0000079   0.0000003
   23   0.0002537   0.0030766   0.0000614   0.0000014   0.0003245  -0.0000170
   24   0.0070056   0.0002392   0.0060262   0.0000446   0.0018487   0.0000164
   25   0.0000799   0.0000074   0.0000524   0.0000166   0.0000118   0.0000004
   26   0.0060170   0.0003655   0.0006484   0.0000026   0.0002443   0.0000007
   27   0.0000681  -0.0000177   0.0000046   0.0000004   0.0000006   0.0000054
   28   0.0116552   0.0016638   0.0055276   0.0000382   0.0019253   0.0000444
   29  -0.0000963   0.0001059   0.0000222   0.0000025   0.0000160  -0.0000001
   30   0.0780760  -0.0003819   0.0090343   0.0000936   0.0045908   0.0000529
   31   0.0064344  -0.0004485   0.0043385   0.0000008   0.0003607  -0.0000249
   32   0.0045226   0.0059187   0.0372034   0.0003874   0.0190596   0.0007556
   33   0.0072337  -0.0003754   0.0004566   0.0000236   0.0000616   0.0000012
   34   1.0198126  -0.0374693   0.0007180   0.0004976   0.0036445   0.0000426
            7           8           9          10          11          12
    1  -0.0271345   0.0043082   1.2854948   0.0045207   0.0072334   0.0064282
    2   0.0225400   0.0006591  -0.0129827   1.3927413  -0.0013224  -0.0397595
    3   0.0267254   0.0036609   0.0225277  -0.0048294  -0.0037714   0.0074502
    4   0.0036606   0.0006193   0.0006591  -0.0037610   0.0027537   0.0002112
    5   1.4440750  -0.0127711  -0.0322614   0.0190448   0.0000615   0.0003602
    6  -0.0102897  -0.0023879   0.0041436   0.0007555   0.0000012  -0.0000249
    7   3.7435784   0.9966629   1.2033544   0.0372432   0.0004569   0.0043362
    8   0.9966629   0.9820886  -0.0089753   0.0003877   0.0000236   0.0000008
    9   1.2033544  -0.0089753   3.8314446   0.0059254  -0.0003754  -0.0004489
   10   0.0372432   0.0003877   0.0059254   3.8154284   0.9893978   1.2606520
   11   0.0004569   0.0000236  -0.0003754   0.9893978   0.9892987  -0.0140356
   12   0.0043362   0.0000008  -0.0004489   1.2606520  -0.0140356   3.8169150
   13   0.0090315   0.0000935  -0.0003819   0.0221828   0.0075630   1.3261294
   14   0.0000614   0.0000014   0.0030768   0.0029417  -0.0002917  -0.0053439
   15   0.0060345   0.0000446   0.0002400   0.0070512   0.0001901   0.0472252
   16   0.0000525   0.0000166   0.0000074   0.0001828   0.0000183   0.0007494
   17   0.0006478   0.0000025   0.0003656   0.0140549   0.0001082  -0.0341055
   18   0.0000046   0.0000004  -0.0000177   0.0007263   0.0000007   0.0046429
   19   0.0055364   0.0000382   0.0016649  -0.0248014  -0.0028988   1.2799302
   20   0.0000223   0.0000025   0.0001059  -0.0033315   0.0026474  -0.0043380
   21   0.0004137  -0.0000242   0.0013892   0.0285050   0.0002706   0.0019427
   22   0.0000055  -0.0000005   0.0000061   0.0002819   0.0000359  -0.0001648
   23   0.0012723   0.0001017  -0.0000428   0.0015063   0.0000089  -0.0004968
   24   0.0060373   0.0000307   0.0131548   0.0085237   0.0000641   0.0014228
   25   0.0000483   0.0000029   0.0000728   0.0000444   0.0000006   0.0000878
   26   0.0007124   0.0000087   0.0006710   0.0029293   0.0000264   0.0002587
   27   0.0000353  -0.0000001  -0.0000178   0.0000174   0.0000004  -0.0000129
   28   0.0057422   0.0000001   0.0182511   0.0117976   0.0000838   0.0002401
   29  -0.0000065   0.0000114   0.0002430   0.0000483   0.0000007   0.0000083
   30   0.0067980  -0.0001314   0.0113737   0.0140975   0.0002370   0.0027043
   31   0.0074520   0.0002112  -0.0397589   0.0053038   0.0000271   0.0031169
   32  -0.0048959  -0.0037612   1.3927671   0.0243781   0.0002074   0.0053043
   33  -0.0037717   0.0027537  -0.0013210   0.0002075   0.0000230   0.0000271
   34   0.0007140   0.0004975  -0.0374660  -0.0032970   0.0005520  -0.0375832
           13          14          15          16          17          18
    1   0.0780769   0.0002536   0.0070034   0.0000799   0.0060151   0.0000681
    2   0.0113669  -0.0000436   0.0131540   0.0000727   0.0006708  -0.0000178
    3   0.0068037   0.0012729   0.0060510   0.0000484   0.0007123   0.0000353
    4  -0.0001314   0.0001017   0.0000308   0.0000029   0.0000087  -0.0000001
    5   0.0045860   0.0003244   0.0018467   0.0000118   0.0002443   0.0000006
    6   0.0000529  -0.0000170   0.0000163   0.0000004   0.0000007   0.0000054
    7   0.0090315   0.0000614   0.0060345   0.0000525   0.0006478   0.0000046
    8   0.0000935   0.0000014   0.0000446   0.0000166   0.0000025   0.0000004
    9  -0.0003819   0.0030768   0.0002400   0.0000074   0.0003656  -0.0000177
   10   0.0221828   0.0029417   0.0070512   0.0001828   0.0140549   0.0007263
   11   0.0075630  -0.0002917   0.0001901   0.0000183   0.0001082   0.0000007
   12   1.3261294  -0.0053439   0.0472252   0.0007494  -0.0341055   0.0046429
   13   3.8675299   1.2881969  -0.0234140   0.0049697   0.0320236   0.0002661
   14   1.2881969   3.7934233   1.2635538  -0.0103626  -0.0347124   0.0038634
   15  -0.0234140   1.2635538   3.7966946   0.9903462   1.4351459  -0.0093850
   16   0.0049697  -0.0103626   0.9903462   0.9784181  -0.0105355  -0.0021197
   17   0.0320236  -0.0347124   1.4351459  -0.0105355   3.8505867   0.9881154
   18   0.0002661   0.0038634  -0.0093850  -0.0021197   0.9881154   0.9741595
   19  -0.0161532   0.0355216  -0.0135140   0.0029072   1.4292147  -0.0107517
   20   0.0042803   0.0006141   0.0034582   0.0005243  -0.0144622  -0.0021396
   21   0.0031706   1.3047380   0.0078748  -0.0023306   0.0200997   0.0007086
   22   0.0071937  -0.0081345  -0.0021375   0.0028163   0.0000390  -0.0000019
   23   0.0055587  -0.0433501   0.0136441   0.0002283   0.0008045  -0.0000162
   24   0.0028041   0.0136455   0.0144114   0.0000595   0.0014254   0.0000406
   25  -0.0001196   0.0002282   0.0000595   0.0000101   0.0000113   0.0000001
   26   0.0070726   0.0008044   0.0014254   0.0000113   0.0002089  -0.0000005
   27   0.0000688  -0.0000162   0.0000406   0.0000001  -0.0000005   0.0000049
   28   0.0022702   0.0082341   0.0132338   0.0000718   0.0013479   0.0000095
   29   0.0000423   0.0000303   0.0000861   0.0000027   0.0000079   0.0000003
   30   0.0691845   0.0055591   0.0027984  -0.0001196   0.0070738   0.0000688
   31   0.0027031  -0.0004967   0.0014230   0.0000878   0.0002587  -0.0000129
   32   0.0141010   0.0015072   0.0085312   0.0000445   0.0029303   0.0000174
   33   0.0002371   0.0000090   0.0000642   0.0000006   0.0000264   0.0000004
   34   0.9977003  -0.0383475   0.0001606   0.0005627   0.0028386   0.0000427
           19          20          21          22          23          24
    1   0.0116506  -0.0000964   0.0341298   0.0003602   0.0002537   0.0070056
    2   0.0182508   0.0002431   0.0013880   0.0000061   0.0030766   0.0002392
    3   0.0057569  -0.0000064   0.0004161   0.0000055   0.0000614   0.0060262
    4   0.0000002   0.0000114  -0.0000242  -0.0000005   0.0000014   0.0000446
    5   0.0019237   0.0000160   0.0005804   0.0000079   0.0003245   0.0018487
    6   0.0000444  -0.0000001   0.0000024   0.0000003  -0.0000170   0.0000164
    7   0.0055364   0.0000223   0.0004137   0.0000055   0.0012723   0.0060373
    8   0.0000382   0.0000025  -0.0000242  -0.0000005   0.0001017   0.0000307
    9   0.0016649   0.0001059   0.0013892   0.0000061  -0.0000428   0.0131548
   10  -0.0248014  -0.0033315   0.0285050   0.0002819   0.0015063   0.0085237
   11  -0.0028988   0.0026474   0.0002706   0.0000359   0.0000089   0.0000641
   12   1.2799302  -0.0043380   0.0019427  -0.0001648  -0.0004968   0.0014228
   13  -0.0161532   0.0042803   0.0031706   0.0071937   0.0055587   0.0028041
   14   0.0355216   0.0006141   1.3047380  -0.0081345  -0.0433501   0.0136455
   15  -0.0135140   0.0034582   0.0078748  -0.0021375   0.0136441   0.0144114
   16   0.0029072   0.0005243  -0.0023306   0.0028163   0.0002283   0.0000595
   17   1.4292147  -0.0144622   0.0200997   0.0000390   0.0008045   0.0014254
   18  -0.0107517  -0.0021396   0.0007086  -0.0000019  -0.0000162   0.0000406
   19   3.7870172   0.9886662   0.0242828   0.0002805   0.0082341   0.0132368
   20   0.9886662   0.9772762   0.0002728   0.0000235   0.0000303   0.0000861
   21   0.0242828   0.0002728   3.7965363   0.9836122   1.3047525   0.0079071
   22   0.0002805   0.0000235   0.9836122   0.9848565  -0.0081388  -0.0021370
   23   0.0082341   0.0000303   1.3047525  -0.0081388   3.7934152   1.2635618
   24   0.0132368   0.0000861   0.0079071  -0.0021370   1.2635618   3.7966707
   25   0.0000718   0.0000027  -0.0023303   0.0028162  -0.0103603   0.9903432
   26   0.0013480   0.0000079   0.0201000   0.0000390  -0.0347148   1.4351054
   27   0.0000095   0.0000003   0.0007086  -0.0000019   0.0038635  -0.0093856
   28   0.0116059   0.0000786   0.0242956   0.0002806   0.0355211  -0.0135000
   29   0.0000786   0.0000146   0.0002729   0.0000235   0.0006141   0.0034582
   30   0.0022691   0.0000423   0.0031705   0.0071940   1.2881706  -0.0234180
   31   0.0002404   0.0000083   0.0019432  -0.0001647  -0.0053403   0.0472129
   32   0.0118087   0.0000484   0.0285388   0.0002821   0.0029410   0.0070472
   33   0.0000839   0.0000007   0.0002709   0.0000359  -0.0002916   0.0001900
   34   0.0004799   0.0004422  -0.0045119   0.0003928  -0.0383476   0.0001621
           25          26          27          28          29          30
    1   0.0000799   0.0060170   0.0000681   0.0116552  -0.0000963   0.0780760
    2   0.0000074   0.0003655  -0.0000177   0.0016638   0.0001059  -0.0003819
    3   0.0000524   0.0006484   0.0000046   0.0055276   0.0000222   0.0090343
    4   0.0000166   0.0000026   0.0000004   0.0000382   0.0000025   0.0000936
    5   0.0000118   0.0002443   0.0000006   0.0019253   0.0000160   0.0045908
    6   0.0000004   0.0000007   0.0000054   0.0000444  -0.0000001   0.0000529
    7   0.0000483   0.0007124   0.0000353   0.0057422  -0.0000065   0.0067980
    8   0.0000029   0.0000087  -0.0000001   0.0000001   0.0000114  -0.0001314
    9   0.0000728   0.0006710  -0.0000178   0.0182511   0.0002430   0.0113737
   10   0.0000444   0.0029293   0.0000174   0.0117976   0.0000483   0.0140975
   11   0.0000006   0.0000264   0.0000004   0.0000838   0.0000007   0.0002370
   12   0.0000878   0.0002587  -0.0000129   0.0002401   0.0000083   0.0027043
   13  -0.0001196   0.0070726   0.0000688   0.0022702   0.0000423   0.0691845
   14   0.0002282   0.0008044  -0.0000162   0.0082341   0.0000303   0.0055591
   15   0.0000595   0.0014254   0.0000406   0.0132338   0.0000861   0.0027984
   16   0.0000101   0.0000113   0.0000001   0.0000718   0.0000027  -0.0001196
   17   0.0000113   0.0002089  -0.0000005   0.0013479   0.0000079   0.0070738
   18   0.0000001  -0.0000005   0.0000049   0.0000095   0.0000003   0.0000688
   19   0.0000718   0.0013480   0.0000095   0.0116059   0.0000786   0.0022691
   20   0.0000027   0.0000079   0.0000003   0.0000786   0.0000146   0.0000423
   21  -0.0023303   0.0201000   0.0007086   0.0242956   0.0002729   0.0031705
   22   0.0028162   0.0000390  -0.0000019   0.0002806   0.0000235   0.0071940
   23  -0.0103603  -0.0347148   0.0038635   0.0355211   0.0006141   1.2881706
   24   0.9903432   1.4351054  -0.0093856  -0.0135000   0.0034582  -0.0234180
   25   0.9784160  -0.0105367  -0.0021196   0.0029071   0.0005243   0.0049699
   26  -0.0105367   3.8505690   0.9881146   1.4292429  -0.0144622   0.0320178
   27  -0.0021196   0.9881146   0.9741592  -0.0107510  -0.0021394   0.0002661
   28   0.0029071   1.4292429  -0.0107510   3.7869951   0.9886638  -0.0161612
   29   0.0005243  -0.0144622  -0.0021394   0.9886638   0.9772742   0.0042805
   30   0.0049699   0.0320178   0.0002661  -0.0161612   0.0042805   3.8675401
   31   0.0007492  -0.0341080   0.0046431   1.2798844  -0.0043384   1.3261189
   32   0.0001827   0.0140614   0.0007264  -0.0247896  -0.0033310   0.0221869
   33   0.0000183   0.0001082   0.0000007  -0.0028981   0.0026476   0.0075631
   34   0.0005627   0.0028386   0.0000427   0.0004784   0.0004421   0.9977599
           31          32          33          34
    1   0.0064344   0.0045226   0.0072337   1.0198126
    2  -0.0004485   0.0059187  -0.0003754  -0.0374693
    3   0.0043385   0.0372034   0.0004566   0.0007180
    4   0.0000008   0.0003874   0.0000236   0.0004976
    5   0.0003607   0.0190596   0.0000616   0.0036445
    6  -0.0000249   0.0007556   0.0000012   0.0000426
    7   0.0074520  -0.0048959  -0.0037717   0.0007140
    8   0.0002112  -0.0037612   0.0027537   0.0004975
    9  -0.0397589   1.3927671  -0.0013210  -0.0374660
   10   0.0053038   0.0243781   0.0002075  -0.0032970
   11   0.0000271   0.0002074   0.0000230   0.0005520
   12   0.0031169   0.0053043   0.0000271  -0.0375832
   13   0.0027031   0.0141010   0.0002371   0.9977003
   14  -0.0004967   0.0015072   0.0000090  -0.0383475
   15   0.0014230   0.0085312   0.0000642   0.0001606
   16   0.0000878   0.0000445   0.0000006   0.0005627
   17   0.0002587   0.0029303   0.0000264   0.0028386
   18  -0.0000129   0.0000174   0.0000004   0.0000427
   19   0.0002404   0.0118087   0.0000839   0.0004799
   20   0.0000083   0.0000484   0.0000007   0.0004422
   21   0.0019432   0.0285388   0.0002709  -0.0045119
   22  -0.0001647   0.0002821   0.0000359   0.0003928
   23  -0.0053403   0.0029410  -0.0002916  -0.0383476
   24   0.0472129   0.0070472   0.0001900   0.0001621
   25   0.0007492   0.0001827   0.0000183   0.0005627
   26  -0.0341080   0.0140614   0.0001082   0.0028386
   27   0.0046431   0.0007264   0.0000007   0.0000427
   28   1.2798844  -0.0247896  -0.0028981   0.0004784
   29  -0.0043384  -0.0033310   0.0026476   0.0004421
   30   1.3261189   0.0221869   0.0075631   0.9977599
   31   3.8169111   1.2607049  -0.0140368  -0.0375820
   32   1.2607049   3.8155048   0.9893952  -0.0032770
   33  -0.0140368   0.9893952   0.9892977   0.0005522
   34  -0.0375820  -0.0032770   0.0005522   2.7940560


 Total job time:  443243.94s(wall), 391245.51s(cpu) 
 Sat Sep  9 22:09:57 2023

        *************************************************************
        *                                                           *
        *  Thank you very much for using Q-Chem.  Have a nice day.  *
        *                                                           *
        *************************************************************


