                  Welcome to Q-Chem
     A Quantum Leap Into The Future Of Chemistry


 Q-Chem 6.0 (devel), Q-Chem, Inc., Pleasanton, CA (2022)

 E. Epifanovsky,  A. T. B. Gilbert,  Xintian Feng,  Joonho Lee,  Yuezhi Mao,  
 N. Mardirossian,  P. Pokhilko,  A. White,  M. Wormit,  M. P. Coons,  
 A. L. Dempwolff,  Zhengting Gan,  D. Hait,  P. R. Horn,  L. D. Jacobson,  
 I. Kaliman,  J. Kussmann,  A. W. Lange,  Ka Un Lao,  D. S. Levine,  Jie Liu,  
 S. C. McKenzie,  A. F. Morrison,  K. Nanda,  F. Plasser,  D. R. Rehn,  
 M. L. Vidal,  Zhi-Qiang You,  Ying Zhu,  B. Alam,  B. Albrecht,  
 A. Aldossary,  E. Alguire,  J. H. Andersen,  V. Athavale,  D. Barton,  
 K. Begam,  A. Behn,  N. Bellonzi,  Y. A. Bernard,  E. J. Berquist,  
 H. Burton,  A. Carreras,  K. Carter-Fenk,  Romit Chakraborty,  
 Chandrima Chakravarty,  Junhan Chen,  A. D. Chien,  K. D. Closser,  
 V. Cofer-Shabica,  L. Cunha,  S. Dasgupta,  Jia Deng,  M. de Wergifosse,  
 M. Diedenhofen,  Hainam Do,  S. Ehlert,  Po-Tung Fang,  S. Fatehi,  
 Qingguo Feng,  T. Friedhoff,  B. Ganoe,  J. Gayvert,  Qinghui Ge,  
 G. Gidofalvi,  M. Goldey,  J. Gomes,  C. Gonzalez-Espinoza,  S. Gulania,  
 A. Gunina,  J. A. Gyamfi,  M. W. D. Hanson-Heine,  P. H. P. Harbach,  
 A. W. Hauser,  M. F. Herbst,  M. Hernandez Vera,  M. Hodecker,  
 Z. C. Holden,  S. Houck,  Xunkun Huang,  Kerwin Hui,  B. C. Huynh,  
 K. Ikeda,  M. Ivanov,  Hyunjun Ji,  Zuxin Jin,  Hanjie Jiang,  B. Kaduk,  
 S. Kaehler,  R. Kang,  K. Khistyaev,  Jaehoon Kim,  Yongbin Kim,  
 P. Klunzinger,  Z. Koczor-Benda,  Joong Hoon Koh,  D. Kosenkov,  
 Saikiran Kotaru,  L. Koulias,  T. Kowalczyk,  C. M. Krauter,  K. Kue,  
 A. Kunitsa,  T. Kus,  A. Landau,  K. V. Lawler,  D. Lefrancois,  S. Lehtola,  
 Rain Li,  Shaozhi Li,  Yi-Pei Li,  Jiashu Liang,  M. Liebenthal,  
 Hung-Hsuan Lin,  You-Sheng Lin,  Fenglai Liu,  Kuan-Yu Liu,  
 M. Loipersberger,  A. Luenser,  C. Malbon,  A. Manjanath,  P. Manohar,  
 E. Mansoor,  S. F. Manzer,  Shan-Ping Mao,  A. V. Marenich,  T. Markovich,  
 S. Mason,  F. Matz,  S. A. Maurer,  P. F. McLaughlin,  M. F. S. J. Menger,  
 J.-M. Mewes,  S. A. Mewes,  P. Morgante,  Mohammad Mostafanejad,  
 J. W. Mullinax,  K. J. Oosterbaan,  G. Paran,  V. Parravicini,  
 Alexander C. Paul,  Suranjan K. Paul,  F. Pavosevic,  Zheng Pei,  S. Prager,  
 E. I. Proynov,  E. Ramos,  B. Rana,  A. E. Rask,  A. Rettig,  R. M. Richard,  
 F. Rob,  E. Rossomme,  T. Scheele,  M. Scheurer,  M. Schneider,  
 P. E. Schneider,  N. Sergueev,  S. M. Sharada,  Hengyuan Shen,  
 W. Skomorowski,  D. W. Small,  C. J. Stein,  Yingli Su,  Yu-Chuan Su,  
 E. J. Sundstrom,  Zhen Tao,  J. Thirman,  Hung-Yi Tsai,  T. Tsuchimochi,  
 N. M. Tubman,  C. Utku,  S. P. Veccham,  O. Vydrov,  J. Wenzel,  
 Jonathan Wong,  J. Witte,  A. Yamada,  Chou-Hsun Yang,  Kun Yao,  
 S. Yeganeh,  S. R. Yost,  A. Zech,  F. Zeller,  Igor Ying Zhang,  
 Xing Zhang,  Yu Zhang,  D. Zuev,  A. Aspuru-Guzik,  A. T. Bell,  
 N. A. Besley,  K. B. Bravaya,  B. R. Brooks,  D. Casanova,  Jeng-Da Chai,  
 Hsing-Ta Chen,  S. Coriani,  C. J. Cramer,  A. E. DePrince, III,  
 R. A. DiStasio Jr.,  A. Dreuw,  B. D. Dunietz,  T. R. Furlani,  
 W. A. Goddard III,  S. Grimme,  S. Hammes-Schiffer,  T. Head-Gordon,  
 W. J. Hehre,  Chao-Ping Hsu,  T.-C. Jagau,  Yousung Jung,  A. Klamt,  
 Jing Kong,  D. S. Lambrecht,  Xiangyuan Li,  WanZhen Liang,  N. J. Mayhall,  
 C. W. McCurdy,  J. B. Neaton,  T. Neudecker,  C. Ochsenfeld,  
 J. A. Parkhill,  R. Peverati,  V. A. Rassolov,  Haisheng Ren,  Yihan Shao,  
 L. V. Slipchenko,  R. P. Steele,  J. E. Subotnik,  A. J. W. Thom,  
 A. Tkatchenko,  D. G. Truhlar,  T. Van Voorhis,  Fan Wang,  
 T. A. Wesolowski,  K. B. Whaley,  H. L. Woodcock III,  P. M. Zimmerman,  
 S. Faraji,  P. M. W. Gill,  M. Head-Gordon,  J. M. Herbert,  A. I. Krylov

 Contributors to earlier versions of Q-Chem not listed above: 
 R. D. Adamson,  B. Austin,  R. Baer,  J. Baker,  G. J. O. Beran,  
 K. Brandhorst,  S. T. Brown,  E. F. C. Byrd,  Arup K. Chakraborty,  
 G. K. L. Chan,  Chun-Min Chang,  Yunqing Chen,  C.-L. Cheng,  
 Siu Hung Chien,  D. M. Chipman,  D. L. Crittenden,  H. Dachsel,  
 R. J. Doerksen,  A. D. Dutoi,  R. G. Edgar,  J. Fosso-Tande,  
 L. Fusti-Molnar,  D. Ghosh,  A. Ghysels,  A. Golubeva-Zadorozhnaya,  
 J. Gonthier,  M. S. Gordon,  S. R. Gwaltney,  G. Hawkins,  J. E. Herr,  
 A. Heyden,  S. Hirata,  E. G. Hohenstein,  G. Kedziora,  F. J. Keil,  
 C. Kelley,  Jihan Kim,  R. A. King,  R. Z. Khaliullin,  P. P. Korambath,  
 W. Kurlancheek,  A. Laurent,  A. M. Lee,  M. S. Lee,  S. V. Levchenko,  
 Ching Yeh Lin,  D. Liotard,  E. Livshits,  R. C. Lochan,  I. Lotan,  
 L. A. Martinez-Martinez,  P. E. Maslen,  N. Nair,  D. P. O'Neill,  
 D. Neuhauser,  E. Neuscamman,  C. M. Oana,  R. Olivares-Amaya,  R. Olson,  
 T. M. Perrine,  B. Peters,  P. A. Pieniazek,  A. Prociuk,  Y. M. Rhee,  
 J. Ritchie,  M. A. Rohrdanz,  E. Rosta,  N. J. Russ,  H. F. Schaefer III,  
 M. W. Schmidt,  N. E. Schultz,  S. Sharma,  N. Shenvi,  C. D. Sherrill,  
 A. C. Simmonett,  A. Sodt,  T. Stein,  D. Stuck,  K. S. Thanthiriwatte,  
 V. Vanovschi,  L. Vogt,  Tao Wang,  A. Warshel,  M. A. Watson,  
 C. F. Williams,  Q. Wu,  X. Xu,  Jun Yang,  W. Zhang,  Yan Zhao

   Please cite Q-Chem as follows:
  "Software for the frontiers of quantum chemistry:
   An overview of developments in the Q-Chem 5 package"
   J. Chem. Phys. 155, 084801 (2021)
   https://doi.org/10.1063/5.0055522 (open access)

 Q-Chem 6.0.1 for Intel X86 EM64T Linux

 Parts of Q-Chem use Armadillo 9.900.5 (Nocturnal Misbehaviour).
 http://arma.sourceforge.net/

 Q-Chem begins on Fri Dec  1 13:09:12 2023  

 Host: atlas-148
0

     Scratch files written to ./qchem898//
 Processing $rem in /scratch/abel/SOFTWARE/qchem/config/preferences:
 Processing $rem in /dipc/acebg/.qchemrc:

 Checking the input file for inconsistencies... 	...done.

--------------------------------------------------------------
User input:
--------------------------------------------------------------
$comment
 RAS-SF CALCULATION
$end

$molecule
 READ anthracene_opt.molecule
$end

$rem
!**CALCULATION TYPE***     
JOBTYPE            sp    
EXCHANGE           HF
CORRELATION        RASCI    !RASCI=Casanova; RASCI2=Zimmerman
BASIS              def2-TZVP

!***SCF REFERENCE***
!SKIP_SCFMAN        FALSE
UNRESTRICTED       FALSE
!SCF_GUESS          core
!SCF_GUESS_MIX      FALSE
!SCF_GUESS_ALWAYS   FALSE
MAX_SCF_CYCLES     999
!SCF_CONVERGENCE    8
SCF_ALGORITHM      DIIS_GDM !DIIS,DM,DIIS_DM,GDM,DIIS_GDM,GD

!SYMMETRY           TRUE   !use of symmetry for calculating integrals
!SYM_IGNORE         FALSE  !turn off using symmetry
!SYM_TOL            5      !tolerance for determining point group
!USE_ABELIAN_SUBGROUP      !define to use abelian group

!THRESH             14
SCF_FINAL_PRINT     1 !0,1,2,3

!****RAS-SF****
RAS_ROOTS          20       !number of RAS-CI roots to be computed
SET_ITER           150     !number of iterations in RASCI
RAS_ELEC           10       !number of electrons in RAS2
RAS_ELEC_ALPHA     6       !spin-α electrons in RAS2 
RAS_ELEC_BETA      4       !spin-β electrons in RAS2

RAS_ACT            12       !number of orbitals in RAS2 
RAS_ACT_ORB   [36, 41, 42, 46, 47, 48, 49, 52, 58, 63, 64, 65]  !user-selected RAS2 orbitals
RAS_OCC            42       !number of orbitals in RAS1
!N_FROZEN_CORE      22     !Number of frozen core orbitals
!N_FROZEN_VIRTUAL   420      !Number of frozen virtual orbitals

RAS_DO_HOLE        FALSE   !presence of hole excitations in RAS-CI wave function
RAS_DO_PART        FALSE   !presence of particle excitations
!RAS_AMPL_PRINT     10     !threshold (×10 2 ) for the CI amplitudes

!RAS_GUESS_CS       0      !number of closed shell guess conﬁgurations
!RAS_SPIN_MULT      0      !spin multiplicity. Only for Ms = 0 
!RAS_SRDFT          FALSE  !short-range density functional RAS-CI
!RAS_NFRAG          0     !fragments of excitation analysis in RASCI

RAS_PRINT          2      !level of information
RAS_NATORB         TRUE   !computation of the natural orbital occupancies
!RAS_NATORB_STATE  0      !Saves NO of i RAS computed state in .fchk ﬁle
!RAS_FOD            TRUE

!****RAS-SOC****
CALC_SOC           TRUE   !calculate SOC for EOM-CC, RAS-CI, ADC, TDDFT/TDA and TDDFT
!RAS_SOC_2E        TRUE   !two-electron mean-ﬁeld contribution, default=true
RAS_SOC_SYM_DENS   TRUE   !averaging of α and β densities

!****MEMORY****
MEM_TOTAL          80000 !Default 2000 MB
MEM_STATIC         20000  !Default 64 MB

!**Molecular Properties and Analysis **                                                                                          
POP_MULLIKEN       TRUE   !Run Mulliken population analysis
LOWDIN_POPULATION  TRUE   !Run Löwdin population analysis
GUI                2       !Checkpoints generation
STATE_ANALYSIS     TRUE

!**Wave function analysis of RAS-CI states: MOLDEN**
!PLOTS = 0     ! Note: This can be omitted, default is 0
!NTO_PAIRS = 2 ! Note: This can be omitted, default is 2
!GUI 0
!MOLDEN_FORMAT      TRUE
!PRINT_ORBITALS     15

!**Wave function analysis of RAS-CI state: CUBE**
!NTO_PAIRS = 2 ! Note: This can be omitted, default is 2
!PLOTS = 1
!GUI 0

!**SR-DFT**
!RAS_SRDFT           TRUE !Perform short-range density functional RAS-CI
!RAS_SRDFT_EXC       0 !EX functional. 0=HF. 
!RAS_SRDFT_ONLY_COR  TRUE !No use of EXC functional
!RAS_SRDFT_COR       srPBE !short-range correlation functional
!ras_srdft_0         TRUE !true: no iteration (one-shot); false: iteration
!RAS_OMEGA           400 !Coulomb range-separation parameter. def=400
!RAS_SRDFT_DAMP     0.5 !dumping factor. def=0.5
$end

!$plots
!   grid_points 100 100 100
!   grid_range  (-10,10) (-10,10) (-10,10)
!$end

--------------------------------------------------------------
 ----------------------------------------------------------------
             Standard Nuclear Orientation (Angstroms)
    I     Atom           X                Y                Z
 ----------------------------------------------------------------
    1      C       1.2528696110    -0.7144616643     0.0000611748
    2      C       2.4661185256    -1.3873929098     0.0000888763
    3      H       2.4670317640    -2.4712684532    -0.0003057438
    4      C       3.6841006918    -0.6876643530     0.0000015246
    5      H       4.6172560521    -1.2351253405    -0.0000635121
    6      C       3.6841005673     0.6876646405     0.0001354170
    7      H       4.6172557863     1.2351258725     0.0001490616
    8      C       2.4661182998     1.3873930201     0.0000396542
    9      H       2.4670309197     2.4712685933     0.0003432278
   10      C       1.2528695387     0.7144615088    -0.0000846763
   11      C       0.0000005393    -1.4023074043    -0.0001838106
   12      H       0.0000006531    -2.4857083698    -0.0004570569
   13      C      -0.0000005712     1.4023074721    -0.0001838566
   14      H      -0.0000006933     2.4857084373    -0.0004585605
   15      C      -1.2528696259     0.7144617005     0.0000593180
   16      C      -2.4661185573     1.3873929157     0.0000876230
   17      H      -2.4670314450     2.4712684589    -0.0003085620
   18      C      -3.6841006695     0.6876642646     0.0000023815
   19      H      -4.6172559004     1.2351254729    -0.0000599772
   20      C      -3.6841005823    -0.6876647288     0.0001370081
   21      H      -4.6172558928    -1.2351258048     0.0001546533
   22      C      -2.4661182611    -1.3873930144     0.0000375438
   23      H      -2.4670312506    -2.4712685875     0.0003405012
   24      C      -1.2528695051    -0.7144614941    -0.0000871830
 ----------------------------------------------------------------
 Molecular Point Group                 C1    NOp =  1
 Largest Abelian Subgroup              C1    NOp =  1
 Nuclear Repulsion Energy =         766.54296530 hartrees
 There are       48 alpha and       46 beta electrons
 Requested basis set is def2-TZVP
 There are 194 shells and 494 basis functions

 Q-Chem warning in module libmdc/get_mega.C, line 167:

 Allowed MEM_STATIC has been capped at MEM_STATIC=8191.
 Reduce the value of MEM_STATIC to silence this warning.


 Total QAlloc Memory Limit  80000 MB
 Mega-Array Size      8007 MB
 MEM_STATIC part      8191 MB

 A cutoff of  1.0D-09 yielded  14219 shell pairs
 There are     91679 function pairs (    118438 Cartesian)
 Smallest overlap matrix eigenvalue = 5.53E-06

 Q-Chem warning in module stvman/mkSTV.C, line 313:

 Overlap eigenvalue is smaller than square root of threshold
 Use THRESH >= 12 to get rid of this warning


 Scale SEOQF with 1.000000e-01/1.000000e-01/1.000000e+00

 Standard Electronic Orientation quadrupole field applied
 Nucleus-field energy     =     0.0000000318 hartrees
 Guess from superposition of atomic densities
 Warning:  Energy on first SCF cycle will be non-variational
 SAD guess density has 94.000000 electrons

 -----------------------------------------------------------------------
  General SCF calculation program by
  Eric Jon Sundstrom, Paul Horn, Yuezhi Mao, Dmitri Zuev, Alec White,
  David Stuck, Shaama M.S., Shane Yost, Joonho Lee, David Small,
  Daniel Levine, Susi Lehtola, Hugh Burton, Evgeny Epifanovsky,
  Bang C. Huynh
 -----------------------------------------------------------------------
 Hartree-Fock
 Orthonormalizing orbitals
 A restricted open-shell SCF calculation will be
 performed using DIIS, GDM
 SCF converges when RMS gradient is below 1.0e-05
 ---------------------------------------
  Cycle       Energy         DIIS error
 ---------------------------------------
    1    -533.7368321779      2.15e-02  
    2    -533.8331856131      1.98e-02  
    3    -535.6469252504      5.37e-03  Done DIIS. Switching to GDM
 ---------------------------------------
  Cycle       Energy        RMS Gradient
 ---------------------------------------
    1    -535.6469252504      1.54e-01   Descent step
    2    -535.8209898743      4.06e-02   Normal BFGS step
    3    -535.8483851650      3.21e-02   Normal BFGS step
    4    -535.8511201391      2.89e-02   Normal BFGS step
    5    -535.8527255869      3.84e-02   Normal BFGS step
    6    -535.8597383011      2.32e-01   Normal BFGS step
    7    -535.8823033825      4.35e-01   Normal BFGS step
    8    -535.9607430615      3.81e-01   Descent step
    9    -536.0783357706      1.40e-01   Dog-leg BFGS step
   10    -536.1047155543      5.03e-02   Normal BFGS step
   11    -536.1098231838      2.10e-02   Normal BFGS step
   12    -536.1116002740      5.87e-03   Normal BFGS step
   13    -536.1118328855      3.66e-03   Normal BFGS step
   14    -536.1119107604      1.84e-03   Normal BFGS step
   15    -536.1119281610      9.96e-04   Normal BFGS step
   16    -536.1119328634      2.76e-04   Normal BFGS step
   17    -536.1119335041      9.76e-05   Normal BFGS step
   18    -536.1119339062      2.26e-05   Normal BFGS step
   19    -536.1119340198      9.70e-06  Convergence criterion met
The disked orbital energies are calculated using alpha and beta Focks
 ---------------------------------------
 Alpha HF Exchange    Energy = -38.61135622991300
 Beta HF Exchange     Energy = -37.72738327759686
 Nuclear Attraction   Energy =   0.00000000000000
 One-Electron (alpha) Energy = -1142.20653476982670
 One-Electron (beta)  Energy = -1103.38236523032242
 Total Coulomb        Energy = 1019.27274016087449
 Final Alpha MO Eigenvalues
            1           2           3           4           5           6
    1 -11.2439035 -11.2438273 -11.2429178 -11.2427934 -11.2437779 -11.2437586
            7           8           9          10          11          12
    1 -11.2347255 -11.2347380 -11.2346729 -11.2346840 -11.2331118 -11.2331108
           13          14          15          16          17          18
    1 -11.2318235 -11.2318224  -1.1940009  -1.1538292  -1.0889641  -1.0721889
           19          20          21          22          23          24
    1  -1.0237547  -1.0165721  -0.9611657  -0.9009333  -0.8396343  -0.8260439
           25          26          27          28          29          30
    1  -0.8160599  -0.7553753  -0.7118213  -0.6908510  -0.6477432  -0.6422874
           31          32          33          34          35          36
    1  -0.6307023  -0.6237680  -0.5880589  -0.5805022  -0.5775637  -0.5585487
           37          38          39          40          41          42
    1  -0.5591065  -0.5326289  -0.5025706  -0.5119645  -0.4863187  -0.4785018
           43          44          45          46          47          48
    1  -0.4184630  -0.4040544  -0.3541115  -0.3429595  -0.3462671  -0.2378505
           49          50          51          52          53          54
    1   0.1113518   0.1184127   0.1293900   0.1543708   0.1576050   0.1607081
           55          56          57          58          59          60
    1   0.1766006   0.1819639   0.1818464   0.1980449   0.2012733   0.2091961
           61          62          63          64          65          66
    1   0.2309990   0.2410011   0.2524654   0.2578009   0.2737481   0.2762160
           67          68          69          70          71          72
    1   0.3013541   0.3016467   0.3062407   0.3129610   0.3171969   0.3327281
           73          74          75          76          77          78
    1   0.3379196   0.3413948   0.3683816   0.3703791   0.3797106   0.3821363
           79          80          81          82          83          84
    1   0.3842785   0.3901648   0.4196523   0.4227583   0.4191722   0.4304417
           85          86          87          88          89          90
    1   0.4291881   0.4406849   0.4455819   0.4470331   0.4472712   0.4680699
           91          92          93          94          95          96
    1   0.4707571   0.4817009   0.4907726   0.4989563   0.4973566   0.5076799
           97          98          99         100         101         102
    1   0.5107135   0.5132624   0.5235215   0.5290555   0.5494624   0.5604974
          103         104         105         106         107         108
    1   0.5705889   0.5696884   0.5732220   0.5781212   0.5870513   0.5999388
          109         110         111         112         113         114
    1   0.6050977   0.6108113   0.6208537   0.6225302   0.6404200   0.6481179
          115         116         117         118         119         120
    1   0.6479087   0.6535025   0.6502944   0.6652450   0.6698018   0.6738665
          121         122         123         124         125         126
    1   0.6882948   0.6972772   0.7193762   0.7193696   0.7649325   0.7733033
          127         128         129         130         131         132
    1   0.7786545   0.7951218   0.7937325   0.8086165   0.8275406   0.8401410
          133         134         135         136         137         138
    1   0.8550981   0.8567818   0.8700402   0.8811884   0.8886735   0.9080814
          139         140         141         142         143         144
    1   0.9140942   0.9170309   0.9209621   0.9296435   0.9319631   0.9305924
          145         146         147         148         149         150
    1   0.9338778   0.9271114   0.9400575   0.9392660   0.9668770   0.9697234
          151         152         153         154         155         156
    1   0.9894651   1.0158280   1.0247816   1.0335497   1.0341841   1.0539423
          157         158         159         160         161         162
    1   1.0575446   1.0734236   1.0929919   1.0935134   1.1042816   1.1084326
          163         164         165         166         167         168
    1   1.1210517   1.1308060   1.1514958   1.1765430   1.1913061   1.1964371
          169         170         171         172         173         174
    1   1.1968664   1.2063770   1.2041560   1.2129742   1.3078733   1.3083486
          175         176         177         178         179         180
    1   1.3182003   1.3228123   1.3449012   1.3609996   1.3750837   1.3809031
          181         182         183         184         185         186
    1   1.4074281   1.4160046   1.4207446   1.4230807   1.4426375   1.4521401
          187         188         189         190         191         192
    1   1.4601616   1.4626645   1.4699066   1.4697134   1.4971113   1.5121740
          193         194         195         196         197         198
    1   1.5141783   1.5126465   1.5163845   1.5353099   1.5716126   1.6065040
          199         200         201         202         203         204
    1   1.6146362   1.6169800   1.6464393   1.6474461   1.6859734   1.6856071
          205         206         207         208         209         210
    1   1.6999678   1.7052847   1.7309187   1.7400875   1.7448932   1.7553582
          211         212         213         214         215         216
    1   1.7597022   1.7678875   1.7845418   1.7872614   1.7942584   1.8103224
          217         218         219         220         221         222
    1   1.8312218   1.8388761   1.8439461   1.8524937   1.8540331   1.8749600
          223         224         225         226         227         228
    1   1.9169286   1.9175287   1.9229074   1.9527450   1.9483771   1.9577541
          229         230         231         232         233         234
    1   1.9751224   1.9785861   1.9880173   1.9874917   2.0015273   2.0117901
          235         236         237         238         239         240
    1   2.0250631   2.0301112   2.0617948   2.0973446   2.1064855   2.1151132
          241         242         243         244         245         246
    1   2.1466464   2.1592680   2.1753820   2.1878778   2.1962702   2.2133798
          247         248         249         250         251         252
    1   2.2195832   2.2678806   2.2808081   2.2816493   2.2871730   2.2905767
          253         254         255         256         257         258
    1   2.3353362   2.3383768   2.3414589   2.4156039   2.4348943   2.4371948
          259         260         261         262         263         264
    1   2.4573972   2.4603013   2.4718256   2.4732212   2.4867564   2.5086396
          265         266         267         268         269         270
    1   2.5180709   2.5297888   2.5350634   2.5632312   2.5715224   2.6065045
          271         272         273         274         275         276
    1   2.6072496   2.6173668   2.6269781   2.6473941   2.6573695   2.7224826
          277         278         279         280         281         282
    1   2.7258838   2.7335918   2.7440785   2.7614496   2.7956004   2.8093811
          283         284         285         286         287         288
    1   2.8176338   2.8185716   2.8472094   2.8498539   2.8861975   2.8868238
          289         290         291         292         293         294
    1   2.9220880   2.9381033   2.9439031   2.9491518   2.9544867   2.9702044
          295         296         297         298         299         300
    1   2.9733706   2.9728784   2.9996886   3.0168168   3.0244367   3.0268191
          301         302         303         304         305         306
    1   3.0288717   3.0575466   3.0701487   3.0732566   3.0787930   3.0808771
          307         308         309         310         311         312
    1   3.1005446   3.0985348   3.1059778   3.1097768   3.1275511   3.1317064
          313         314         315         316         317         318
    1   3.1385536   3.1586134   3.1670359   3.1846273   3.1862827   3.1908243
          319         320         321         322         323         324
    1   3.2003790   3.2000852   3.2009687   3.2238881   3.2389046   3.2404414
          325         326         327         328         329         330
    1   3.2491173   3.2579881   3.2710017   3.2834958   3.2846010   3.3051993
          331         332         333         334         335         336
    1   3.3107731   3.3121576   3.3367738   3.3515565   3.3587711   3.3657860
          337         338         339         340         341         342
    1   3.3678935   3.3824468   3.3890360   3.3898061   3.4014436   3.4403479
          343         344         345         346         347         348
    1   3.4537398   3.4526434   3.4638120   3.4871801   3.4881165   3.4884597
          349         350         351         352         353         354
    1   3.4998505   3.5118418   3.5181740   3.5221705   3.5400547   3.5602064
          355         356         357         358         359         360
    1   3.5780506   3.5797386   3.5907222   3.5931920   3.6037875   3.6222852
          361         362         363         364         365         366
    1   3.6372468   3.6383595   3.6423505   3.6483592   3.6488553   3.6557256
          367         368         369         370         371         372
    1   3.6690878   3.6863200   3.6873879   3.7000182   3.7424033   3.7452674
          373         374         375         376         377         378
    1   3.7577318   3.7614361   3.7660979   3.7667323   3.7938262   3.8076704
          379         380         381         382         383         384
    1   3.8210982   3.8249821   3.8335458   3.8351732   3.8374189   3.8533780
          385         386         387         388         389         390
    1   3.8631617   3.8813056   3.8876779   3.8898595   3.8997876   3.9017271
          391         392         393         394         395         396
    1   3.9128215   3.9658752   3.9663475   3.9691792   3.9887192   3.9912313
          397         398         399         400         401         402
    1   4.0281516   4.0704054   4.0786918   4.0923250   4.1309659   4.1665004
          403         404         405         406         407         408
    1   4.2003168   4.2009566   4.2116973   4.2208420   4.2416090   4.2433681
          409         410         411         412         413         414
    1   4.2759224   4.3073859   4.3092791   4.3111100   4.3411024   4.3513895
          415         416         417         418         419         420
    1   4.3585873   4.3872625   4.4430817   4.4456875   4.4462856   4.4455664
          421         422         423         424         425         426
    1   4.4513514   4.4963954   4.5235892   4.5258532   4.5315815   4.5418693
          427         428         429         430         431         432
    1   4.5423072   4.5569133   4.5578042   4.5878216   4.5950142   4.6023214
          433         434         435         436         437         438
    1   4.6482524   4.6751777   4.6923011   4.7137739   4.7212711   4.7359662
          439         440         441         442         443         444
    1   4.7516513   4.7727958   4.8134406   4.8281140   4.8405916   4.8594400
          445         446         447         448         449         450
    1   4.8919358   4.9555463   4.9785402   4.9808597   4.9938766   5.0401067
          451         452         453         454         455         456
    1   5.0788194   5.1563226   5.1641839   5.1950936   5.1972465   5.2024293
          457         458         459         460         461         462
    1   5.2033651   5.2219326   5.2508325   5.2562296   5.3662048   5.3927457
          463         464         465         466         467         468
    1   5.4223229   5.4412294   5.5113286   5.5302645   5.5623351   5.5933257
          469         470         471         472         473         474
    1   5.6776989   5.7311222   5.7920629   5.8268697   5.8282804   5.8623870
          475         476         477         478         479         480
    1   5.9306710   6.0352348   6.0913061   6.0965213   6.1729116   6.5158770
          481         482         483         484         485         486
    1  22.9592917  23.5458138  23.6594914  23.7566514  23.7844860  23.8325112
          487         488         489         490         491         492
    1  23.8631659  23.9643079  23.9801878  24.0028964  24.0171189  24.2564621
          493         494
    1  24.4921142  24.9132165
 Final Beta MO Eigenvalues
            1           2           3           4           5           6
    1 -11.2433661 -11.2433595 -11.2423535 -11.2423326 -11.2297964 -11.2298029
            7           8           9          10          11          12
    1 -11.2333817 -11.2333641 -11.2331686 -11.2331499 -11.2322169 -11.2322131
           13          14          15          16          17          18
    1 -11.2310963 -11.2310947  -1.1770429  -1.1470443  -1.0722362  -1.0458370
           19          20          21          22          23          24
    1  -1.0159151  -1.0107006  -0.9300655  -0.8802970  -0.8331802  -0.8086470
           25          26          27          28          29          30
    1  -0.8107695  -0.7423882  -0.7062458  -0.6836110  -0.6408791  -0.6380527
           31          32          33          34          35          36
    1  -0.6221551  -0.6212502  -0.5842223  -0.5707857  -0.5699919  -0.5528423
           37          38          39          40          41          42
    1  -0.5194265  -0.5285079  -0.4996702  -0.4902606  -0.4795463  -0.4729871
           43          44          45          46          47          48
    1  -0.3742324  -0.3529181  -0.3228113  -0.3208488   0.0411349   0.1333918
           49          50          51          52          53          54
    1   0.1309736   0.1450490   0.1597172   0.1563373   0.1586893   0.1612771
           55          56          57          58          59          60
    1   0.1786442   0.1823763   0.2169904   0.1988340   0.2019092   0.2096809
           61          62          63          64          65          66
    1   0.2379853   0.2443304   0.2550244   0.2603443   0.2803272   0.2849798
           67          68          69          70          71          72
    1   0.3027037   0.3082775   0.3069818   0.3328667   0.3309955   0.3351499
           73          74          75          76          77          78
    1   0.3415310   0.3449812   0.3700480   0.3823260   0.3816299   0.3846015
           79          80          81          82          83          84
    1   0.3929753   0.4014469   0.4217473   0.4300629   0.4374663   0.4323430
           85          86          87          88          89          90
    1   0.4428208   0.4469689   0.4561880   0.4668843   0.4888127   0.4710557
           91          92          93          94          95          96
    1   0.4759349   0.4890451   0.4922428   0.5085333   0.5131977   0.5104511
           97          98          99         100         101         102
    1   0.5165814   0.5214817   0.5252947   0.5322345   0.5550727   0.5623029
          103         104         105         106         107         108
    1   0.5739991   0.5802606   0.5777974   0.5797379   0.5900461   0.6115805
          109         110         111         112         113         114
    1   0.6128906   0.6177492   0.6279487   0.6265089   0.6445891   0.6523085
          115         116         117         118         119         120
    1   0.6527597   0.6593430   0.6667066   0.6682822   0.6815923   0.6758921
          121         122         123         124         125         126
    1   0.6921471   0.7026702   0.7217279   0.7236398   0.7734025   0.7760559
          127         128         129         130         131         132
    1   0.7942638   0.7982523   0.8012914   0.8117096   0.8335617   0.8483384
          133         134         135         136         137         138
    1   0.8576369   0.8594700   0.8721916   0.8886297   0.8927230   0.9109001
          139         140         141         142         143         144
    1   0.9178847   0.9282999   0.9241805   0.9357853   0.9354173   0.9426693
          145         146         147         148         149         150
    1   0.9391789   0.9577014   0.9422075   0.9596628   0.9716400   0.9757683
          151         152         153         154         155         156
    1   0.9916940   1.0189024   1.0267642   1.0371730   1.0473971   1.0570919
          157         158         159         160         161         162
    1   1.0630874   1.0777359   1.0953001   1.1096876   1.1094632   1.1206876
          163         164         165         166         167         168
    1   1.1247924   1.1379446   1.1661865   1.1796957   1.1936811   1.1996469
          169         170         171         172         173         174
    1   1.2066856   1.2110168   1.2162454   1.2303507   1.3126787   1.3128737
          175         176         177         178         179         180
    1   1.3260569   1.3285551   1.3493886   1.3644247   1.3937317   1.3883227
          181         182         183         184         185         186
    1   1.4113523   1.4206442   1.4230028   1.4386369   1.4445241   1.4544801
          187         188         189         190         191         192
    1   1.4677520   1.4657889   1.4723999   1.4741903   1.5033474   1.5201364
          193         194         195         196         197         198
    1   1.5167544   1.5233179   1.5178861   1.5404019   1.5736679   1.6146281
          199         200         201         202         203         204
    1   1.6176775   1.6212353   1.6564804   1.6815948   1.6878519   1.7044414
          205         206         207         208         209         210
    1   1.7023118   1.7078145   1.7325254   1.7459964   1.7465498   1.7593898
          211         212         213         214         215         216
    1   1.7671139   1.7753469   1.8017426   1.8031821   1.7957268   1.8114459
          217         218         219         220         221         222
    1   1.8385261   1.8412026   1.8516535   1.8569539   1.8558620   1.8783116
          223         224         225         226         227         228
    1   1.9193816   1.9344068   1.9293809   1.9540774   1.9734272   1.9612606
          229         230         231         232         233         234
    1   1.9819113   1.9832631   1.9895173   1.9923899   2.0057469   2.0166100
          235         236         237         238         239         240
    1   2.0284504   2.0345933   2.0633099   2.1011529   2.1195990   2.1298787
          241         242         243         244         245         246
    1   2.1486487   2.1632081   2.1863754   2.1914134   2.2061777   2.2176806
          247         248         249         250         251         252
    1   2.2221813   2.2707387   2.2863060   2.2847125   2.2895798   2.2940481
          253         254         255         256         257         258
    1   2.3377931   2.3419688   2.3513759   2.4183254   2.4382883   2.4438501
          259         260         261         262         263         264
    1   2.4632730   2.4729205   2.4795542   2.4812775   2.4915535   2.5112944
          265         266         267         268         269         270
    1   2.5211357   2.5318096   2.5433169   2.5648083   2.5753737   2.6086144
          271         272         273         274         275         276
    1   2.6112192   2.6219295   2.6305191   2.6565576   2.6618310   2.7317012
          277         278         279         280         281         282
    1   2.7350586   2.7357712   2.7501645   2.7632181   2.7983313   2.8117821
          283         284         285         286         287         288
    1   2.8217009   2.8290319   2.8529986   2.8606281   2.8887799   2.8914478
          289         290         291         292         293         294
    1   2.9242695   2.9405261   2.9448716   2.9507701   2.9603355   2.9753641
          295         296         297         298         299         300
    1   2.9752536   2.9786656   3.0040358   3.0209952   3.0279692   3.0298786
          301         302         303         304         305         306
    1   3.0321427   3.0603231   3.0782648   3.0754440   3.0856300   3.0837480
          307         308         309         310         311         312
    1   3.1028820   3.1109904   3.1088532   3.1151348   3.1293549   3.1363066
          313         314         315         316         317         318
    1   3.1445005   3.1651417   3.1692420   3.1888033   3.1965047   3.1953448
          319         320         321         322         323         324
    1   3.2039188   3.2101011   3.2164463   3.2274783   3.2411658   3.2558710
          325         326         327         328         329         330
    1   3.2629601   3.2650155   3.2870089   3.2870150   3.2917271   3.3102229
          331         332         333         334         335         336
    1   3.3167019   3.3147605   3.3389655   3.3583881   3.3609404   3.3724140
          337         338         339         340         341         342
    1   3.3769003   3.3856655   3.3964783   3.3952586   3.4051109   3.4466652
          343         344         345         346         347         348
    1   3.4568286   3.4623090   3.4682758   3.4897624   3.4903039   3.4942888
          349         350         351         352         353         354
    1   3.5049992   3.5157624   3.5247360   3.5275968   3.5443531   3.5639557
          355         356         357         358         359         360
    1   3.5813835   3.5937850   3.5925626   3.6163845   3.6108945   3.6239361
          361         362         363         364         365         366
    1   3.6398617   3.6411856   3.6580375   3.6504656   3.6555475   3.6673299
          367         368         369         370         371         372
    1   3.6749875   3.6876863   3.6887288   3.7020044   3.7454713   3.7538358
          373         374         375         376         377         378
    1   3.7611236   3.7642135   3.7695428   3.7716435   3.7959475   3.8190350
          379         380         381         382         383         384
    1   3.8285956   3.8287218   3.8360204   3.8378446   3.8399382   3.8557015
          385         386         387         388         389         390
    1   3.8678345   3.8871022   3.8897965   3.8990379   3.9035481   3.9041318
          391         392         393         394         395         396
    1   3.9162233   3.9707999   3.9708952   3.9718399   3.9904172   3.9925386
          397         398         399         400         401         402
    1   4.0356502   4.0741461   4.0809444   4.1006449   4.1372025   4.1681468
          403         404         405         406         407         408
    1   4.2027634   4.2050864   4.2170421   4.2254071   4.2444567   4.2482079
          409         410         411         412         413         414
    1   4.2793981   4.3088433   4.3103156   4.3147850   4.3491226   4.3560242
          415         416         417         418         419         420
    1   4.3639319   4.3897245   4.4458220   4.4478342   4.4540977   4.4565779
          421         422         423         424         425         426
    1   4.4532075   4.4980253   4.5269016   4.5298163   4.5354571   4.5433756
          427         428         429         430         431         432
    1   4.5453179   4.5585020   4.5612054   4.5909165   4.5967350   4.6054591
          433         434         435         436         437         438
    1   4.6523328   4.6783009   4.6997092   4.7203060   4.7222519   4.7386706
          439         440         441         442         443         444
    1   4.7577807   4.7738094   4.8168065   4.8307534   4.8489457   4.8611527
          445         446         447         448         449         450
    1   4.8958857   4.9588650   4.9825306   4.9833831   4.9965888   5.0450561
          451         452         453         454         455         456
    1   5.0804007   5.1585569   5.1670128   5.1964528   5.2034078   5.2040031
          457         458         459         460         461         462
    1   5.2082532   5.2235429   5.2530859   5.2576825   5.3678902   5.3957082
          463         464         465         466         467         468
    1   5.4246629   5.4444245   5.5126893   5.5316487   5.5666820   5.5944075
          469         470         471         472         473         474
    1   5.6786342   5.7329051   5.7942585   5.8288842   5.8302187   5.8640153
          475         476         477         478         479         480
    1   5.9322579   6.0371253   6.0945636   6.0990960   6.1758559   6.5177343
          481         482         483         484         485         486
    1  22.9606998  23.5462941  23.6613636  23.7574437  23.7903884  23.8344085
          487         488         489         490         491         492
    1  23.8637538  23.9648863  23.9809328  24.0062057  24.0182372  24.2605635
          493         494
    1  24.4926450  24.9138894
 SCF time:   CPU 1890.73s  wall 1903.00s 
<S^2> =          2.000000000
 SCF   energy in the final basis set =     -536.1119340198
 Total energy in the final basis set =     -536.1119340198
  
     ##========================================##
     ||                                        ||
     ||              R A S M A N 2             ||
     ||________________________________________||
     ||                                        ||
     ||  Author:                               ||
     ||                                        ||
     ||        David Casanova (2010)           ||
     ||                                        ||
     ##========================================##
  
Setting single-point xc-functionals (if necessary)

  ***************************************************
  *  RAS-CI Dimensions:                             *
  *                                                 *
  *  Active Elec.:  10 ( 6, 4)   Active Orb.:  12   *
  *  Doubly Occ. :  42           Doubly Vir.: 440   *
  *  Frozen Occ. :   0           Frozen Vir.:   0   *
  *                                                 *
  *  Total CI configurations:    457380             * 
  *    Active configurations:    457380             * 
  *      Hole configurations:         0             * 
  *  Particle configurations:         0             * 
  *                                                 *
  *   Requested states:       20                    *
  *  Spin multiplicity: Any multiplicity            *
  *                                                 *
  ***************************************************
-----------------------------------------
    Memory requirements of RASCI

 Each CI-vector requires      3.49 MiB 
 Max. subspace vectors           3000      

 Reduced Lists                0.01 MiB 
 Excitation Lists             0.01 MiB 
 Excitation Lists Sign        0.01 MiB 
 CI-space (Max)           10607.08 MiB 
 Integrals                  521.42 MiB 
 Memory required (Max)    10607.11 MiB 
 Memory available          7811.55 MiB 

 Q-Chem warning in module rasman2/ras_mem_check.C, line 162:

 Static memory may be insufficient to store the subspace vectors


    Disk requirements of RASCI

 Fock matrix                  3.72 MiB 
 2-electron integrals         0.32 MiB 
 CI-space                 20937.19 MiB 
 Disk required            20941.23 MiB 
-----------------------------------------
  
RAS1 HF-like energy:           -522.9971018214
 Computing integrals
 Computing J and K matrices
 Computing addressing
 Making amplitude guesses
 
Direct CI diagonalization
 ---------------------------------------------------
 Iter    Rts Conv    Rts Left    Ttl Dev     Max Dev
 ---------------------------------------------------
   1         0          20      0.001656    0.000172
   2         0          20      0.000987    0.000212
   3         0          20      0.001067    0.000372
   4         1          19      0.001271    0.000255
   5         4          16      0.000704    0.000123
   6         4          16      0.000768    0.000202
   7         5          15      0.000969    0.000348
   8         6          14      0.000414    0.000142
   9         8          12      0.000435    0.000235
  10         8          12      0.000357    0.000141
  11        10          10      0.000515    0.000274
  12        12           8      0.000391    0.000159
  13        13           7      0.000301    0.000096
  14        13           7      0.000272    0.000071
  15        10          10      0.000450    0.000171
  16        11           9      0.000704    0.000374
  17        12           8      0.000597    0.000211
  18        14           6      0.000337    0.000136
  19        14           6      0.000196    0.000074
  20        15           5      0.000329    0.000226
  21        15           5      0.000224    0.000166
  22        15           5      0.000176    0.000139
  23        16           4      0.000134    0.000109
  24        16           4      0.000098    0.000078
  25        16           4      0.000068    0.000052
  26        17           3      0.000047    0.000034
  27        17           3      0.000034    0.000023
  28        17           3      0.000026    0.000016
  29        18           2      0.000020    0.000011
  30        18           2      0.000016    0.000008
  31        19           1      0.000014    0.000006
  32        19           1      0.000013    0.000005
  33        19           1      0.000011    0.000003
  34        19           1      0.000010    0.000002
  35        19           1      0.000009    0.000002
  36        19           1      0.000009    0.000001
  37        20           0      0.000009    0.000001    Roots Converged
 ---------------------------------------------------
   
**************************************************
 RAS-CI total energy for state   1:   -536.114494386297
  Excitation energy (eV) =  0.000000000000
  State symmetry: A1  (C1       )
  <S^2>      :  2.0000
  Dipole Moment:    0.0000 X     0.0000 Y     0.0002 Z
 NATURAL OCCUPATION NUMBERS (higher than 1.0E-05)
            1           2           3           4           5           6
    1   2.0000000   2.0000000   2.0000000   2.0000000   2.0000000   2.0000000
            7           8           9          10          11          12
    1   2.0000000   2.0000000   2.0000000   2.0000000   2.0000000   2.0000000
           13          14          15          16          17          18
    1   2.0000000   2.0000000   2.0000000   2.0000000   2.0000000   2.0000000
           19          20          21          22          23          24
    1   2.0000000   2.0000000   2.0000000   2.0000000   2.0000000   2.0000000
           25          26          27          28          29          30
    1   2.0000000   2.0000000   2.0000000   2.0000000   2.0000000   2.0000000
           31          32          33          34          35          36
    1   2.0000000   2.0000000   2.0000000   2.0000000   2.0000000   2.0000000
           37          38          39          40          41          42
    1   2.0000000   2.0000000   2.0000000   2.0000000   2.0000000   2.0000000
           43          44          45          46          47          48
    1   1.9999485   1.9999435   1.9998922   1.9917020   1.0004767   0.9995227
           49          50          51          52          53          54
    1   0.0082897   0.0000950   0.0000507   0.0000365   0.0000250   0.0000173

 Head-Gordon Nu:    2.02
 Head-Gordon Nu_nl: 2.00

  Amplitudes : 
  
 | HOLE  | ALPHA        | BETA         | PART  |    AMPLITUDE 
--------------------------------------------------
 |       | 111111000000 | 111100000000 |       |     9.9747782954817E-01
--------------------------------------------------
*** Contributions RASCI wfn    Active: 100.00
                                 Hole:   0.00
                                 Part:   0.00

      Mulliken population analysis 
 ---------------------------------------------------
   Atom    Charge (a.u.)   Spin (a.u.)  
 ---------------------------------------------------
   1  C    0.186126        0.032892 
   2  C   -0.201502        0.074697 
   3  H    0.123851        0.000412 
   4  C   -0.124346        0.037913 
   5  H    0.123032        0.000276 
   6  C   -0.124315        0.037914 
   7  H    0.123037        0.000277 
   8  C   -0.201349        0.074695 
   9  H    0.123876        0.000412 
  10  C    0.186184        0.032894 
  11  C   -0.340612        0.703578 
  12  H    0.126356        0.004038 
  13  C   -0.340890        0.703581 
  14  H    0.126336        0.004035 
  15  C    0.186142        0.032894 
  16  C   -0.201633        0.074698 
  17  H    0.123867        0.000412 
  18  C   -0.124196        0.037913 
  19  H    0.123081        0.000277 
  20  C   -0.124428        0.037913 
  21  H    0.123065        0.000276 
  22  C   -0.201475        0.074699 
  23  H    0.123868        0.000412 
  24  C    0.185926        0.032892 
 ---------------------------------------------------
   Sum:    0.000000        2.000000 
 ---------------------------------------------------
 
  
 NATURAL OCCUPATION NUMBERS (higher than 1.0E-05)
            1           2           3           4           5           6
    1   2.0000000   2.0000000   2.0000000   2.0000000   2.0000000   2.0000000
            7           8           9          10          11          12
    1   2.0000000   2.0000000   2.0000000   2.0000000   2.0000000   2.0000000
           13          14          15          16          17          18
    1   2.0000000   2.0000000   2.0000000   2.0000000   2.0000000   2.0000000
           19          20          21          22          23          24
    1   2.0000000   2.0000000   2.0000000   2.0000000   2.0000000   2.0000000
           25          26          27          28          29          30
    1   2.0000000   2.0000000   2.0000000   2.0000000   2.0000000   2.0000000
           31          32          33          34          35          36
    1   2.0000000   2.0000000   2.0000000   2.0000000   2.0000000   2.0000000
           37          38          39          40          41          42
    1   2.0000000   2.0000000   2.0000000   2.0000000   2.0000000   2.0000000
           43          44          45          46          47          48
    1   1.9999485   1.9999435   1.9998922   1.9917020   1.0004767   0.9995227
           49          50          51          52          53          54
    1   0.0082897   0.0000950   0.0000507   0.0000365   0.0000250   0.0000173
  
*** Unpaired Electrons
 Yamaguchi Nd:         2.03
 Head-Gordon Nu:       2.02
 Head-Gordon Nu_nl:    2.00
  
**************************************************
 RAS-CI total energy for state   2:   -535.945923330531
  Excitation energy (eV) =  4.587051809308
  State symmetry: A1  (C1       )
  <S^2>      :  2.0000
  Dipole Moment:    0.0003 X    -0.0000 Y     0.0005 Z
  Trans. Moment:    0.0000 X    -0.0000 Y    -0.0000 Z
  Strength   :  0.000000
  Natural transition orbitals ( 1 -> 2 ):
   e-/hole pair  1 alpha:  ampl =  0.994746 ( 99.0%)   [12 : 13]
   e-/hole pair  2 alpha:  ampl =  0.003409 (  0.0%)   [11 : 14]
   e-/hole pair  1 beta :  ampl =  0.023087 (  0.1%)   [12 : 13]
   e-/hole pair  2 beta :  ampl =  0.006450 (  0.0%)   [11 : 14]
   Sum of square amplitudes: 0.99

 NATURAL OCCUPATION NUMBERS (higher than 1.0E-05)
            1           2           3           4           5           6
    1   2.0000000   2.0000000   2.0000000   2.0000000   2.0000000   2.0000000
            7           8           9          10          11          12
    1   2.0000000   2.0000000   2.0000000   2.0000000   2.0000000   2.0000000
           13          14          15          16          17          18
    1   2.0000000   2.0000000   2.0000000   2.0000000   2.0000000   2.0000000
           19          20          21          22          23          24
    1   2.0000000   2.0000000   2.0000000   2.0000000   2.0000000   2.0000000
           25          26          27          28          29          30
    1   2.0000000   2.0000000   2.0000000   2.0000000   2.0000000   2.0000000
           31          32          33          34          35          36
    1   2.0000000   2.0000000   2.0000000   2.0000000   2.0000000   2.0000000
           37          38          39          40          41          42
    1   2.0000000   2.0000000   2.0000000   2.0000000   2.0000000   2.0000000
           43          44          45          46          47          48
    1   1.9999014   1.9998974   1.9995781   1.9930492   1.0033987   0.9962781
           49          50          51          52          53          54
    1   0.0073585   0.0003812   0.0000715   0.0000399   0.0000289   0.0000171

 Head-Gordon Nu:    2.01
 Head-Gordon Nu_nl: 2.00

  Amplitudes : 
  
 | HOLE  | ALPHA        | BETA         | PART  |    AMPLITUDE 
--------------------------------------------------
 |       | 111110100000 | 111100000000 |       |     9.9714959154867E-01
--------------------------------------------------
*** Contributions RASCI wfn    Active: 100.00
                                 Hole:   0.00
                                 Part:   0.00

      Mulliken population analysis 
 ---------------------------------------------------
   Atom    Charge (a.u.)   Spin (a.u.)  
 ---------------------------------------------------
   1  C    0.101374        0.117903 
   2  C   -0.174892        0.048050 
   3  H    0.124062        0.000218 
   4  C   -0.234116        0.147771 
   5  H    0.121850        0.001459 
   6  C   -0.234084        0.147770 
   7  H    0.121852        0.001460 
   8  C   -0.174733        0.048048 
   9  H    0.124084        0.000218 
  10  C    0.101418        0.117904 
  11  C   -0.004582        0.367458 
  12  H    0.128070        0.001765 
  13  C   -0.004872        0.367457 
  14  H    0.128078        0.001763 
  15  C    0.101387        0.117893 
  16  C   -0.175015        0.048048 
  17  H    0.124075        0.000218 
  18  C   -0.233952        0.147759 
  19  H    0.121896        0.001460 
  20  C   -0.234184        0.147759 
  21  H    0.121884        0.001459 
  22  C   -0.174864        0.048050 
  23  H    0.124080        0.000218 
  24  C    0.101186        0.117893 
 ---------------------------------------------------
   Sum:    0.000000        2.000000 
 ---------------------------------------------------
 
  
 NATURAL OCCUPATION NUMBERS (higher than 1.0E-05)
            1           2           3           4           5           6
    1   2.0000000   2.0000000   2.0000000   2.0000000   2.0000000   2.0000000
            7           8           9          10          11          12
    1   2.0000000   2.0000000   2.0000000   2.0000000   2.0000000   2.0000000
           13          14          15          16          17          18
    1   2.0000000   2.0000000   2.0000000   2.0000000   2.0000000   2.0000000
           19          20          21          22          23          24
    1   2.0000000   2.0000000   2.0000000   2.0000000   2.0000000   2.0000000
           25          26          27          28          29          30
    1   2.0000000   2.0000000   2.0000000   2.0000000   2.0000000   2.0000000
           31          32          33          34          35          36
    1   2.0000000   2.0000000   2.0000000   2.0000000   2.0000000   2.0000000
           37          38          39          40          41          42
    1   2.0000000   2.0000000   2.0000000   2.0000000   2.0000000   2.0000000
           43          44          45          46          47          48
    1   1.9999014   1.9998974   1.9995781   1.9930492   1.0033987   0.9962781
           49          50          51          52          53          54
    1   0.0073585   0.0003812   0.0000715   0.0000399   0.0000289   0.0000171
  
*** Unpaired Electrons
 Yamaguchi Nd:         2.03
 Head-Gordon Nu:       2.01
 Head-Gordon Nu_nl:    2.00
  
**************************************************
 RAS-CI total energy for state   3:   -535.938196291907
  Excitation energy (eV) =  4.797315228130
  State symmetry: A1  (C1       )
  <S^2>      :  2.0000
  Dipole Moment:    0.0003 X     0.0000 Y     0.0000 Z
  Trans. Moment:    0.0000 X     0.0000 Y     0.0000 Z
  Strength   :  0.000000
  Natural transition orbitals ( 1 -> 3 ):
   e-/hole pair  1 alpha:  ampl =  0.023090 (  0.1%)   [12 : 13]
   e-/hole pair  2 alpha:  ampl =  0.011076 (  0.0%)   [11 : 14]
   e-/hole pair  1 beta :  ampl =  0.994866 ( 99.0%)   [12 : 13]
   e-/hole pair  2 beta :  ampl =  0.003379 (  0.0%)   [11 : 14]
   Sum of square amplitudes: 0.99

 NATURAL OCCUPATION NUMBERS (higher than 1.0E-05)
            1           2           3           4           5           6
    1   2.0000000   2.0000000   2.0000000   2.0000000   2.0000000   2.0000000
            7           8           9          10          11          12
    1   2.0000000   2.0000000   2.0000000   2.0000000   2.0000000   2.0000000
           13          14          15          16          17          18
    1   2.0000000   2.0000000   2.0000000   2.0000000   2.0000000   2.0000000
           19          20          21          22          23          24
    1   2.0000000   2.0000000   2.0000000   2.0000000   2.0000000   2.0000000
           25          26          27          28          29          30
    1   2.0000000   2.0000000   2.0000000   2.0000000   2.0000000   2.0000000
           31          32          33          34          35          36
    1   2.0000000   2.0000000   2.0000000   2.0000000   2.0000000   2.0000000
           37          38          39          40          41          42
    1   2.0000000   2.0000000   2.0000000   2.0000000   2.0000000   2.0000000
           43          44          45          46          47          48
    1   1.9999315   1.9999124   1.9996254   1.9931547   1.0035818   0.9967298
           49          50          51          52          53          54
    1   0.0064797   0.0003873   0.0000984   0.0000419   0.0000335   0.0000234

 Head-Gordon Nu:    2.01
 Head-Gordon Nu_nl: 2.00

  Amplitudes : 
  
 | HOLE  | ALPHA        | BETA         | PART  |    AMPLITUDE 
--------------------------------------------------
 |       | 111111000000 | 111010000000 |       |     9.9727239793490E-01
--------------------------------------------------
*** Contributions RASCI wfn    Active: 100.00
                                 Hole:   0.00
                                 Part:   0.00

      Mulliken population analysis 
 ---------------------------------------------------
   Atom    Charge (a.u.)   Spin (a.u.)  
 ---------------------------------------------------
   1  C    0.282989        0.129512 
   2  C   -0.229862        0.046371 
   3  H    0.123663        0.000203 
   4  C   -0.017890        0.144357 
   5  H    0.123551        0.000796 
   6  C   -0.017862        0.144357 
   7  H    0.123561        0.000796 
   8  C   -0.229715        0.046370 
   9  H    0.123692        0.000203 
  10  C    0.283058        0.129515 
  11  C   -0.688969        0.355216 
  12  H    0.124101        0.002274 
  13  C   -0.689241        0.355216 
  14  H    0.124058        0.002271 
  15  C    0.283027        0.129528 
  16  C   -0.229998        0.046372 
  17  H    0.123683        0.000203 
  18  C   -0.017726        0.144373 
  19  H    0.123604        0.000796 
  20  C   -0.017956        0.144373 
  21  H    0.123584        0.000796 
  22  C   -0.229834        0.046373 
  23  H    0.123680        0.000203 
  24  C    0.282802        0.129527 
 ---------------------------------------------------
   Sum:    0.000000        2.000000 
 ---------------------------------------------------
 
  
 NATURAL OCCUPATION NUMBERS (higher than 1.0E-05)
            1           2           3           4           5           6
    1   2.0000000   2.0000000   2.0000000   2.0000000   2.0000000   2.0000000
            7           8           9          10          11          12
    1   2.0000000   2.0000000   2.0000000   2.0000000   2.0000000   2.0000000
           13          14          15          16          17          18
    1   2.0000000   2.0000000   2.0000000   2.0000000   2.0000000   2.0000000
           19          20          21          22          23          24
    1   2.0000000   2.0000000   2.0000000   2.0000000   2.0000000   2.0000000
           25          26          27          28          29          30
    1   2.0000000   2.0000000   2.0000000   2.0000000   2.0000000   2.0000000
           31          32          33          34          35          36
    1   2.0000000   2.0000000   2.0000000   2.0000000   2.0000000   2.0000000
           37          38          39          40          41          42
    1   2.0000000   2.0000000   2.0000000   2.0000000   2.0000000   2.0000000
           43          44          45          46          47          48
    1   1.9999315   1.9999124   1.9996254   1.9931547   1.0035818   0.9967298
           49          50          51          52          53          54
    1   0.0064797   0.0003873   0.0000984   0.0000419   0.0000335   0.0000234
  
*** Unpaired Electrons
 Yamaguchi Nd:         2.03
 Head-Gordon Nu:       2.01
 Head-Gordon Nu_nl:    2.00
  
**************************************************
 RAS-CI total energy for state   4:   -535.904209745157
  Excitation energy (eV) =  5.722136218623
  State symmetry: A1  (C1       )
  <S^2>      :  2.0000
  Dipole Moment:    0.0004 X    -0.0000 Y     0.0002 Z
  Trans. Moment:    0.0000 X    -0.0000 Y     0.0000 Z
  Strength   :  0.000000
  Natural transition orbitals ( 1 -> 4 ):
   e-/hole pair  1 alpha:  ampl =  0.034791 (  0.1%)   [12 : 13]
   e-/hole pair  2 alpha:  ampl =  0.021513 (  0.0%)   [11 : 14]
   e-/hole pair  1 beta :  ampl =  0.034788 (  0.1%)   [12 : 13]
   e-/hole pair  2 beta :  ampl =  0.021513 (  0.0%)   [11 : 14]
   Sum of square amplitudes: 0.00

 NATURAL OCCUPATION NUMBERS (higher than 1.0E-05)
            1           2           3           4           5           6
    1   2.0000000   2.0000000   2.0000000   2.0000000   2.0000000   2.0000000
            7           8           9          10          11          12
    1   2.0000000   2.0000000   2.0000000   2.0000000   2.0000000   2.0000000
           13          14          15          16          17          18
    1   2.0000000   2.0000000   2.0000000   2.0000000   2.0000000   2.0000000
           19          20          21          22          23          24
    1   2.0000000   2.0000000   2.0000000   2.0000000   2.0000000   2.0000000
           25          26          27          28          29          30
    1   2.0000000   2.0000000   2.0000000   2.0000000   2.0000000   2.0000000
           31          32          33          34          35          36
    1   2.0000000   2.0000000   2.0000000   2.0000000   2.0000000   2.0000000
           37          38          39          40          41          42
    1   2.0000000   2.0000000   2.0000000   2.0000000   2.0000000   2.0000000
           43          44          45          46          47          48
    1   1.9999493   1.9999425   1.9997694   1.7290428   1.0003424   0.9996534
           49          50          51          52          53          54
    1   0.2709676   0.0002172   0.0000456   0.0000278   0.0000225   0.0000194

 Head-Gordon Nu:    2.54
 Head-Gordon Nu_nl: 2.44

  Amplitudes : 
  
 | HOLE  | ALPHA        | BETA         | PART  |    AMPLITUDE 
--------------------------------------------------
 |       | 111110100000 | 111010000000 |       |     9.2914594131225E-01
 |       | 111101100000 | 111001000000 |       |    -3.6649779913346E-01
--------------------------------------------------
*** Contributions RASCI wfn    Active: 100.00
                                 Hole:   0.00
                                 Part:   0.00

      Mulliken population analysis 
 ---------------------------------------------------
   Atom    Charge (a.u.)   Spin (a.u.)  
 ---------------------------------------------------
   1  C    0.198297        0.214427 
   2  C   -0.203826        0.019752 
   3  H    0.123849        0.000010 
   4  C   -0.128286        0.254094 
   5  H    0.122352        0.001978 
   6  C   -0.128256        0.254093 
   7  H    0.122358        0.001979 
   8  C   -0.203674        0.019752 
   9  H    0.123877        0.000010 
  10  C    0.198349        0.214428 
  11  C   -0.351160        0.019458 
  12  H    0.126411        0.000007 
  13  C   -0.351443        0.019459 
  14  H    0.126398        0.000006 
  15  C    0.198327        0.214431 
  16  C   -0.203956        0.019752 
  17  H    0.123868        0.000010 
  18  C   -0.128115        0.254101 
  19  H    0.122402        0.001979 
  20  C   -0.128345        0.254100 
  21  H    0.122386        0.001978 
  22  C   -0.203798        0.019753 
  23  H    0.123867        0.000010 
  24  C    0.198117        0.214431 
 ---------------------------------------------------
   Sum:    0.000000        2.000000 
 ---------------------------------------------------
 
  
 NATURAL OCCUPATION NUMBERS (higher than 1.0E-05)
            1           2           3           4           5           6
    1   2.0000000   2.0000000   2.0000000   2.0000000   2.0000000   2.0000000
            7           8           9          10          11          12
    1   2.0000000   2.0000000   2.0000000   2.0000000   2.0000000   2.0000000
           13          14          15          16          17          18
    1   2.0000000   2.0000000   2.0000000   2.0000000   2.0000000   2.0000000
           19          20          21          22          23          24
    1   2.0000000   2.0000000   2.0000000   2.0000000   2.0000000   2.0000000
           25          26          27          28          29          30
    1   2.0000000   2.0000000   2.0000000   2.0000000   2.0000000   2.0000000
           31          32          33          34          35          36
    1   2.0000000   2.0000000   2.0000000   2.0000000   2.0000000   2.0000000
           37          38          39          40          41          42
    1   2.0000000   2.0000000   2.0000000   2.0000000   2.0000000   2.0000000
           43          44          45          46          47          48
    1   1.9999493   1.9999425   1.9997694   1.7290428   1.0003424   0.9996534
           49          50          51          52          53          54
    1   0.2709676   0.0002172   0.0000456   0.0000278   0.0000225   0.0000194
  
*** Unpaired Electrons
 Yamaguchi Nd:         2.94
 Head-Gordon Nu:       2.54
 Head-Gordon Nu_nl:    2.44
  
**************************************************
 RAS-CI total energy for state   5:   -535.874716309892
  Excitation energy (eV) =  6.524693425021
  State symmetry: A1  (C1       )
  <S^2>      :  2.0000
  Dipole Moment:    0.0005 X     0.0065 Y    -0.0001 Z
  Trans. Moment:    0.0004 X     0.0001 Y     0.0001 Z
  Strength   :  0.000000
  Natural transition orbitals ( 1 -> 5 ):
   e-/hole pair  1 alpha:  ampl =  0.994648 ( 98.9%)   [12 : 13]
   e-/hole pair  2 alpha:  ampl =  0.000257 (  0.0%)   [11 : 14]
   e-/hole pair  1 beta :  ampl =  0.018983 (  0.0%)   [12 : 13]
   e-/hole pair  2 beta :  ampl =  0.001963 (  0.0%)   [11 : 14]
   Sum of square amplitudes: 0.99

 NATURAL OCCUPATION NUMBERS (higher than 1.0E-05)
            1           2           3           4           5           6
    1   2.0000000   2.0000000   2.0000000   2.0000000   2.0000000   2.0000000
            7           8           9          10          11          12
    1   2.0000000   2.0000000   2.0000000   2.0000000   2.0000000   2.0000000
           13          14          15          16          17          18
    1   2.0000000   2.0000000   2.0000000   2.0000000   2.0000000   2.0000000
           19          20          21          22          23          24
    1   2.0000000   2.0000000   2.0000000   2.0000000   2.0000000   2.0000000
           25          26          27          28          29          30
    1   2.0000000   2.0000000   2.0000000   2.0000000   2.0000000   2.0000000
           31          32          33          34          35          36
    1   2.0000000   2.0000000   2.0000000   2.0000000   2.0000000   2.0000000
           37          38          39          40          41          42
    1   2.0000000   2.0000000   2.0000000   2.0000000   2.0000000   2.0000000
           43          44          45          46          47          48
    1   1.9998808   1.9998755   1.9994030   1.9834625   0.9997184   0.9910214
           49          50          51          52          53          54
    1   0.0143989   0.0119736   0.0001387   0.0000700   0.0000347   0.0000225

 Head-Gordon Nu:    2.03
 Head-Gordon Nu_nl: 2.00

  Amplitudes : 
  
 | HOLE  | ALPHA        | BETA         | PART  |    AMPLITUDE 
--------------------------------------------------
 |       | 111110010000 | 111100000000 |       |     9.6783158262806E-01
 |       | 111110001000 | 111100000000 |       |     1.4057500338077E-01
 |       | 111110000010 | 111100000000 |       |     1.6846838212282E-01
--------------------------------------------------
*** Contributions RASCI wfn    Active: 100.00
                                 Hole:   0.00
                                 Part:   0.00

      Mulliken population analysis 
 ---------------------------------------------------
   Atom    Charge (a.u.)   Spin (a.u.)  
 ---------------------------------------------------
   1  C    0.628077       -0.408694 
   2  C   -0.024801       -0.102059 
   3  H   -0.083988        0.208253 
   4  C   -0.106674        0.020307 
   5  H    0.130994       -0.007693 
   6  C   -0.106650        0.020318 
   7  H    0.131089       -0.007776 
   8  C   -0.023972       -0.102766 
   9  H   -0.084662        0.208991 
  10  C    0.627753       -0.408392 
  11  C   -0.086103        0.448707 
  12  H   -1.000781        1.130809 
  13  C   -0.084419        0.446630 
  14  H   -1.002751        1.132954 
  15  C    0.628230       -0.408907 
  16  C   -0.024712       -0.102307 
  17  H   -0.084772        0.209093 
  18  C   -0.106531        0.020323 
  19  H    0.131166       -0.007811 
  20  C   -0.106767        0.020321 
  21  H    0.131048       -0.007714 
  22  C   -0.025447       -0.101385 
  23  H   -0.083774        0.208056 
  24  C    0.628445       -0.409259 
 ---------------------------------------------------
   Sum:   -0.000000        2.000000 
 ---------------------------------------------------
 
  
 NATURAL OCCUPATION NUMBERS (higher than 1.0E-05)
            1           2           3           4           5           6
    1   2.0000000   2.0000000   2.0000000   2.0000000   2.0000000   2.0000000
            7           8           9          10          11          12
    1   2.0000000   2.0000000   2.0000000   2.0000000   2.0000000   2.0000000
           13          14          15          16          17          18
    1   2.0000000   2.0000000   2.0000000   2.0000000   2.0000000   2.0000000
           19          20          21          22          23          24
    1   2.0000000   2.0000000   2.0000000   2.0000000   2.0000000   2.0000000
           25          26          27          28          29          30
    1   2.0000000   2.0000000   2.0000000   2.0000000   2.0000000   2.0000000
           31          32          33          34          35          36
    1   2.0000000   2.0000000   2.0000000   2.0000000   2.0000000   2.0000000
           37          38          39          40          41          42
    1   2.0000000   2.0000000   2.0000000   2.0000000   2.0000000   2.0000000
           43          44          45          46          47          48
    1   1.9998808   1.9998755   1.9994030   1.9834625   0.9997184   0.9910214
           49          50          51          52          53          54
    1   0.0143989   0.0119736   0.0001387   0.0000700   0.0000347   0.0000225
  
*** Unpaired Electrons
 Yamaguchi Nd:         2.09
 Head-Gordon Nu:       2.03
 Head-Gordon Nu_nl:    2.00
  
**************************************************
 RAS-CI total energy for state   6:   -535.844450299317
  Excitation energy (eV) =  7.348273475194
  State symmetry: A1  (C1       )
  <S^2>      :  2.0000
  Dipole Moment:    0.0002 X     0.0000 Y     0.0001 Z
  Trans. Moment:    0.5255 X    -0.0000 Y    -0.0000 Z
  Strength   :  0.049712
  Natural transition orbitals ( 1 -> 6 ):
   e-/hole pair  1 alpha:  ampl =  0.556096 ( 30.9%)   [12 : 13]
   e-/hole pair  2 alpha:  ampl =  0.026036 (  0.1%)   [11 : 14]
   e-/hole pair  1 beta :  ampl =  0.821388 ( 67.5%)   [12 : 13]
   e-/hole pair  2 beta :  ampl =  0.017641 (  0.0%)   [11 : 14]
   Sum of square amplitudes: 0.98

 NATURAL OCCUPATION NUMBERS (higher than 1.0E-05)
            1           2           3           4           5           6
    1   2.0000000   2.0000000   2.0000000   2.0000000   2.0000000   2.0000000
            7           8           9          10          11          12
    1   2.0000000   2.0000000   2.0000000   2.0000000   2.0000000   2.0000000
           13          14          15          16          17          18
    1   2.0000000   2.0000000   2.0000000   2.0000000   2.0000000   2.0000000
           19          20          21          22          23          24
    1   2.0000000   2.0000000   2.0000000   2.0000000   2.0000000   2.0000000
           25          26          27          28          29          30
    1   2.0000000   2.0000000   2.0000000   2.0000000   2.0000000   2.0000000
           31          32          33          34          35          36
    1   2.0000000   2.0000000   2.0000000   2.0000000   2.0000000   2.0000000
           37          38          39          40          41          42
    1   2.0000000   2.0000000   2.0000000   2.0000000   2.0000000   2.0000000
           43          44          45          46          47          48
    1   1.9999110   1.9998625   1.9993169   1.6742818   1.3040717   0.6966447
           49          50          51          52          53          54
    1   0.3250342   0.0006714   0.0000798   0.0000774   0.0000288   0.0000197

 Head-Gordon Nu:    2.05
 Head-Gordon Nu_nl: 2.24

  Amplitudes : 
  
 | HOLE  | ALPHA        | BETA         | PART  |    AMPLITUDE 
--------------------------------------------------
 |       | 111111000000 | 111001000000 |       |     8.2338113049997E-01
 |       | 111101100000 | 111100000000 |       |     5.5744942111077E-01
--------------------------------------------------
*** Contributions RASCI wfn    Active: 100.00
                                 Hole:   0.00
                                 Part:   0.00

      Mulliken population analysis 
 ---------------------------------------------------
   Atom    Charge (a.u.)   Spin (a.u.)  
 ---------------------------------------------------
   1  C    0.228089        0.126518 
   2  C   -0.215055        0.046006 
   3  H    0.123819        0.000212 
   4  C   -0.087908        0.144658 
   5  H    0.122942        0.000977 
   6  C   -0.087877        0.144658 
   7  H    0.122948        0.000978 
   8  C   -0.214903        0.046005 
   9  H    0.123845        0.000212 
  10  C    0.228148        0.126520 
  11  C   -0.468284        0.361241 
  12  H    0.124553        0.001998 
  13  C   -0.468561        0.361245 
  14  H    0.124528        0.001996 
  15  C    0.228117        0.126526 
  16  C   -0.215187        0.046007 
  17  H    0.123836        0.000212 
  18  C   -0.087748        0.144665 
  19  H    0.122992        0.000978 
  20  C   -0.087978        0.144665 
  21  H    0.122975        0.000977 
  22  C   -0.215028        0.046008 
  23  H    0.123836        0.000212 
  24  C    0.227900        0.126525 
 ---------------------------------------------------
   Sum:    0.000000        2.000000 
 ---------------------------------------------------
 
  
 NATURAL OCCUPATION NUMBERS (higher than 1.0E-05)
            1           2           3           4           5           6
    1   2.0000000   2.0000000   2.0000000   2.0000000   2.0000000   2.0000000
            7           8           9          10          11          12
    1   2.0000000   2.0000000   2.0000000   2.0000000   2.0000000   2.0000000
           13          14          15          16          17          18
    1   2.0000000   2.0000000   2.0000000   2.0000000   2.0000000   2.0000000
           19          20          21          22          23          24
    1   2.0000000   2.0000000   2.0000000   2.0000000   2.0000000   2.0000000
           25          26          27          28          29          30
    1   2.0000000   2.0000000   2.0000000   2.0000000   2.0000000   2.0000000
           31          32          33          34          35          36
    1   2.0000000   2.0000000   2.0000000   2.0000000   2.0000000   2.0000000
           37          38          39          40          41          42
    1   2.0000000   2.0000000   2.0000000   2.0000000   2.0000000   2.0000000
           43          44          45          46          47          48
    1   1.9999110   1.9998625   1.9993169   1.6742818   1.3040717   0.6966447
           49          50          51          52          53          54
    1   0.3250342   0.0006714   0.0000798   0.0000774   0.0000288   0.0000197
  
*** Unpaired Electrons
 Yamaguchi Nd:         2.91
 Head-Gordon Nu:       2.05
 Head-Gordon Nu_nl:    2.24
  
**************************************************
 RAS-CI total energy for state   7:   -535.837550212303
  Excitation energy (eV) =  7.536034395837
  State symmetry: A1  (C1       )
  <S^2>      :  2.0000
  Dipole Moment:    0.0003 X    -0.0000 Y     0.0002 Z
  Trans. Moment:    0.0001 X     0.0007 Y    -0.0000 Z
  Strength   :  0.000000
  Natural transition orbitals ( 1 -> 7 ):
   e-/hole pair  1 alpha:  ampl =  0.019163 (  0.0%)   [12 : 13]
   e-/hole pair  2 alpha:  ampl =  0.004240 (  0.0%)   [11 : 14]
   e-/hole pair  1 beta :  ampl =  0.994335 ( 98.9%)   [12 : 13]
   e-/hole pair  2 beta :  ampl =  0.004630 (  0.0%)   [11 : 14]
   Sum of square amplitudes: 0.99

 NATURAL OCCUPATION NUMBERS (higher than 1.0E-05)
            1           2           3           4           5           6
    1   2.0000000   2.0000000   2.0000000   2.0000000   2.0000000   2.0000000
            7           8           9          10          11          12
    1   2.0000000   2.0000000   2.0000000   2.0000000   2.0000000   2.0000000
           13          14          15          16          17          18
    1   2.0000000   2.0000000   2.0000000   2.0000000   2.0000000   2.0000000
           19          20          21          22          23          24
    1   2.0000000   2.0000000   2.0000000   2.0000000   2.0000000   2.0000000
           25          26          27          28          29          30
    1   2.0000000   2.0000000   2.0000000   2.0000000   2.0000000   2.0000000
           31          32          33          34          35          36
    1   2.0000000   2.0000000   2.0000000   2.0000000   2.0000000   2.0000000
           37          38          39          40          41          42
    1   2.0000000   2.0000000   2.0000000   2.0000000   2.0000000   2.0000000
           43          44          45          46          47          48
    1   1.9997180   1.9996781   1.9878274   1.9849422   1.0094569   1.0006207
           49          50          51          52          53          54
    1   0.0168573   0.0005621   0.0001511   0.0000814   0.0000732   0.0000317

 Head-Gordon Nu:    2.04
 Head-Gordon Nu_nl: 2.00

  Amplitudes : 
  
 | HOLE  | ALPHA        | BETA         | PART  |    AMPLITUDE 
--------------------------------------------------
 |       | 111111000000 | 110110000000 |       |     9.3672609975701E-01
 |       | 111111000000 | 011110000000 |       |     3.2912075669059E-01
--------------------------------------------------
*** Contributions RASCI wfn    Active: 100.00
                                 Hole:   0.00
                                 Part:   0.00

      Mulliken population analysis 
 ---------------------------------------------------
   Atom    Charge (a.u.)   Spin (a.u.)  
 ---------------------------------------------------
   1  C    0.280373        0.126507 
   2  C   -0.212475        0.063677 
   3  H    0.141262        0.018050 
   4  C   -0.140460        0.021863 
   5  H    0.123336        0.000569 
   6  C   -0.140431        0.021861 
   7  H    0.123342        0.000569 
   8  C   -0.212324        0.063677 
[...]
  19    C 4   d     0.05361   0.01519   0.00619   0.01065   0.02273   0.02843
  20    C 4   f     0.00127   0.00063   0.00158   0.00179   0.00226   0.00279
  21    H 3   s     0.10688   0.02143   0.00000   0.00000   0.00000   0.00000
  22    H 3   p     0.00217   0.00151   0.00171   0.00440   0.00077   0.00099
  23    C 5   s     0.00340   0.00097   0.00000   0.00000   0.00000   0.00000
  24    C 5   p     0.10355   0.09332   0.16073   0.01430   0.23497   0.28103
  25    C 5   d     0.00522   0.04420   0.00569   0.03150   0.00103   0.00054
  26    C 5   f     0.00058   0.00007   0.00148   0.00290   0.00073   0.00062
  27    H 4   s     0.00077   0.08508   0.00000   0.00000   0.00000   0.00000
  28    H 4   p     0.00136   0.00103   0.00168   0.00013   0.00392   0.00486
  29    C 6   s     0.00212   0.00004   0.00000   0.00000   0.00000   0.00000
  30    C 6   p     0.02945   0.08561   0.13465   0.08745   0.09862   0.07624
  31    C 6   d     0.01548   0.01340   0.00886   0.01067   0.02972   0.03198
  32    C 6   f     0.00005   0.00085   0.00134   0.00072   0.00316   0.00288
  33    C 7   s     0.00825   0.00000   0.00000   0.00000   0.00000   0.00000
  34    C 7   p     0.01872   0.03888   0.00000   0.08521   0.10556   0.00000
  35    C 7   d     0.00322   0.00237   0.01850   0.00494   0.00140   0.01826
  36    C 7   f     0.00009   0.00227   0.00142   0.00098   0.00152   0.00078
  37    H 5   s     0.00232   0.00000   0.00000   0.00000   0.00000   0.00000
  38    H 5   p     0.00000   0.00048   0.00000   0.00072   0.00126   0.00000
  39    C 8   s     0.00825   0.00000   0.00000   0.00000   0.00000   0.00000
  40    C 8   p     0.01872   0.03888   0.00000   0.08521   0.10556   0.00000
  41    C 8   d     0.00322   0.00237   0.01850   0.00494   0.00140   0.01826
  42    C 8   f     0.00009   0.00227   0.00142   0.00098   0.00152   0.00078
  43    H 6   s     0.00232   0.00000   0.00000   0.00000   0.00000   0.00000
  44    H 6   p     0.00000   0.00048   0.00000   0.00072   0.00126   0.00000
  45    C 9   s     0.00212   0.00004   0.00000   0.00000   0.00000   0.00000
  46    C 9   p     0.02944   0.08557   0.13470   0.08744   0.09860   0.07626
  47    C 9   d     0.01548   0.01340   0.00886   0.01067   0.02972   0.03199
  48    C 9   f     0.00005   0.00085   0.00134   0.00072   0.00316   0.00288
  49    C 10  s     0.00340   0.00097   0.00000   0.00000   0.00000   0.00000
  50    C 10  p     0.10353   0.09330   0.16077   0.01430   0.23490   0.28109
  51    C 10  d     0.00522   0.04419   0.00570   0.03150   0.00103   0.00054
  52    C 10  f     0.00058   0.00007   0.00148   0.00289   0.00073   0.00062
  53    H 7   s     0.00077   0.08506   0.00000   0.00000   0.00000   0.00000
  54    H 7   p     0.00136   0.00103   0.00168   0.00013   0.00392   0.00486
  55    C 11  s     0.00120   0.00025   0.00000   0.00000   0.00000   0.00000
  56    C 11  p     0.15660   0.11445   0.16611   0.28956   0.04727   0.06008
  57    C 11  d     0.05360   0.01519   0.00619   0.01065   0.02273   0.02844
  58    C 11  f     0.00127   0.00063   0.00158   0.00179   0.00226   0.00279
  59    H 8   s     0.10687   0.02143   0.00000   0.00000   0.00000   0.00000
  60    H 8   p     0.00217   0.00151   0.00171   0.00440   0.00077   0.00099
  61    C 12  s     0.00120   0.00025   0.00000   0.00000   0.00000   0.00000
  62    C 12  p     0.15660   0.11445   0.16611   0.28956   0.04727   0.06008
  63    C 12  d     0.05360   0.01519   0.00619   0.01065   0.02273   0.02844
  64    C 12  f     0.00127   0.00063   0.00158   0.00179   0.00226   0.00279
  65    H 9   s     0.10687   0.02143   0.00000   0.00000   0.00000   0.00000
  66    H 9   p     0.00217   0.00151   0.00171   0.00440   0.00077   0.00099
  67    C 13  s     0.00340   0.00097   0.00000   0.00000   0.00000   0.00000
  68    C 13  p     0.10353   0.09330   0.16077   0.01430   0.23491   0.28109
  69    C 13  d     0.00522   0.04419   0.00570   0.03150   0.00103   0.00054
  70    C 13  f     0.00058   0.00007   0.00148   0.00289   0.00073   0.00062
  71    H 10  s     0.00077   0.08506   0.00000   0.00000   0.00000   0.00000
  72    H 10  p     0.00136   0.00103   0.00168   0.00013   0.00392   0.00486
  73    C 14  s     0.00212   0.00004   0.00000   0.00000   0.00000   0.00000
  74    C 14  p     0.02944   0.08557   0.13470   0.08744   0.09860   0.07626
  75    C 14  d     0.01548   0.01340   0.00886   0.01067   0.02972   0.03199
  76    C 14  f     0.00005   0.00085   0.00134   0.00072   0.00316   0.00288
                        43        44        45        46        47        48
   1    C 1   s     0.00037   0.00005   0.00023   0.00000   0.00000   0.00000
   2    C 1   p     0.04647   0.09944   0.15301   0.18960   0.02331   0.01279
   3    C 1   d     0.01289   0.03185   0.02776   0.00888   0.06159   0.08454
   4    C 1   f     0.00118   0.00007   0.00014   0.00140   0.00692   0.00624
   5    C 2   s     0.00101   0.00008   0.00196   0.00000   0.00000   0.00000
   6    C 2   p     0.05484   0.11091   0.05830   0.00157   0.06221   0.06341
   7    C 2   d     0.01355   0.00597   0.03339   0.04146   0.00613   0.00604
   8    C 2   f     0.00319   0.00096   0.00035   0.00371   0.00027   0.00110
   9    H 1   s     0.02863   0.00003   0.05058   0.00000   0.00000   0.00000
  10    H 1   p     0.00111   0.00148   0.00028   0.00004   0.00146   0.00143
  11    C 3   s     0.00099   0.00064   0.00008   0.00000   0.00000   0.00000
  12    C 3   p     0.17176   0.08770   0.03926   0.21478   0.02862   0.02989
  13    C 3   d     0.01148   0.03370   0.00791   0.01298   0.01107   0.01634
  14    C 3   f     0.00054   0.00025   0.00044   0.00155   0.00093   0.00111
  15    H 2   s     0.03794   0.05544   0.00881   0.00000   0.00000   0.00000
  16    H 2   p     0.00219   0.00092   0.00048   0.00379   0.00058   0.00107
  17    C 4   s     0.00099   0.00064   0.00008   0.00000   0.00000   0.00000
  18    C 4   p     0.17176   0.08770   0.03926   0.21478   0.02862   0.02989
  19    C 4   d     0.01148   0.03370   0.00791   0.01298   0.01107   0.01634
  20    C 4   f     0.00054   0.00025   0.00044   0.00155   0.00093   0.00111
  21    H 3   s     0.03794   0.05544   0.00881   0.00000   0.00000   0.00000
  22    H 3   p     0.00219   0.00092   0.00048   0.00379   0.00058   0.00107
  23    C 5   s     0.00101   0.00008   0.00196   0.00000   0.00000   0.00000
  24    C 5   p     0.05484   0.11091   0.05830   0.00157   0.06221   0.06341
  25    C 5   d     0.01355   0.00597   0.03339   0.04146   0.00613   0.00604
  26    C 5   f     0.00319   0.00096   0.00035   0.00371   0.00027   0.00110
  27    H 4   s     0.02863   0.00003   0.05058   0.00000   0.00000   0.00000
  28    H 4   p     0.00111   0.00148   0.00028   0.00004   0.00146   0.00143
  29    C 6   s     0.00037   0.00005   0.00023   0.00000   0.00000   0.00000
  30    C 6   p     0.04647   0.09944   0.15301   0.18960   0.02331   0.01279
  31    C 6   d     0.01289   0.03185   0.02776   0.00888   0.06159   0.08454
  32    C 6   f     0.00118   0.00007   0.00014   0.00140   0.00692   0.00624
  33    C 7   s     0.00244   0.00000   0.00425   0.00000   0.00000   0.00000
  34    C 7   p     0.11148   0.13096   0.09289   0.00000   0.58068   0.52810
  35    C 7   d     0.02007   0.00724   0.05287   0.03735   0.00062   0.00728
  36    C 7   f     0.00017   0.00101   0.00006   0.00305   0.00013   0.00254
  37    H 5   s     0.08734   0.00000   0.08353   0.00000   0.00000   0.00000
  38    H 5   p     0.00218   0.00172   0.00033   0.00000   0.01239   0.01416
  39    C 8   s     0.00244   0.00000   0.00425   0.00000   0.00000   0.00000
  40    C 8   p     0.11148   0.13096   0.09289   0.00000   0.58068   0.52810
  41    C 8   d     0.02007   0.00724   0.05287   0.03735   0.00062   0.00728
  42    C 8   f     0.00017   0.00101   0.00006   0.00305   0.00013   0.00254
  43    H 6   s     0.08734   0.00000   0.08353   0.00000   0.00000   0.00000
  44    H 6   p     0.00218   0.00172   0.00033   0.00000   0.01239   0.01416
  45    C 9   s     0.00037   0.00005   0.00023   0.00000   0.00000   0.00000
  46    C 9   p     0.04648   0.09945   0.15306   0.18962   0.02331   0.01278
  47    C 9   d     0.01289   0.03185   0.02777   0.00888   0.06159   0.08454
  48    C 9   f     0.00118   0.00007   0.00014   0.00140   0.00692   0.00624
  49    C 10  s     0.00101   0.00008   0.00196   0.00000   0.00000   0.00000
  50    C 10  p     0.05484   0.11093   0.05832   0.00157   0.06221   0.06341
  51    C 10  d     0.01355   0.00597   0.03340   0.04147   0.00613   0.00604
  52    C 10  f     0.00319   0.00096   0.00035   0.00371   0.00027   0.00110
  53    H 7   s     0.02863   0.00003   0.05060   0.00000   0.00000   0.00000
  54    H 7   p     0.00111   0.00148   0.00028   0.00004   0.00146   0.00143
  55    C 11  s     0.00099   0.00064   0.00008   0.00000   0.00000   0.00000
  56    C 11  p     0.17177   0.08772   0.03928   0.21480   0.02862   0.02989
  57    C 11  d     0.01148   0.03371   0.00791   0.01299   0.01107   0.01634
  58    C 11  f     0.00054   0.00025   0.00044   0.00156   0.00093   0.00111
  59    H 8   s     0.03794   0.05545   0.00881   0.00000   0.00000   0.00000
  60    H 8   p     0.00220   0.00092   0.00048   0.00379   0.00058   0.00107
  61    C 12  s     0.00099   0.00064   0.00008   0.00000   0.00000   0.00000
  62    C 12  p     0.17177   0.08772   0.03928   0.21480   0.02862   0.02989
  63    C 12  d     0.01148   0.03371   0.00791   0.01299   0.01107   0.01634
  64    C 12  f     0.00054   0.00025   0.00044   0.00156   0.00093   0.00111
  65    H 9   s     0.03794   0.05545   0.00881   0.00000   0.00000   0.00000
  66    H 9   p     0.00220   0.00092   0.00048   0.00379   0.00058   0.00107
  67    C 13  s     0.00101   0.00008   0.00196   0.00000   0.00000   0.00000
  68    C 13  p     0.05484   0.11093   0.05832   0.00157   0.06221   0.06341
  69    C 13  d     0.01355   0.00597   0.03340   0.04147   0.00613   0.00604
  70    C 13  f     0.00319   0.00096   0.00035   0.00371   0.00027   0.00110
  71    H 10  s     0.02863   0.00003   0.05060   0.00000   0.00000   0.00000
  72    H 10  p     0.00111   0.00148   0.00028   0.00004   0.00146   0.00143
  73    C 14  s     0.00037   0.00005   0.00023   0.00000   0.00000   0.00000
  74    C 14  p     0.04648   0.09945   0.15306   0.18962   0.02331   0.01278
  75    C 14  d     0.01289   0.03185   0.02777   0.00888   0.06159   0.08454
  76    C 14  f     0.00118   0.00007   0.00014   0.00140   0.00692   0.00624
 
 -----------------------------------------------------------------
                    Cartesian Multipole Moments
 -----------------------------------------------------------------
    Charge (ESU x 10^10)
                 0.0000
    Dipole Moment (Debye)
         X       0.0001      Y      -0.0000      Z      -0.0005
       Tot       0.0005
    Quadrupole Moments (Debye-Ang)
        XX     -73.3025     XY       0.0000     YY     -71.0569
        XZ       0.0001     YZ      -0.0000     ZZ     -90.0251
    Octopole Moments (Debye-Ang^2)
       XXX      -0.0021    XXY      -0.0000    XYY      -0.0003
       YYY       0.0000    XXZ      -0.0020    XYZ       0.0099
       YYZ      -0.0042    XZZ      -0.0001    YZZ       0.0000
       ZZZ      -0.0013
    Hexadecapole Moments (Debye-Ang^3)
      XXXX   -2900.4281   XXXY      -0.0000   XXYY    -594.8729
      XYYY      -0.0000   YYYY    -676.5913   XXXZ       0.0001
      XXYZ      -0.0001   XYYZ      -0.0001   YYYZ      -0.0000
      XXZZ    -632.3236   XYZZ      -0.0000   YYZZ    -160.1736
      XZZZ       0.0003   YZZZ      -0.0000   ZZZZ    -108.3606
 -----------------------------------------------------------------
 Mayer SCF Bond Order, atomic valence on the diagonal:

            1           2           3           4           5           6
    1   3.8304887   1.4985939  -0.0246414   0.0043028   0.0053851   0.0495131
    2   1.4985939   3.9073556   0.9811699   1.3153794  -0.0163221   0.0419006
    3  -0.0246414   0.9811699   0.9701614  -0.0109788  -0.0003242   0.0057685
    4   0.0043028   1.3153794  -0.0109788   3.9306734   0.9851301   1.5138530
    5   0.0053851  -0.0163221  -0.0003242   0.9851301   0.9720836  -0.0102711
    6   0.0495131   0.0419006   0.0057685   1.5138530  -0.0102711   3.9307599
    7   0.0007454   0.0061719   0.0006749  -0.0102622  -0.0002077   0.9851102
    8  -0.0194832   0.0372309   0.0005541   0.0419243   0.0061732   1.3155046
    9   0.0064924   0.0005538   0.0000115   0.0057662   0.0006750  -0.0109531
   10   1.2878650  -0.0194641   0.0064945   0.0494925   0.0007458   0.0042934
   11   1.0716659   0.0162186   0.0070049   0.0143730   0.0004370   0.0154273
   12  -0.0211495   0.0034793   0.0025271   0.0000990  -0.0000008  -0.0000372
   13  -0.0237492   0.0208786   0.0009192   0.0154416   0.0004233   0.0143560
   14   0.0066059   0.0006278   0.0002703  -0.0000371   0.0000147   0.0000995
   15   0.0100249  -0.0049107  -0.0002619   0.0037320  -0.0000144  -0.0020400
   16  -0.0049241   0.0035993   0.0000825   0.0026583   0.0000103   0.0004906
   17  -0.0002613   0.0000825  -0.0000047   0.0000008   0.0000006   0.0000375
   18   0.0037420   0.0026614   0.0000010  -0.0000363   0.0000129   0.0013283
   19  -0.0000140   0.0000102   0.0000007   0.0000128   0.0000005   0.0000126
   20  -0.0020568   0.0004875   0.0000375   0.0013281   0.0000125  -0.0000377
   21   0.0001533   0.0000455   0.0000004   0.0000126   0.0000026   0.0000129
   22   0.0142219   0.0047789  -0.0000158   0.0004916   0.0000453   0.0026606
   23   0.0008084  -0.0000150   0.0000658   0.0000375   0.0000004   0.0000009
   24  -0.0333519   0.0141975   0.0008056  -0.0020478   0.0001545   0.0037294
            7           8           9          10          11          12
    1   0.0007454  -0.0194832   0.0064924   1.2878650   1.0716659  -0.0211495
    2   0.0061719   0.0372309   0.0005538  -0.0194641   0.0162186   0.0034793
    3   0.0006749   0.0005541   0.0000115   0.0064945   0.0070049   0.0025271
    4  -0.0102622   0.0419243   0.0057662   0.0494925   0.0143730   0.0000990
    5  -0.0002077   0.0061732   0.0006750   0.0007458   0.0004370  -0.0000008
    6   0.9851102   1.3155046  -0.0109531   0.0042934   0.0154273  -0.0000372
    7   0.9720817  -0.0163109  -0.0003230   0.0053839   0.0004224   0.0000146
    8  -0.0163109   3.9074310   0.9811033   1.4985346   0.0208911   0.0006286
    9  -0.0003230   0.9811033   0.9701500  -0.0246127   0.0009203   0.0002703
   10   0.0053839   1.4985346  -0.0246127   3.8303537  -0.0237902   0.0066052
   11   0.0004224   0.0208911   0.0009203  -0.0237902   3.2135881   0.9901286
   12   0.0000146   0.0006286   0.0002703   0.0066052   0.9901286   0.9751020
   13   0.0004378   0.0162760   0.0070072   1.0716801  -0.0236445   0.0000950
   14  -0.0000008   0.0034801   0.0025278  -0.0211544   0.0000942   0.0000358
   15   0.0001542   0.0141884   0.0008057  -0.0333846  -0.0237596   0.0066029
   16   0.0000455   0.0047799  -0.0000158   0.0142166   0.0208956   0.0006287
   17   0.0000004  -0.0000149   0.0000658   0.0008065   0.0009205   0.0002705
   18   0.0000125   0.0004910   0.0000376  -0.0020580   0.0154068  -0.0000372
   19   0.0000026   0.0000455   0.0000004   0.0001531   0.0004206   0.0000143
   20   0.0000129   0.0026603   0.0000009   0.0037508   0.0143819   0.0000992
   21   0.0000005   0.0000100   0.0000007  -0.0000139   0.0004392  -0.0000006
   22   0.0000103   0.0035989   0.0000827  -0.0049277   0.0162886   0.0034691
   23   0.0000006   0.0000831  -0.0000047  -0.0002628   0.0070052   0.0025229
   24  -0.0000141  -0.0049176  -0.0002622   0.0100002   1.0714411  -0.0211636
           13          14          15          16          17          18
    1  -0.0237492   0.0066059   0.0100249  -0.0049241  -0.0002613   0.0037420
    2   0.0208786   0.0006278  -0.0049107   0.0035993   0.0000825   0.0026614
    3   0.0009192   0.0002703  -0.0002619   0.0000825  -0.0000047   0.0000010
    4   0.0154416  -0.0000371   0.0037320   0.0026583   0.0000008  -0.0000363
    5   0.0004233   0.0000147  -0.0000144   0.0000103   0.0000006   0.0000129
    6   0.0143560   0.0000995  -0.0020400   0.0004906   0.0000375   0.0013283
    7   0.0004378  -0.0000008   0.0001542   0.0000455   0.0000004   0.0000125
    8   0.0162760   0.0034801   0.0141884   0.0047799  -0.0000149   0.0004910
    9   0.0070072   0.0025278   0.0008057  -0.0000158   0.0000658   0.0000376
   10   1.0716801  -0.0211544  -0.0333846   0.0142166   0.0008065  -0.0020580
   11  -0.0236445   0.0000942  -0.0237596   0.0208956   0.0009205   0.0154068
   12   0.0000950   0.0000358   0.0066029   0.0006287   0.0002705  -0.0000372
   13   3.2137542   0.9901584   1.0714208   0.0162969   0.0070092   0.0143769
   14   0.9901584   0.9751206  -0.0211750   0.0034709   0.0025241   0.0000989
   15   1.0714208  -0.0211750   3.8300772   1.4988123  -0.0245969   0.0042524
   16   0.0162969   0.0034709   1.4988123   3.9079889   0.9810948   1.3156524
   17   0.0070092   0.0025241  -0.0245969   0.9810948   0.9701736  -0.0109419
   18   0.0143769   0.0000989   0.0042524   1.3156524  -0.0109419   3.9308965
   19   0.0004407  -0.0000005   0.0053794  -0.0162374  -0.0003195   0.9849666
   20   0.0153938  -0.0000377   0.0494634   0.0419435   0.0057675   1.5140353
   21   0.0004213   0.0000143   0.0007435   0.0061662   0.0006760  -0.0102081
   22   0.0208973   0.0006287  -0.0195846   0.0373042   0.0005547   0.0418180
   23   0.0009205   0.0002705   0.0064898   0.0005541   0.0000115   0.0057665
   24  -0.0237027   0.0066042   1.2877352  -0.0195366   0.0064897   0.0495177
           19          20          21          22          23          24
    1  -0.0000140  -0.0020568   0.0001533   0.0142219   0.0008084  -0.0333519
    2   0.0000102   0.0004875   0.0000455   0.0047789  -0.0000150   0.0141975
    3   0.0000007   0.0000375   0.0000004  -0.0000158   0.0000658   0.0008056
    4   0.0000128   0.0013281   0.0000126   0.0004916   0.0000375  -0.0020478
    5   0.0000005   0.0000125   0.0000026   0.0000453   0.0000004   0.0001545
    6   0.0000126  -0.0000377   0.0000129   0.0026606   0.0000009   0.0037294
    7   0.0000026   0.0000129   0.0000005   0.0000103   0.0000006  -0.0000141
    8   0.0000455   0.0026603   0.0000100   0.0035989   0.0000831  -0.0049176
    9   0.0000004   0.0000009   0.0000007   0.0000827  -0.0000047  -0.0002622
   10   0.0001531   0.0037508  -0.0000139  -0.0049277  -0.0002628   0.0100002
   11   0.0004206   0.0143819   0.0004392   0.0162886   0.0070052   1.0714411
   12   0.0000143   0.0000992  -0.0000006   0.0034691   0.0025229  -0.0211636
   13   0.0004407   0.0153938   0.0004213   0.0208973   0.0009205  -0.0237027
   14  -0.0000005  -0.0000377   0.0000143   0.0006287   0.0002705   0.0066042
   15   0.0053794   0.0494634   0.0007435  -0.0195846   0.0064898   1.2877352
   16  -0.0162374   0.0419435   0.0061662   0.0373042   0.0005541  -0.0195366
   17  -0.0003195   0.0057675   0.0006760   0.0005547   0.0000115   0.0064897
   18   0.9849666   1.5140353  -0.0102081   0.0418180   0.0057665   0.0495177
   19   0.9720771  -0.0101919  -0.0002026   0.0061643   0.0006764   0.0007423
   20  -0.0101919   3.9310248   0.9850099   1.3155920  -0.0109490   0.0043207
   21  -0.0002026   0.9850099   0.9720905  -0.0162541  -0.0003204   0.0053814
   22   0.0061643   1.3155920  -0.0162541   3.9078329   0.9811045   1.4989032
   23   0.0006764  -0.0109490  -0.0003204   0.9811045   0.9701641  -0.0246026
   24   0.0007423   0.0043207   0.0053814   1.4989032  -0.0246026   3.8304235


 Total job time:  22267.77s(wall), 16768.20s(cpu) 
 Fri Dec  1 19:20:20 2023

        *************************************************************
        *                                                           *
        *  Thank you very much for using Q-Chem.  Have a nice day.  *
        *                                                           *
        *************************************************************


