                  Welcome to Q-Chem
     A Quantum Leap Into The Future Of Chemistry


 Q-Chem 6.0 (devel), Q-Chem, Inc., Pleasanton, CA (2022)

 E. Epifanovsky,  A. T. B. Gilbert,  Xintian Feng,  Joonho Lee,  Yuezhi Mao,  
 N. Mardirossian,  P. Pokhilko,  A. White,  M. Wormit,  M. P. Coons,  
 A. L. Dempwolff,  Zhengting Gan,  D. Hait,  P. R. Horn,  L. D. Jacobson,  
 I. Kaliman,  J. Kussmann,  A. W. Lange,  Ka Un Lao,  D. S. Levine,  Jie Liu,  
 S. C. McKenzie,  A. F. Morrison,  K. Nanda,  F. Plasser,  D. R. Rehn,  
 M. L. Vidal,  Zhi-Qiang You,  Ying Zhu,  B. Alam,  B. Albrecht,  
 A. Aldossary,  E. Alguire,  J. H. Andersen,  V. Athavale,  D. Barton,  
 K. Begam,  A. Behn,  N. Bellonzi,  Y. A. Bernard,  E. J. Berquist,  
 H. Burton,  A. Carreras,  K. Carter-Fenk,  Romit Chakraborty,  
 Chandrima Chakravarty,  Junhan Chen,  A. D. Chien,  K. D. Closser,  
 V. Cofer-Shabica,  L. Cunha,  S. Dasgupta,  Jia Deng,  M. de Wergifosse,  
 M. Diedenhofen,  Hainam Do,  S. Ehlert,  Po-Tung Fang,  S. Fatehi,  
 Qingguo Feng,  T. Friedhoff,  B. Ganoe,  J. Gayvert,  Qinghui Ge,  
 G. Gidofalvi,  M. Goldey,  J. Gomes,  C. Gonzalez-Espinoza,  S. Gulania,  
 A. Gunina,  J. A. Gyamfi,  M. W. D. Hanson-Heine,  P. H. P. Harbach,  
 A. W. Hauser,  M. F. Herbst,  M. Hernandez Vera,  M. Hodecker,  
 Z. C. Holden,  S. Houck,  Xunkun Huang,  Kerwin Hui,  B. C. Huynh,  
 K. Ikeda,  M. Ivanov,  Hyunjun Ji,  Zuxin Jin,  Hanjie Jiang,  B. Kaduk,  
 S. Kaehler,  R. Kang,  K. Khistyaev,  Jaehoon Kim,  Yongbin Kim,  
 P. Klunzinger,  Z. Koczor-Benda,  Joong Hoon Koh,  D. Kosenkov,  
 Saikiran Kotaru,  L. Koulias,  T. Kowalczyk,  C. M. Krauter,  K. Kue,  
 A. Kunitsa,  T. Kus,  A. Landau,  K. V. Lawler,  D. Lefrancois,  S. Lehtola,  
 Rain Li,  Shaozhi Li,  Yi-Pei Li,  Jiashu Liang,  M. Liebenthal,  
 Hung-Hsuan Lin,  You-Sheng Lin,  Fenglai Liu,  Kuan-Yu Liu,  
 M. Loipersberger,  A. Luenser,  C. Malbon,  A. Manjanath,  P. Manohar,  
 E. Mansoor,  S. F. Manzer,  Shan-Ping Mao,  A. V. Marenich,  T. Markovich,  
 S. Mason,  F. Matz,  S. A. Maurer,  P. F. McLaughlin,  M. F. S. J. Menger,  
 J.-M. Mewes,  S. A. Mewes,  P. Morgante,  Mohammad Mostafanejad,  
 J. W. Mullinax,  K. J. Oosterbaan,  G. Paran,  V. Parravicini,  
 Alexander C. Paul,  Suranjan K. Paul,  F. Pavosevic,  Zheng Pei,  S. Prager,  
 E. I. Proynov,  E. Ramos,  B. Rana,  A. E. Rask,  A. Rettig,  R. M. Richard,  
 F. Rob,  E. Rossomme,  T. Scheele,  M. Scheurer,  M. Schneider,  
 P. E. Schneider,  N. Sergueev,  S. M. Sharada,  Hengyuan Shen,  
 W. Skomorowski,  D. W. Small,  C. J. Stein,  Yingli Su,  Yu-Chuan Su,  
 E. J. Sundstrom,  Zhen Tao,  J. Thirman,  Hung-Yi Tsai,  T. Tsuchimochi,  
 N. M. Tubman,  C. Utku,  S. P. Veccham,  O. Vydrov,  J. Wenzel,  
 Jonathan Wong,  J. Witte,  A. Yamada,  Chou-Hsun Yang,  Kun Yao,  
 S. Yeganeh,  S. R. Yost,  A. Zech,  F. Zeller,  Igor Ying Zhang,  
 Xing Zhang,  Yu Zhang,  D. Zuev,  A. Aspuru-Guzik,  A. T. Bell,  
 N. A. Besley,  K. B. Bravaya,  B. R. Brooks,  D. Casanova,  Jeng-Da Chai,  
 Hsing-Ta Chen,  S. Coriani,  C. J. Cramer,  A. E. DePrince, III,  
 R. A. DiStasio Jr.,  A. Dreuw,  B. D. Dunietz,  T. R. Furlani,  
 W. A. Goddard III,  S. Grimme,  S. Hammes-Schiffer,  T. Head-Gordon,  
 W. J. Hehre,  Chao-Ping Hsu,  T.-C. Jagau,  Yousung Jung,  A. Klamt,  
 Jing Kong,  D. S. Lambrecht,  Xiangyuan Li,  WanZhen Liang,  N. J. Mayhall,  
 C. W. McCurdy,  J. B. Neaton,  T. Neudecker,  C. Ochsenfeld,  
 J. A. Parkhill,  R. Peverati,  V. A. Rassolov,  Haisheng Ren,  Yihan Shao,  
 L. V. Slipchenko,  R. P. Steele,  J. E. Subotnik,  A. J. W. Thom,  
 A. Tkatchenko,  D. G. Truhlar,  T. Van Voorhis,  Fan Wang,  
 T. A. Wesolowski,  K. B. Whaley,  H. L. Woodcock III,  P. M. Zimmerman,  
 S. Faraji,  P. M. W. Gill,  M. Head-Gordon,  J. M. Herbert,  A. I. Krylov

 Contributors to earlier versions of Q-Chem not listed above: 
 R. D. Adamson,  B. Austin,  R. Baer,  J. Baker,  G. J. O. Beran,  
 K. Brandhorst,  S. T. Brown,  E. F. C. Byrd,  Arup K. Chakraborty,  
 G. K. L. Chan,  Chun-Min Chang,  Yunqing Chen,  C.-L. Cheng,  
 Siu Hung Chien,  D. M. Chipman,  D. L. Crittenden,  H. Dachsel,  
 R. J. Doerksen,  A. D. Dutoi,  R. G. Edgar,  J. Fosso-Tande,  
 L. Fusti-Molnar,  D. Ghosh,  A. Ghysels,  A. Golubeva-Zadorozhnaya,  
 J. Gonthier,  M. S. Gordon,  S. R. Gwaltney,  G. Hawkins,  J. E. Herr,  
 A. Heyden,  S. Hirata,  E. G. Hohenstein,  G. Kedziora,  F. J. Keil,  
 C. Kelley,  Jihan Kim,  R. A. King,  R. Z. Khaliullin,  P. P. Korambath,  
 W. Kurlancheek,  A. Laurent,  A. M. Lee,  M. S. Lee,  S. V. Levchenko,  
 Ching Yeh Lin,  D. Liotard,  E. Livshits,  R. C. Lochan,  I. Lotan,  
 L. A. Martinez-Martinez,  P. E. Maslen,  N. Nair,  D. P. O'Neill,  
 D. Neuhauser,  E. Neuscamman,  C. M. Oana,  R. Olivares-Amaya,  R. Olson,  
 T. M. Perrine,  B. Peters,  P. A. Pieniazek,  A. Prociuk,  Y. M. Rhee,  
 J. Ritchie,  M. A. Rohrdanz,  E. Rosta,  N. J. Russ,  H. F. Schaefer III,  
 M. W. Schmidt,  N. E. Schultz,  S. Sharma,  N. Shenvi,  C. D. Sherrill,  
 A. C. Simmonett,  A. Sodt,  T. Stein,  D. Stuck,  K. S. Thanthiriwatte,  
 V. Vanovschi,  L. Vogt,  Tao Wang,  A. Warshel,  M. A. Watson,  
 C. F. Williams,  Q. Wu,  X. Xu,  Jun Yang,  W. Zhang,  Yan Zhao

   Please cite Q-Chem as follows:
  "Software for the frontiers of quantum chemistry:
   An overview of developments in the Q-Chem 5 package"
   J. Chem. Phys. 155, 084801 (2021)
   https://doi.org/10.1063/5.0055522 (open access)

 Q-Chem 6.0.1 for Intel X86 EM64T Linux

 Parts of Q-Chem use Armadillo 9.900.5 (Nocturnal Misbehaviour).
 http://arma.sourceforge.net/

 Q-Chem begins on Fri Dec  1 13:10:55 2023  

 Host: atlas-188
0

     Scratch files written to ./qchem385587//
 Processing $rem in /scratch/abel/SOFTWARE/qchem/config/preferences:
 Processing $rem in /dipc/acebg/.qchemrc:

 Checking the input file for inconsistencies... 	...done.

--------------------------------------------------------------
User input:
--------------------------------------------------------------
$comment
 RAS-SF CALCULATION
$end

$molecule
 READ hexacene_opt.molecule
$end

$rem
!**CALCULATION TYPE***     
JOBTYPE            sp    
EXCHANGE           HF
CORRELATION        RASCI    !RASCI=Casanova; RASCI2=Zimmerman
BASIS              def2-TZVP

!***SCF REFERENCE***
SKIP_SCFMAN        FALSE
UNRESTRICTED       FALSE
!SCF_GUESS          core
!SCF_GUESS_MIX      FALSE
!SCF_GUESS_ALWAYS   FALSE
MAX_SCF_CYCLES     999
!SCF_CONVERGENCE    8
SCF_ALGORITHM      DIIS_GDM !DIIS,DM,DIIS_DM,GDM,DIIS_GDM,GD

!SYMMETRY           TRUE   !use of symmetry for calculating integrals
!SYM_IGNORE         FALSE  !turn off using symmetry
!SYM_TOL            5      !tolerance for determining point group
!USE_ABELIAN_SUBGROUP      !define to use abelian group

!THRESH             14
SCF_FINAL_PRINT     1 !0,1,2,3

!****RAS-SF****
RAS_ROOTS          20       !number of RAS-CI roots to be computed
SET_ITER           150     !number of iterations in RASCI
RAS_ELEC           6       !number of electrons in RAS2
RAS_ELEC_ALPHA     4       !spin-α electrons in RAS2 
RAS_ELEC_BETA      2       !spin-β electrons in RAS2

RAS_ACT            10       !number of orbitals in RAS2 
RAS_ACT_ORB  [74, 76, 86, 87, 89, 94, 98, 99, 102, 107]  !user-selected RAS2 orbitals
RAS_OCC            83       !number of orbitals in RAS1
N_FROZEN_CORE      63     !Number of frozen core orbitals
N_FROZEN_VIRTUAL   789      !Number of frozen virtual orbitals

RAS_DO_HOLE        TRUE   !presence of hole excitations in RAS-CI wave function
RAS_DO_PART        TRUE   !presence of particle excitations
!RAS_AMPL_PRINT     10     !threshold (×10 2 ) for the CI amplitudes

!RAS_GUESS_CS       0      !number of closed shell guess conﬁgurations
!RAS_SPIN_MULT      0      !spin multiplicity. Only for Ms = 0 
!RAS_SRDFT          FALSE  !short-range density functional RAS-CI
!RAS_NFRAG          0     !fragments of excitation analysis in RASCI

RAS_PRINT          2      !level of information
RAS_NATORB         TRUE   !computation of the natural orbital occupancies
!RAS_NATORB_STATE  0      !Saves NO of i RAS computed state in .fchk ﬁle
!RAS_FOD            TRUE

!****RAS-SOC****
CALC_SOC           TRUE   !calculate SOC for EOM-CC, RAS-CI, ADC, TDDFT/TDA and TDDFT
!RAS_SOC_2E        TRUE   !two-electron mean-ﬁeld contribution, default=true
RAS_SOC_SYM_DENS   TRUE   !averaging of α and β densities

!****MEMORY****
MEM_TOTAL          80000 !Default 2000 MB
MEM_STATIC         20000  !Default 64 MB

!**Molecular Properties and Analysis **                                                                                          
POP_MULLIKEN       TRUE   !Run Mulliken population analysis
LOWDIN_POPULATION  TRUE   !Run Löwdin population analysis
GUI                2       !Checkpoints generation
STATE_ANALYSIS     TRUE

!**Wave function analysis of RAS-CI states: MOLDEN**
!PLOTS = 0     ! Note: This can be omitted, default is 0
!NTO_PAIRS = 2 ! Note: This can be omitted, default is 2
!GUI 0
!MOLDEN_FORMAT      TRUE
!PRINT_ORBITALS     15

!**Wave function analysis of RAS-CI state: CUBE**
!NTO_PAIRS = 2 ! Note: This can be omitted, default is 2
!PLOTS = 1
!GUI 0

!**SR-DFT**
!RAS_SRDFT           TRUE !Perform short-range density functional RAS-CI
!RAS_SRDFT_EXC       0 !EX functional. 0=HF. 
!RAS_SRDFT_ONLY_COR  TRUE !No use of EXC functional
!RAS_SRDFT_COR       srPBE !short-range correlation functional
!ras_srdft_0         TRUE !true: no iteration (one-shot); false: iteration
!RAS_OMEGA           400 !Coulomb range-separation parameter. def=400
!RAS_SRDFT_DAMP     0.5 !dumping factor. def=0.5
$end

!$plots
!   grid_points 100 100 100
!   grid_range  (-10,10) (-10,10) (-10,10)
!$end

--------------------------------------------------------------
 ----------------------------------------------------------------
             Standard Nuclear Orientation (Angstroms)
    I     Atom           X                Y                Z
 ----------------------------------------------------------------
    1      C       0.0000004700    -0.7312200647    -0.0069497109
    2      C      -1.2186787480    -1.4030825792    -0.0066069358
    3      H      -1.2212546325    -2.4876283294    -0.0072503193
    4      C       1.2186840215    -1.4030767046    -0.0074313704
    5      H       1.2212635962    -2.4876213126    -0.0091261990
    6      C       2.4671029708    -0.7222274503    -0.0048121613
    7      C       3.6725774198    -1.3957516673    -0.0037165327
    8      H       3.6754845178    -2.4807710068    -0.0056741591
    9      C       4.9068443600    -0.7117695565     0.0002921087
   10      C       6.1449031779    -1.3953582338     0.0020169995
   11      H       6.1405318015    -2.4793015455     0.0000015378
   12      C       7.3269301430    -0.7055362657     0.0063055787
   13      H       8.2677170623    -1.2403231136     0.0076921580
   14      C       7.3269510517     0.7054310900     0.0090371636
   15      H       8.2677525797     1.2401831476     0.0124496180
   16      C       6.1449430321     1.3953028421     0.0073926779
   17      H       6.1405984876     2.4792461702     0.0094567533
   18      C       4.9068592809     0.7117628137     0.0030269017
   19      C       3.6726044276     1.3957847829     0.0013933759
   20      H       3.6755256409     2.4808040750     0.0033562662
   21      C       2.4671085735     0.7222903088    -0.0024162909
   22      C      -2.4671023028    -0.7222358877    -0.0044765522
   23      C      -3.6725686946    -1.3957606719    -0.0003413165
   24      H      -3.6754687904    -2.4807807326     0.0011778320
   25      C      -4.9068388744    -0.7117761612     0.0024175181
   26      C      -6.1448839298    -1.3953567782     0.0091438764
   27      H      -6.1405010208    -2.4792963656     0.0126130480
   28      C      -7.3269135731    -0.7055307503     0.0116853769
   29      H      -8.2676875207    -1.2403113438     0.0174316084
   30      C      -7.3269529312     0.7054313749     0.0069715044
   31      H      -8.2677588321     1.2401843692     0.0085254469
   32      C      -6.1449574969     1.3952957516     0.0006552356
   33      H      -6.1406245110     2.4792353342    -0.0028775486
   34      C      -4.9068672417     0.7117538379    -0.0011352738
   35      C      -3.6726190821     1.3957754583    -0.0052397396
   36      H      -3.6755484138     2.4807946149    -0.0072644506
   37      C      -2.4671154095     0.7222824421    -0.0058632643
   38      C      -1.2187009787     1.4031507549    -0.0067128645
   39      H      -1.2212861997     2.4876976284    -0.0070264204
   40      C      -0.0000024973     0.7312986690    -0.0059533960
   41      C       1.2186902763     1.4031539897    -0.0038141893
   42      H       1.2212715642     2.4877003430    -0.0026974861
 ----------------------------------------------------------------
 Molecular Point Group                 C1    NOp =  1
 Largest Abelian Subgroup              C1    NOp =  1
 Nuclear Repulsion Energy =        1905.51717172 hartrees
 There are       87 alpha and       85 beta electrons
 Requested basis set is def2-TZVP
 There are 350 shells and 902 basis functions

 Q-Chem warning in module libmdc/get_mega.C, line 167:

 Allowed MEM_STATIC has been capped at MEM_STATIC=8191.
 Reduce the value of MEM_STATIC to silence this warning.


 Total QAlloc Memory Limit  80000 MB
 Mega-Array Size      8007 MB
 MEM_STATIC part      8191 MB

 A cutoff of  1.0D-09 yielded  31266 shell pairs
 There are    201658 function pairs (    259387 Cartesian)
 Smallest overlap matrix eigenvalue = 4.68E-06

 Q-Chem warning in module stvman/mkSTV.C, line 313:

 Overlap eigenvalue is smaller than square root of threshold
 Use THRESH >= 12 to get rid of this warning


 Scale SEOQF with 1.000000e-02/1.000000e-01/1.000000e+00

 Standard Electronic Orientation quadrupole field applied
 Nucleus-field energy     =     0.0000000323 hartrees
 Guess from superposition of atomic densities
 Warning:  Energy on first SCF cycle will be non-variational
 SAD guess density has 172.000001 electrons

 -----------------------------------------------------------------------
  General SCF calculation program by
  Eric Jon Sundstrom, Paul Horn, Yuezhi Mao, Dmitri Zuev, Alec White,
  David Stuck, Shaama M.S., Shane Yost, Joonho Lee, David Small,
  Daniel Levine, Susi Lehtola, Hugh Burton, Evgeny Epifanovsky,
  Bang C. Huynh
 -----------------------------------------------------------------------
 Hartree-Fock
 Orthonormalizing orbitals
 A restricted open-shell SCF calculation will be
 performed using DIIS, GDM
 SCF converges when RMS gradient is below 1.0e-05
 ---------------------------------------
  Cycle       Energy         DIIS error
 ---------------------------------------
    1    -987.8902305774      2.00e-02  
    2    -989.3936704273      1.58e-02  
    3    -993.5761408034      5.15e-03  Done DIIS. Switching to GDM
 ---------------------------------------
  Cycle       Energy        RMS Gradient
 ---------------------------------------
    1    -993.5761408034      1.81e-01   Descent step
    2    -993.9487316320      1.01e-01   Descent step
    3    -994.1509940652      6.61e-02   Normal BFGS step
    4    -994.2110185404      3.72e-02   Normal BFGS step
    5    -994.2141821491      1.52e-02   Normal BFGS step
    6    -994.2155804187      5.62e-03   Normal BFGS step
    7    -994.2157552902      2.44e-03   Normal BFGS step
    8    -994.2157855499      9.19e-04   Normal BFGS step
    9    -994.2157936680      2.81e-04   Normal BFGS step
   10    -994.2157970542      1.34e-04   Normal BFGS step
   11    -994.2158007666      7.08e-05   Normal BFGS step
   12    -994.2158039789      2.24e-05   Normal BFGS step
   13    -994.2158087664      8.23e-06  Convergence criterion met
The disked orbital energies are calculated using alpha and beta Focks
 ---------------------------------------
 Alpha HF Exchange    Energy = -70.87871947003669
 Beta HF Exchange     Energy = -69.99398469913859
 Nuclear Attraction   Energy =   0.00000000000000
 One-Electron (alpha) Energy = -2592.00737768613271
 One-Electron (beta)  Energy = -2540.34584354303070
 Total Coulomb        Energy = 2373.49294487675706
 Final Alpha MO Eigenvalues
            1           2           3           4           5           6
    1 -11.2482696 -11.2474571 -11.2465722 -11.2465674 -11.2456615 -11.2456511
            7           8           9          10          11          12
    1 -11.2435266 -11.2435264 -11.2424859 -11.2424860 -11.2446883 -11.2446910
           13          14          15          16          17          18
    1 -11.2445160 -11.2444789 -11.2380009 -11.2380007 -11.2379975 -11.2379976
           19          20          21          22          23          24
    1 -11.2354964 -11.2354961 -11.2352400 -11.2352399 -11.2340712 -11.2340711
           25          26          27          28          29          30
    1 -11.2332392 -11.2332391  -1.2040001  -1.1885799  -1.1676997  -1.1371006
           31          32          33          34          35          36
    1  -1.1000198  -1.0867556  -1.0662772  -1.0510887  -1.0459505  -1.0154088
           37          38          39          40          41          42
    1  -1.0100850  -0.9797188  -0.9346454  -0.9343278  -0.8665439  -0.8525344
           43          44          45          46          47          48
    1  -0.8282132  -0.8228270  -0.8182103  -0.8096571  -0.8077406  -0.7407177
           49          50          51          52          53          54
    1  -0.7190545  -0.7045693  -0.6929874  -0.6813620  -0.6705925  -0.6449779
           55          56          57          58          59          60
    1  -0.6403810  -0.6311214  -0.6281603  -0.6274145  -0.5956371  -0.5933743
           61          62          63          64          65          66
    1  -0.5892147  -0.5885953  -0.5835349  -0.5790586  -0.5687329  -0.5741430
           67          68          69          70          71          72
    1  -0.5477008  -0.5486019  -0.5506573  -0.5166096  -0.5270337  -0.5041106
           73          74          75          76          77          78
    1  -0.4937035  -0.4859003  -0.4783391  -0.4721493  -0.4814357  -0.4373167
           79          80          81          82          83          84
    1  -0.4463140  -0.4090023  -0.3868844  -0.3601670  -0.3273083  -0.3189206
           85          86          87          88          89          90
    1  -0.2908762  -0.2638391  -0.2176012   0.0471846   0.0955297   0.1005368
           91          92          93          94          95          96
    1   0.1351565   0.1438129   0.1364171   0.1547722   0.1491631   0.1567224
           97          98          99         100         101         102
    1   0.1533883   0.1573900   0.1620067   0.1716084   0.1718868   0.1856374
          103         104         105         106         107         108
    1   0.1901244   0.1987375   0.2040659   0.2106325   0.2204123   0.2257550
          109         110         111         112         113         114
    1   0.2289050   0.2245930   0.2422790   0.2442051   0.2567198   0.2590220
          115         116         117         118         119         120
    1   0.2635378   0.2678407   0.2735258   0.2818142   0.2836217   0.2914149
          121         122         123         124         125         126
    1   0.2905501   0.3010295   0.3046911   0.3135954   0.3129606   0.3151348
          127         128         129         130         131         132
    1   0.3257908   0.3361610   0.3355667   0.3354701   0.3430297   0.3562830
          133         134         135         136         137         138
    1   0.3586976   0.3633898   0.3770407   0.3835236   0.3867968   0.3962461
          139         140         141         142         143         144
    1   0.3923545   0.3960188   0.3984603   0.4036707   0.4146700   0.4184483
          145         146         147         148         149         150
    1   0.4211110   0.4229020   0.4243313   0.4281479   0.4296799   0.4390892
          151         152         153         154         155         156
    1   0.4391900   0.4412924   0.4511935   0.4518324   0.4555239   0.4517560
          157         158         159         160         161         162
    1   0.4582132   0.4562492   0.4595501   0.4617754   0.4700214   0.4787509
          163         164         165         166         167         168
    1   0.4819413   0.4770131   0.4898990   0.4924540   0.4943159   0.4950953
          169         170         171         172         173         174
    1   0.4969827   0.5037051   0.5033246   0.5082641   0.5124085   0.5149998
          175         176         177         178         179         180
    1   0.5257802   0.5283684   0.5357163   0.5369449   0.5461767   0.5439417
          181         182         183         184         185         186
    1   0.5499568   0.5667185   0.5669742   0.5667299   0.5715740   0.5785095
          187         188         189         190         191         192
    1   0.5779263   0.5868606   0.5929511   0.5960889   0.6046874   0.6076671
          193         194         195         196         197         198
    1   0.6099065   0.6109938   0.6131235   0.6204088   0.6317521   0.6386497
          199         200         201         202         203         204
    1   0.6407657   0.6437702   0.6431581   0.6450881   0.6474785   0.6512131
          205         206         207         208         209         210
    1   0.6516084   0.6592419   0.6672838   0.6723827   0.6752584   0.6766929
          211         212         213         214         215         216
    1   0.6767831   0.6856296   0.6874477   0.6981086   0.6981974   0.7082838
          217         218         219         220         221         222
    1   0.7199581   0.7228127   0.7251144   0.7421053   0.7562372   0.7652686
          223         224         225         226         227         228
    1   0.7676435   0.7759167   0.7827665   0.7991536   0.8032713   0.8159924
          229         230         231         232         233         234
    1   0.8188831   0.8184259   0.8190252   0.8186879   0.8278244   0.8287799
          235         236         237         238         239         240
    1   0.8362971   0.8423220   0.8517641   0.8592982   0.8639425   0.8633396
          241         242         243         244         245         246
    1   0.8657907   0.8667359   0.8735765   0.8731988   0.8853982   0.8858240
          247         248         249         250         251         252
    1   0.9027072   0.9107765   0.9143336   0.9146424   0.9162509   0.9150294
          253         254         255         256         257         258
    1   0.9232209   0.9256614   0.9304601   0.9342646   0.9369695   0.9374792
          259         260         261         262         263         264
    1   0.9385734   0.9429458   0.9433213   0.9469814   0.9520449   0.9523405
          265         266         267         268         269         270
    1   0.9586477   0.9606430   0.9610030   0.9713058   0.9710551   0.9858176
          271         272         273         274         275         276
    1   1.0088903   1.0104929   1.0116654   1.0119973   1.0113099   1.0138960
          277         278         279         280         281         282
    1   1.0336980   1.0378053   1.0394207   1.0521935   1.0564381   1.0662034
          283         284         285         286         287         288
    1   1.0694587   1.0775999   1.0884789   1.0937369   1.0979626   1.1009348
          289         290         291         292         293         294
    1   1.1089101   1.1102767   1.1126923   1.1159769   1.1248168   1.1315960
          295         296         297         298         299         300
    1   1.1521231   1.1558584   1.1625628   1.1710493   1.1730804   1.1795987
          301         302         303         304         305         306
    1   1.1824247   1.1880159   1.1923651   1.1987432   1.2006324   1.2171494
          307         308         309         310         311         312
    1   1.2230548   1.2285202   1.2336484   1.2565557   1.2687533   1.2737841
          313         314         315         316         317         318
    1   1.2794350   1.2824480   1.2999028   1.3040425   1.3122877   1.3525329
          319         320         321         322         323         324
    1   1.3570908   1.3593547   1.3597481   1.3627875   1.3643138   1.3657987
          325         326         327         328         329         330
    1   1.3683736   1.3837869   1.3904840   1.4084691   1.4129991   1.4194389
          331         332         333         334         335         336
    1   1.4193435   1.4230662   1.4346995   1.4544807   1.4581424   1.4590576
          337         338         339         340         341         342
    1   1.4657872   1.4720235   1.4876197   1.4866037   1.4909485   1.4914561
          343         344         345         346         347         348
    1   1.5007824   1.5047093   1.5048758   1.5239847   1.5297345   1.5325887
          349         350         351         352         353         354
    1   1.5396607   1.5495396   1.5499668   1.5623197   1.5739310   1.5901773
          355         356         357         358         359         360
    1   1.5902595   1.5929962   1.5965871   1.5981535   1.6111321   1.6131346
          361         362         363         364         365         366
    1   1.6343982   1.6547157   1.6586456   1.6577492   1.6655290   1.6858626
          367         368         369         370         371         372
    1   1.6934020   1.6947667   1.6909661   1.7052488   1.7140538   1.7204823
          373         374         375         376         377         378
    1   1.7275566   1.7322314   1.7385403   1.7413734   1.7429199   1.7485461
          379         380         381         382         383         384
    1   1.7513478   1.7650935   1.7690455   1.7763304   1.7771940   1.7851620
          385         386         387         388         389         390
    1   1.7987896   1.8015090   1.8057506   1.8108257   1.8096695   1.8245625
          391         392         393         394         395         396
    1   1.8301468   1.8326352   1.8367109   1.8399468   1.8462780   1.8514583
          397         398         399         400         401         402
    1   1.8728080   1.8745670   1.8829933   1.8814724   1.8840357   1.9105471
          403         404         405         406         407         408
    1   1.9263225   1.9296191   1.9340556   1.9348652   1.9356549   1.9407969
          409         410         411         412         413         414
    1   1.9398117   1.9587031   1.9669494   1.9718261   1.9723380   1.9780674
          415         416         417         418         419         420
    1   1.9814798   1.9834988   1.9841214   1.9946902   1.9947537   1.9951141
          421         422         423         424         425         426
    1   2.0013866   2.0149826   2.0359258   2.0364614   2.0619325   2.0633181
          427         428         429         430         431         432
    1   2.0802672   2.0856991   2.0999432   2.1063167   2.1100946   2.1387824
          433         434         435         436         437         438
    1   2.1469226   2.1493506   2.1513587   2.1615295   2.1782222   2.1812994
          439         440         441         442         443         444
    1   2.1859633   2.1925510   2.1966140   2.1996087   2.2013747   2.2076682
          445         446         447         448         449         450
    1   2.2202599   2.2271248   2.2327279   2.2478857   2.2597489   2.2629128
          451         452         453         454         455         456
    1   2.2723690   2.2748125   2.2842915   2.2940643   2.3218406   2.3271976
          457         458         459         460         461         462
    1   2.3379843   2.3506944   2.3575976   2.3743899   2.3837217   2.4054184
          463         464         465         466         467         468
    1   2.4183149   2.4303025   2.4316156   2.4497472   2.4639720   2.4735118
          469         470         471         472         473         474
    1   2.4723699   2.4823959   2.4834995   2.4846316   2.4869597   2.5002564
          475         476         477         478         479         480
    1   2.5081769   2.5098331   2.5125077   2.5159944   2.5184021   2.5232046
          481         482         483         484         485         486
    1   2.5250972   2.5324870   2.5390410   2.5454320   2.5574721   2.5908562
          487         488         489         490         491         492
    1   2.5951642   2.5996508   2.6148226   2.6240259   2.6346239   2.6346714
          493         494         495         496         497         498
    1   2.6398664   2.6422219   2.6433986   2.6645681   2.6806101   2.6837404
          499         500         501         502         503         504
    1   2.7267347   2.7382002   2.7390150   2.7498989   2.7544211   2.7635282
          505         506         507         508         509         510
    1   2.7651106   2.7728811   2.7751059   2.7962487   2.7974604   2.8151089
          511         512         513         514         515         516
    1   2.8225901   2.8291285   2.8384098   2.8519597   2.8522587   2.8597982
          517         518         519         520         521         522
    1   2.8719466   2.8831527   2.8887255   2.8886891   2.9124002   2.9139791
          523         524         525         526         527         528
    1   2.9250218   2.9317275   2.9405585   2.9597614   2.9635475   2.9648140
          529         530         531         532         533         534
    1   2.9658970   2.9713045   2.9716385   2.9830986   2.9853097   3.0021708
          535         536         537         538         539         540
    1   3.0029906   3.0178440   3.0189570   3.0238994   3.0534525   3.0548601
          541         542         543         544         545         546
    1   3.0589645   3.0604695   3.0628148   3.0637228   3.0693223   3.0737265
          547         548         549         550         551         552
    1   3.0954048   3.1069650   3.1073793   3.1082722   3.1126094   3.1138451
          553         554         555         556         557         558
    1   3.1165557   3.1177475   3.1225718   3.1261027   3.1389509   3.1390163
          559         560         561         562         563         564
    1   3.1420968   3.1447548   3.1556477   3.1557750   3.1661683   3.1748398
          565         566         567         568         569         570
    1   3.1778186   3.1821415   3.1890770   3.1900761   3.1911364   3.1902737
          571         572         573         574         575         576
    1   3.1912757   3.1957585   3.1990851   3.1985931   3.2091994   3.2170206
          577         578         579         580         581         582
    1   3.2190497   3.2253237   3.2300821   3.2414172   3.2496468   3.2595032
          583         584         585         586         587         588
    1   3.2617509   3.2606738   3.2671924   3.2703470   3.2707912   3.2713647
          589         590         591         592         593         594
    1   3.2787015   3.2806793   3.2846543   3.2888568   3.2941368   3.3059614
          595         596         597         598         599         600
    1   3.3090853   3.3189397   3.3271500   3.3345115   3.3400309   3.3455384
          601         602         603         604         605         606
    1   3.3518953   3.3652886   3.3710053   3.3727816   3.3734745   3.3780444
          607         608         609         610         611         612
    1   3.3822950   3.3842140   3.3886073   3.3956029   3.3959011   3.4087099
          613         614         615         616         617         618
    1   3.4098016   3.4178428   3.4188775   3.4291804   3.4334491   3.4381438
          619         620         621         622         623         624
    1   3.4466531   3.4522112   3.4561449   3.4598098   3.4641721   3.4646340
          625         626         627         628         629         630
    1   3.4705272   3.4755062   3.4803237   3.4872920   3.5094758   3.5115040
          631         632         633         634         635         636
    1   3.5149053   3.5208142   3.5216064   3.5224994   3.5234024   3.5511480
          637         638         639         640         641         642
    1   3.5546674   3.5523431   3.5593600   3.5631673   3.5722736   3.5825252
          643         644         645         646         647         648
    1   3.5822559   3.6080220   3.6101894   3.6108844   3.6124950   3.6160781
          649         650         651         652         653         654
    1   3.6206295   3.6354643   3.6346618   3.6411485   3.6432713   3.6488949
          655         656         657         658         659         660
    1   3.6493966   3.6506520   3.6588929   3.6634944   3.6669925   3.6761457
          661         662         663         664         665         666
    1   3.6857553   3.6971800   3.6999848   3.7059704   3.7101162   3.7145052
          667         668         669         670         671         672
    1   3.7173906   3.7195087   3.7360359   3.7380287   3.7388155   3.7406430
          673         674         675         676         677         678
    1   3.7444520   3.7624712   3.7673596   3.7671659   3.7690100   3.7742434
          679         680         681         682         683         684
    1   3.7797309   3.7827707   3.7908214   3.7966372   3.8051601   3.8095192
          685         686         687         688         689         690
    1   3.8148280   3.8178062   3.8290475   3.8306109   3.8372086   3.8391669
          691         692         693         694         695         696
    1   3.8405597   3.8671023   3.8709362   3.8743572   3.8754601   3.8888024
          697         698         699         700         701         702
    1   3.8905722   3.8942888   3.9036137   3.9058492   3.9136188   3.9139462
          703         704         705         706         707         708
    1   3.9162522   3.9350846   3.9378038   3.9480972   3.9515198   3.9583407
          709         710         711         712         713         714
    1   3.9625712   3.9763822   3.9813644   4.0082325   4.0137898   4.0188044
          715         716         717         718         719         720
    1   4.0183222   4.0287006   4.0343562   4.0382234   4.0458202   4.0614201
          721         722         723         724         725         726
    1   4.1005371   4.1006148   4.1151197   4.1182063   4.1188672   4.1294986
          727         728         729         730         731         732
    1   4.1308836   4.1509636   4.1877220   4.1945872   4.1989745   4.1998031
          733         734         735         736         737         738
    1   4.2062063   4.2218449   4.2387980   4.2437606   4.2475723   4.2645629
          739         740         741         742         743         744
    1   4.2965320   4.2996950   4.3046544   4.3055394   4.3070587   4.3164655
          745         746         747         748         749         750
    1   4.3268502   4.3563428   4.3576596   4.3692147   4.3692081   4.3841832
          751         752         753         754         755         756
    1   4.3962634   4.4057294   4.4060392   4.4056675   4.4095563   4.4126119
          757         758         759         760         761         762
    1   4.4335915   4.4360102   4.4374678   4.4405394   4.4408343   4.4580023
          763         764         765         766         767         768
    1   4.4620346   4.4759277   4.5029602   4.5171081   4.5240817   4.5312952
          769         770         771         772         773         774
    1   4.5378175   4.5388217   4.5524541   4.5524526   4.5562720   4.5642312
          775         776         777         778         779         780
    1   4.5761357   4.5806501   4.5814607   4.5822524   4.5928828   4.6029062
          781         782         783         784         785         786
    1   4.6084865   4.6212304   4.6418669   4.6434502   4.6637002   4.6819462
          787         788         789         790         791         792
    1   4.6929118   4.6979664   4.7049467   4.7114349   4.7203050   4.7351940
          793         794         795         796         797         798
    1   4.7447386   4.7639694   4.7771687   4.7823439   4.7830524   4.7861490
          799         800         801         802         803         804
    1   4.7861851   4.7905488   4.7917342   4.8192198   4.8231665   4.8722078
          805         806         807         808         809         810
    1   4.8940110   4.8979434   4.9279397   4.9389944   4.9457471   4.9759599
          811         812         813         814         815         816
    1   4.9973512   5.0013599   5.0028116   5.0131686   5.0390494   5.0416163
          817         818         819         820         821         822
    1   5.0644933   5.0662317   5.0720435   5.1152662   5.1180013   5.1686222
          823         824         825         826         827         828
    1   5.1690677   5.1830396   5.1857162   5.1890333   5.1974355   5.2029037
          829         830         831         832         833         834
    1   5.2248253   5.2409069   5.2541430   5.2723064   5.2846334   5.2885023
          835         836         837         838         839         840
    1   5.3209582   5.3280039   5.3523275   5.3555026   5.3637299   5.3794218
          841         842         843         844         845         846
    1   5.4096610   5.4506162   5.4813587   5.4823767   5.5090524   5.5229684
          847         848         849         850         851         852
    1   5.5298011   5.5483496   5.5808283   5.5819268   5.6269270   5.6631998
          853         854         855         856         857         858
    1   5.6705344   5.7057669   5.7171442   5.7836079   5.7971017   5.8148151
          859         860         861         862         863         864
    1   5.8248517   5.8934238   5.9122111   5.9422549   5.9538579   5.9559178
          865         866         867         868         869         870
    1   5.9978587   6.0134922   6.0613377   6.0968505   6.1011732   6.1087801
          871         872         873         874         875         876
    1   6.1342642   6.1934097   6.2031397   6.3216590   6.5342221   6.6848815
          877         878         879         880         881         882
    1  22.9389321  23.4086779  23.7069856  23.7235227  23.7712981  23.7712363
          883         884         885         886         887         888
    1  23.7729671  23.8133465  23.8904987  23.9200496  23.9622626  23.9875782
          889         890         891         892         893         894
    1  23.9938207  24.0027706  24.0034092  24.0263907  24.0633403  24.1125092
          895         896         897         898         899         900
    1  24.1134930  24.2821730  24.3057226  24.4632732  24.4926748  24.7103570
          901         902
    1  24.9132391  25.0488248
 Final Beta MO Eigenvalues
            1           2           3           4           5           6
    1 -11.2481761 -11.2473387 -11.2462481 -11.2462476 -11.2453177 -11.2453170
            7           8           9          10          11          12
    1 -11.2431499 -11.2431497 -11.2421083 -11.2421083 -11.2378736 -11.2378661
           13          14          15          16          17          18
    1 -11.2378071 -11.2378079 -11.2365910 -11.2365910 -11.2365886 -11.2365886
           19          20          21          22          23          24
    1 -11.2353074 -11.2353072 -11.2350594 -11.2350594 -11.2338735 -11.2338735
           25          26          27          28          29          30
    1 -11.2330343 -11.2330342  -1.1934733  -1.1835343  -1.1599733  -1.1303054
           31          32          33          34          35          36
    1  -1.0946030  -1.0706806  -1.0593578  -1.0425171  -1.0362403  -1.0061577
           37          38          39          40          41          42
    1  -1.0070261  -0.9733012  -0.9200972  -0.9160872  -0.8618833  -0.8489274
           43          44          45          46          47          48
    1  -0.8220715  -0.8198111  -0.8103915  -0.8023692  -0.7997195  -0.7351743
           49          50          51          52          53          54
    1  -0.7159905  -0.7013574  -0.6906717  -0.6762588  -0.6667000  -0.6409918
           55          56          57          58          59          60
    1  -0.6336231  -0.6292112  -0.6260566  -0.6254324  -0.5936456  -0.5895625
           61          62          63          64          65          66
    1  -0.5857007  -0.5842509  -0.5817617  -0.5738093  -0.5646318  -0.5450291
           67          68          69          70          71          72
    1  -0.5456033  -0.5440901  -0.5364140  -0.5142426  -0.4991892  -0.5022044
           73          74          75          76          77          78
    1  -0.4915901  -0.4817381  -0.4767777  -0.4689935  -0.4616094  -0.4136397
           79          80          81          82          83          84
    1  -0.3996425  -0.3892429  -0.3471255  -0.3372057  -0.3029974  -0.3048353
           85          86          87          88          89          90
    1  -0.2516342   0.0104532   0.0493249   0.0832259   0.1087028   0.1220311
           91          92          93          94          95          96
    1   0.1551061   0.1449339   0.1659451   0.1552239   0.1675592   0.1569260
           97          98          99         100         101         102
    1   0.1647501   0.1577293   0.1631978   0.1721825   0.1726052   0.1863303
          103         104         105         106         107         108
    1   0.1905094   0.1989571   0.2050103   0.2111026   0.2254872   0.2278327
          109         110         111         112         113         114
    1   0.2296834   0.2451312   0.2427251   0.2459037   0.2608883   0.2627493
          115         116         117         118         119         120
    1   0.2652152   0.2711869   0.2751291   0.2851342   0.2848658   0.2928201
          121         122         123         124         125         126
    1   0.3053060   0.3034755   0.3067691   0.3141343   0.3185246   0.3284840
          127         128         129         130         131         132
    1   0.3302529   0.3370399   0.3389517   0.3437645   0.3491212   0.3572828
          133         134         135         136         137         138
    1   0.3651775   0.3638611   0.3780171   0.3856530   0.3933643   0.3968353
          139         140         141         142         143         144
    1   0.4058011   0.4002687   0.4002065   0.4103686   0.4154617   0.4267640
          145         146         147         148         149         150
    1   0.4292481   0.4260884   0.4260221   0.4298270   0.4316137   0.4448122
          151         152         153         154         155         156
    1   0.4569789   0.4609708   0.4526204   0.4555755   0.4606808   0.4706114
          157         158         159         160         161         162
    1   0.4596875   0.4642474   0.4630200   0.4647576   0.4735127   0.4847004
          163         164         165         166         167         168
    1   0.4828027   0.5005128   0.4932912   0.4997971   0.4971367   0.4967870
          169         170         171         172         173         174
    1   0.5040035   0.5060800   0.5092415   0.5099908   0.5138429   0.5179606
          175         176         177         178         179         180
    1   0.5291888   0.5292605   0.5387437   0.5389912   0.5473334   0.5532958
          181         182         183         184         185         186
    1   0.5545442   0.5674830   0.5678576   0.5722945   0.5743971   0.5799167
          187         188         189         190         191         192
    1   0.5865974   0.5910970   0.5944764   0.5990093   0.6069183   0.6110484
          193         194         195         196         197         198
    1   0.6148192   0.6130094   0.6156990   0.6225949   0.6345440   0.6407652
          199         200         201         202         203         204
    1   0.6448901   0.6460795   0.6489237   0.6463205   0.6515371   0.6529069
          205         206         207         208         209         210
    1   0.6534083   0.6610933   0.6843786   0.6754301   0.6772253   0.6790991
          211         212         213         214         215         216
    1   0.6809664   0.6869937   0.6914692   0.6994439   0.7036898   0.7133686
          217         218         219         220         221         222
    1   0.7235489   0.7248428   0.7279455   0.7480598   0.7577974   0.7698621
          223         224         225         226         227         228
    1   0.7688839   0.7793801   0.7854183   0.8071318   0.8057790   0.8179953
          229         230         231         232         233         234
    1   0.8207280   0.8205449   0.8248071   0.8265052   0.8316224   0.8352798
          235         236         237         238         239         240
    1   0.8389743   0.8446872   0.8542111   0.8622023   0.8662381   0.8695605
          241         242         243         244         245         246
    1   0.8674972   0.8680460   0.8763589   0.8794033   0.8865116   0.8870233
          247         248         249         250         251         252
    1   0.9056890   0.9221444   0.9174218   0.9170650   0.9179422   0.9260770
          253         254         255         256         257         258
    1   0.9246633   0.9275571   0.9362278   0.9364034   0.9382925   0.9395969
          259         260         261         262         263         264
    1   0.9436056   0.9451249   0.9455536   0.9575370   0.9543666   0.9539409
          265         266         267         268         269         270
    1   0.9603528   0.9630339   0.9696365   0.9749355   0.9760940   0.9878703
          271         272         273         274         275         276
    1   1.0096580   1.0117469   1.0129620   1.0146824   1.0202005   1.0231063
          277         278         279         280         281         282
    1   1.0356436   1.0447747   1.0417120   1.0595250   1.0591319   1.0701787
          283         284         285         286         287         288
    1   1.0715942   1.0813540   1.0910842   1.0996077   1.1000116   1.1051687
          289         290         291         292         293         294
    1   1.1108942   1.1131959   1.1222431   1.1188128   1.1285244   1.1331929
          295         296         297         298         299         300
    1   1.1547356   1.1636742   1.1646198   1.1719500   1.1799735   1.1804632
          301         302         303         304         305         306
    1   1.1842045   1.1924176   1.1980233   1.2009307   1.2075944   1.2194810
          307         308         309         310         311         312
    1   1.2266267   1.2299791   1.2358372   1.2587178   1.2818729   1.2824196
          313         314         315         316         317         318
    1   1.2821532   1.2848926   1.3026190   1.3115047   1.3167483   1.3609545
          319         320         321         322         323         324
    1   1.3599451   1.3613547   1.3607466   1.3643920   1.3653254   1.3703245
          325         326         327         328         329         330
    1   1.3719305   1.3855361   1.3981073   1.4096791   1.4144584   1.4229893
          331         332         333         334         335         336
    1   1.4235059   1.4298473   1.4359201   1.4566177   1.4591504   1.4606383
          337         338         339         340         341         342
    1   1.4711121   1.4735862   1.4882742   1.4910898   1.4927054   1.4945391
          343         344         345         346         347         348
    1   1.5029686   1.5078677   1.5077509   1.5248068   1.5324925   1.5387902
          349         350         351         352         353         354
    1   1.5417815   1.5518247   1.5563252   1.5673521   1.5781019   1.5946561
          355         356         357         358         359         360
    1   1.5951720   1.6032878   1.6001635   1.6016782   1.6125482   1.6143941
          361         362         363         364         365         366
    1   1.6353806   1.6557657   1.6600000   1.6669165   1.6682385   1.6955810
          367         368         369         370         371         372
    1   1.6942824   1.6961913   1.7078657   1.7125516   1.7170895   1.7216635
          373         374         375         376         377         378
    1   1.7296203   1.7344707   1.7406871   1.7422016   1.7510541   1.7510909
          379         380         381         382         383         384
    1   1.7604210   1.7712396   1.7704090   1.7780142   1.7839872   1.7874956
          385         386         387         388         389         390
    1   1.8002044   1.8073123   1.8078736   1.8118317   1.8163206   1.8259791
          391         392         393         394         395         396
    1   1.8307478   1.8341538   1.8379810   1.8497304   1.8498155   1.8547769
          397         398         399         400         401         402
    1   1.8737355   1.8838262   1.8853544   1.8906958   1.8867467   1.9156082
          403         404         405         406         407         408
    1   1.9297631   1.9312440   1.9372876   1.9368661   1.9364934   1.9432519
          409         410         411         412         413         414
    1   1.9450711   1.9691709   1.9686391   1.9735580   1.9754092   1.9842905
          415         416         417         418         419         420
    1   1.9828698   1.9844358   1.9867415   1.9952458   1.9954293   1.9980944
          421         422         423         424         425         426
    1   2.0080928   2.0159731   2.0379942   2.0377216   2.0678678   2.0663910
          427         428         429         430         431         432
    1   2.0831868   2.0885522   2.1011856   2.1148770   2.1158847   2.1433093
          433         434         435         436         437         438
    1   2.1487678   2.1502703   2.1528718   2.1656720   2.1800868   2.1893369
          439         440         441         442         443         444
    1   2.1907231   2.1981883   2.1993896   2.2031101   2.2083973   2.2099446
          445         446         447         448         449         450
    1   2.2220354   2.2294556   2.2350186   2.2495809   2.2603271   2.2639484
          451         452         453         454         455         456
    1   2.2737659   2.2771852   2.2852866   2.2956729   2.3229640   2.3289327
          457         458         459         460         461         462
    1   2.3423155   2.3527602   2.3611542   2.3779720   2.3871628   2.4076133
          463         464         465         466         467         468
    1   2.4195318   2.4319680   2.4343029   2.4532768   2.4688058   2.4753077
          469         470         471         472         473         474
    1   2.4772632   2.4872290   2.4865216   2.4880544   2.4884203   2.5027278
          475         476         477         478         479         480
    1   2.5126916   2.5133420   2.5167179   2.5204959   2.5196061   2.5250377
          481         482         483         484         485         486
    1   2.5298277   2.5342180   2.5399601   2.5490523   2.5602439   2.5934756
          487         488         489         490         491         492
    1   2.5971628   2.6013736   2.6160984   2.6270839   2.6357312   2.6382024
          493         494         495         496         497         498
    1   2.6410937   2.6451244   2.6447916   2.6671544   2.6849901   2.6875664
          499         500         501         502         503         504
    1   2.7326782   2.7404478   2.7399936   2.7552931   2.7558870   2.7641284
          505         506         507         508         509         510
    1   2.7659045   2.7759372   2.7800319   2.7980132   2.7991314   2.8194233
          511         512         513         514         515         516
    1   2.8287568   2.8327901   2.8402378   2.8533965   2.8591827   2.8612361
          517         518         519         520         521         522
    1   2.8734260   2.8846161   2.8897189   2.8911176   2.9148473   2.9177303
          523         524         525         526         527         528
    1   2.9268109   2.9352450   2.9466443   2.9621492   2.9647360   2.9660481
          529         530         531         532         533         534
    1   2.9674027   2.9717080   2.9722982   2.9850046   2.9870734   3.0043288
          535         536         537         538         539         540
    1   3.0079902   3.0208199   3.0246881   3.0254795   3.0543135   3.0571622
          541         542         543         544         545         546
    1   3.0599563   3.0619673   3.0639691   3.0661979   3.0705705   3.0767682
          547         548         549         550         551         552
    1   3.0995989   3.1085253   3.1096434   3.1109257   3.1176662   3.1231083
          553         554         555         556         557         558
    1   3.1202922   3.1194712   3.1259576   3.1282025   3.1406881   3.1408876
          559         560         561         562         563         564
    1   3.1445127   3.1472341   3.1590404   3.1595784   3.1676043   3.1769390
          565         566         567         568         569         570
    1   3.1837221   3.1845254   3.1901147   3.1946616   3.1932428   3.1959948
          571         572         573         574         575         576
    1   3.1973639   3.1975816   3.2062036   3.2086842   3.2117276   3.2211149
          577         578         579         580         581         582
    1   3.2209223   3.2270536   3.2314236   3.2438643   3.2524774   3.2654166
          583         584         585         586         587         588
    1   3.2652907   3.2677711   3.2699427   3.2729891   3.2754469   3.2758486
          589         590         591         592         593         594
    1   3.2812281   3.2847956   3.2865360   3.2920253   3.2968884   3.3072836
          595         596         597         598         599         600
    1   3.3107413   3.3211432   3.3284099   3.3373156   3.3437146   3.3475614
          601         602         603         604         605         606
    1   3.3549248   3.3685339   3.3768189   3.3747813   3.3754894   3.3841749
          607         608         609         610         611         612
    1   3.3836194   3.3938083   3.3939588   3.3980788   3.3989753   3.4132476
          613         614         615         616         617         618
    1   3.4114509   3.4203986   3.4217879   3.4333195   3.4350258   3.4440328
          619         620         621         622         623         624
    1   3.4543682   3.4563536   3.4577440   3.4618265   3.4663676   3.4662402
          625         626         627         628         629         630
    1   3.4720419   3.4773152   3.4837913   3.4884563   3.5107144   3.5131498
          631         632         633         634         635         636
    1   3.5166443   3.5220793   3.5229288   3.5236988   3.5249587   3.5545264
          637         638         639         640         641         642
    1   3.5558695   3.5635672   3.5629680   3.5647953   3.5742471   3.5837107
          643         644         645         646         647         648
    1   3.5884834   3.6128784   3.6117476   3.6123289   3.6147571   3.6241442
          649         650         651         652         653         654
    1   3.6245607   3.6361220   3.6439192   3.6441835   3.6468533   3.6498733
          655         656         657         658         659         660
    1   3.6517168   3.6585362   3.6594874   3.6658257   3.6692410   3.6794629
          661         662         663         664         665         666
    1   3.6879516   3.6977216   3.7007285   3.7124805   3.7107178   3.7186038
          667         668         669         670         671         672
    1   3.7221058   3.7226515   3.7396294   3.7398778   3.7396604   3.7436808
          673         674         675         676         677         678
    1   3.7458898   3.7640075   3.7686324   3.7697039   3.7710869   3.7789134
          679         680         681         682         683         684
    1   3.7812277   3.7901196   3.7941485   3.7984737   3.8077205   3.8116656
          685         686         687         688         689         690
    1   3.8173764   3.8213999   3.8307750   3.8312793   3.8413702   3.8429538
          691         692         693         694         695         696
    1   3.8416521   3.8683938   3.8718820   3.8760799   3.8779389   3.8913409
          697         698         699         700         701         702
    1   3.8932673   3.8950288   3.9042466   3.9123014   3.9154764   3.9163141
          703         704         705         706         707         708
    1   3.9179799   3.9363257   3.9409388   3.9491869   3.9532489   3.9591090
          709         710         711         712         713         714
    1   3.9647833   3.9789615   3.9823570   4.0112061   4.0149397   4.0197030
          715         716         717         718         719         720
    1   4.0215350   4.0318568   4.0381550   4.0417793   4.0485828   4.0628162
          721         722         723         724         725         726
    1   4.1018636   4.1039821   4.1193469   4.1194357   4.1220628   4.1343379
          727         728         729         730         731         732
    1   4.1327538   4.1522522   4.1902728   4.1959540   4.1998108   4.2017809
          733         734         735         736         737         738
    1   4.2082749   4.2228205   4.2398275   4.2446514   4.2486250   4.2660918
          739         740         741         742         743         744
    1   4.2978709   4.3012753   4.3050472   4.3070990   4.3073806   4.3177357
          745         746         747         748         749         750
    1   4.3302735   4.3578186   4.3596794   4.3713481   4.3731510   4.3856555
          751         752         753         754         755         756
    1   4.3994133   4.4078421   4.4081507   4.4104821   4.4106525   4.4171864
          757         758         759         760         761         762
    1   4.4351039   4.4400801   4.4381370   4.4409862   4.4431605   4.4617216
          763         764         765         766         767         768
    1   4.4653782   4.4784003   4.5042041   4.5197226   4.5264759   4.5333428
          769         770         771         772         773         774
    1   4.5391489   4.5413399   4.5539254   4.5542186   4.5571709   4.5658204
          775         776         777         778         779         780
    1   4.5796494   4.5813198   4.5826097   4.5837337   4.5938258   4.6064485
          781         782         783         784         785         786
    1   4.6097870   4.6244355   4.6435060   4.6446742   4.6649334   4.6829680
          787         788         789         790         791         792
    1   4.6940303   4.6997719   4.7053458   4.7137672   4.7222827   4.7369995
          793         794         795         796         797         798
    1   4.7460514   4.7648797   4.7796725   4.7852693   4.7852814   4.7877476
          799         800         801         802         803         804
    1   4.7900047   4.7953344   4.7957926   4.8231984   4.8244290   4.8746282
          805         806         807         808         809         810
    1   4.8954756   4.8995619   4.9288129   4.9416596   4.9476819   4.9775682
          811         812         813         814         815         816
    1   4.9989043   5.0026274   5.0042187   5.0145048   5.0414810   5.0438995
          817         818         819         820         821         822
    1   5.0660382   5.0673042   5.0746244   5.1158263   5.1195272   5.1696043
          823         824         825         826         827         828
    1   5.1716291   5.1835369   5.1874559   5.1907043   5.1980519   5.2040167
          829         830         831         832         833         834
    1   5.2256999   5.2419276   5.2566995   5.2729965   5.2881328   5.2919627
          835         836         837         838         839         840
    1   5.3229723   5.3290342   5.3531756   5.3564646   5.3644329   5.3812267
          841         842         843         844         845         846
    1   5.4110201   5.4521678   5.4827390   5.4836019   5.5099912   5.5243760
          847         848         849         850         851         852
    1   5.5318999   5.5488220   5.5813166   5.5829893   5.6291850   5.6637542
          853         854         855         856         857         858
    1   5.6718391   5.7067177   5.7182046   5.7846820   5.7978374   5.8153769
          859         860         861         862         863         864
    1   5.8254502   5.8943459   5.9133500   5.9433822   5.9550830   5.9571355
          865         866         867         868         869         870
    1   5.9993079   6.0144925   6.0621422   6.0976584   6.1021097   6.1099632
          871         872         873         874         875         876
    1   6.1352571   6.1954607   6.2047586   6.3225082   6.5349726   6.6859889
          877         878         879         880         881         882
    1  22.9396238  23.4088673  23.7073760  23.7255161  23.7714637  23.7718729
          883         884         885         886         887         888
    1  23.7731264  23.8136961  23.8921820  23.9220340  23.9625041  23.9884102
          889         890         891         892         893         894
    1  23.9970892  24.0035729  24.0041288  24.0268696  24.0640689  24.1137184
          895         896         897         898         899         900
    1  24.1149348  24.2825231  24.3066697  24.4655019  24.4931125  24.7107498
          901         902
    1  24.9135481  25.0491744
 SCF time:   CPU 8262.93s  wall 8311.00s 
<S^2> =          2.000000000
 SCF   energy in the final basis set =     -994.2158087664
 Total energy in the final basis set =     -994.2158087664

 Q-Chem warning in module 0, line  204:

 Quadrupole field failed to resolve orbital degeneracies.


 Q-Chem warning in module 0, line  204:

 Quadrupole field failed to resolve orbital degeneracies.

  
     ##========================================##
     ||                                        ||
     ||              R A S M A N 2             ||
     ||________________________________________||
     ||                                        ||
     ||  Author:                               ||
     ||                                        ||
     ||        David Casanova (2010)           ||
     ||                                        ||
     ##========================================##
  
Setting single-point xc-functionals (if necessary)

  ***************************************************
  *  RAS-CI Dimensions:                             *
  *                                                 *
  *  Active Elec.:   6 ( 4, 2)   Active Orb.:  10   *
  *  Doubly Occ. :  83           Doubly Vir.: 809   *
  *  Frozen Occ. :  63           Frozen Vir.: 789   *
  *                                                 *
  *  Total CI configurations:    890250             * 
  *    Active configurations:      9450             * 
  *      Hole configurations:    730800             * 
  *  Particle configurations:    150000             * 
  *                                                 *
  *   Requested states:       20                    *
  *  Spin multiplicity: Any multiplicity            *
  *                                                 *
  ***************************************************
-----------------------------------------
    Memory requirements of RASCI

 Each CI-vector requires      6.79 MiB 
 Max. subspace vectors           3000      

 Reduced Lists                0.01 MiB 
 Excitation Lists             0.01 MiB 
 Excitation Lists Sign        0.01 MiB 
 CI-space (Max)           20580.73 MiB 
 Integrals                 1111.83 MiB 
 Memory required (Max)    20580.76 MiB 
 Memory available          7811.55 MiB 

 Q-Chem warning in module rasman2/ras_mem_check.C, line 162:

 Static memory may be insufficient to store the subspace vectors


    Disk requirements of RASCI

 Fock matrix                 12.41 MiB 
 2-electron integrals         3.81 MiB 
 CI-space                 40752.41 MiB 
 Disk required            40768.64 MiB 
-----------------------------------------
  
RAS1 HF-like energy:           -989.4264379906
 Computing integrals
 Computing J and K matrices
 Computing addressing
 Making amplitude guesses
 
Direct CI diagonalization
 ---------------------------------------------------
 Iter    Rts Conv    Rts Left    Ttl Dev     Max Dev
 ---------------------------------------------------
   1         0          20      0.001080    0.000117
   2         0          20      0.001068    0.000133
   3         0          20      0.001245    0.000152
   4         0          20      0.000974    0.000108
   5         1          19      0.001057    0.000137
   6         1          19      0.000820    0.000096
   7         1          19      0.000516    0.000061
   8         1          19      0.000343    0.000037
   9         2          18      0.000236    0.000036
  10         2          18      0.000196    0.000036
  11         6          14      0.000156    0.000052
  12         9          11      0.000097    0.000032
  13        12           8      0.000064    0.000021
  14        12           8      0.000042    0.000014
  15        13           7      0.000027    0.000008
  16        16           4      0.000017    0.000005
  17        17           3      0.000013    0.000003
  18        19           1      0.000010    0.000002
  19        19           1      0.000008    0.000001
  20        20           0      0.000007    0.000001    Roots Converged
 ---------------------------------------------------
   
**************************************************
 RAS-CI total energy for state   1:   -994.217694789238
  Excitation energy (eV) =  0.000000000000
  State symmetry: A1  (C1       )
  <S^2>      :  2.0000
  Dipole Moment:    0.0000 X     0.0000 Y    -0.0026 Z
 NATURAL OCCUPATION NUMBERS (higher than 1.0E-05)
            1           2           3           4           5           6
    1   2.0000000   2.0000000   2.0000000   2.0000000   2.0000000   2.0000000
            7           8           9          10          11          12
    1   2.0000000   2.0000000   2.0000000   2.0000000   2.0000000   2.0000000
           13          14          15          16          17          18
    1   2.0000000   2.0000000   2.0000000   2.0000000   2.0000000   2.0000000
           19          20          21          22          23          24
    1   2.0000000   2.0000000   2.0000000   2.0000000   2.0000000   2.0000000
           25          26          27          28          29          30
    1   2.0000000   2.0000000   2.0000000   2.0000000   2.0000000   2.0000000
           31          32          33          34          35          36
    1   2.0000000   2.0000000   2.0000000   2.0000000   2.0000000   2.0000000
           37          38          39          40          41          42
    1   2.0000000   2.0000000   2.0000000   2.0000000   2.0000000   2.0000000
           43          44          45          46          47          48
    1   2.0000000   2.0000000   2.0000000   2.0000000   2.0000000   2.0000000
           49          50          51          52          53          54
    1   2.0000000   2.0000000   2.0000000   2.0000000   2.0000000   2.0000000
           55          56          57          58          59          60
    1   2.0000000   2.0000000   2.0000000   2.0000000   2.0000000   2.0000000
           61          62          63          64          65          66
    1   2.0000000   2.0000000   2.0000000   1.9999999   1.9999996   1.9999992
           67          68          69          70          71          72
    1   1.9999986   1.9999981   1.9999975   1.9999970   1.9999963   1.9999950
           73          74          75          76          77          78
    1   1.9999938   1.9999899   1.9999893   1.9999813   1.9999805   1.9999802
           79          80          81          82          83          84
    1   1.9999757   1.9999471   1.9999337   1.9998915   1.9998184   1.9993363
           85          86          87          88          89          90
    1   1.9975881   0.9991537   0.9980660   0.0047305   0.0013313   0.0001774
           91          92          93          94          95
    1   0.0000466   0.0000317   0.0000210   0.0000180   0.0000140

 Head-Gordon Nu:    2.01
 Head-Gordon Nu_nl: 2.00

  Amplitudes : 
  
 | HOLE  | ALPHA      | BETA       | PART  |    AMPLITUDE 
--------------------------------------------------
 |       | 1111000000 | 1100000000 |       |     9.9747437622256E-01
--------------------------------------------------
*** Contributions RASCI wfn    Active:  99.50
                                 Hole:   0.35
                                 Part:   0.15

      Mulliken population analysis 
 ---------------------------------------------------
   Atom    Charge (a.u.)   Spin (a.u.)  
 ---------------------------------------------------
   1  C    0.275213        0.023149 
   2  C   -0.409182        0.343416 
   3  H    0.120927        0.001124 
   4  C   -0.409625        0.343419 
   5  H    0.120871        0.001124 
   6  C    0.279376        0.022592 
   7  C   -0.367573        0.072407 
   8  H    0.119467        0.000253 
   9  C    0.248586        0.023696 
  10  C   -0.269235        0.009982 
  11  H    0.122417       -0.000009 
  12  C   -0.106342        0.014856 
  13  H    0.124470        0.000108 
  14  C   -0.106604        0.014856 
  15  H    0.124482        0.000107 
  16  C   -0.268758        0.009983 
  17  H    0.122389       -0.000009 
  18  C    0.249191        0.023696 
  19  C   -0.368977        0.072403 
  20  H    0.119409        0.000253 
  21  C    0.279615        0.022593 
  22  C    0.279295        0.022592 
  23  C   -0.368264        0.072405 
  24  H    0.119475        0.000252 
  25  C    0.249328        0.023698 
  26  C   -0.269142        0.009983 
  27  H    0.122498       -0.000009 
  28  C   -0.106434        0.014857 
  29  H    0.124414        0.000108 
  30  C   -0.106434        0.014856 
  31  H    0.124418        0.000108 
  32  C   -0.269179        0.009983 
  33  H    0.122433       -0.000009 
  34  C    0.248334        0.023696 
  35  C   -0.367448        0.072409 
  36  H    0.119522        0.000252 
  37  C    0.278844        0.022592 
  38  C   -0.408475        0.343428 
  39  H    0.120907        0.001125 
  40  C    0.274276        0.023150 
  41  C   -0.409355        0.343403 
  42  H    0.120870        0.001124 
 ---------------------------------------------------
   Sum:   -0.000000        2.000000 
 ---------------------------------------------------
 
  
 NATURAL OCCUPATION NUMBERS (higher than 1.0E-05)
            1           2           3           4           5           6
    1   2.0000000   2.0000000   2.0000000   2.0000000   2.0000000   2.0000000
            7           8           9          10          11          12
    1   2.0000000   2.0000000   2.0000000   2.0000000   2.0000000   2.0000000
           13          14          15          16          17          18
    1   2.0000000   2.0000000   2.0000000   2.0000000   2.0000000   2.0000000
           19          20          21          22          23          24
    1   2.0000000   2.0000000   2.0000000   2.0000000   2.0000000   2.0000000
           25          26          27          28          29          30
    1   2.0000000   2.0000000   2.0000000   2.0000000   2.0000000   2.0000000
           31          32          33          34          35          36
    1   2.0000000   2.0000000   2.0000000   2.0000000   2.0000000   2.0000000
           37          38          39          40          41          42
    1   2.0000000   2.0000000   2.0000000   2.0000000   2.0000000   2.0000000
           43          44          45          46          47          48
    1   2.0000000   2.0000000   2.0000000   2.0000000   2.0000000   2.0000000
           49          50          51          52          53          54
    1   2.0000000   2.0000000   2.0000000   2.0000000   2.0000000   2.0000000
           55          56          57          58          59          60
    1   2.0000000   2.0000000   2.0000000   2.0000000   2.0000000   2.0000000
           61          62          63          64          65          66
    1   2.0000000   2.0000000   2.0000000   1.9999999   1.9999996   1.9999992
           67          68          69          70          71          72
    1   1.9999986   1.9999981   1.9999975   1.9999970   1.9999963   1.9999950
           73          74          75          76          77          78
    1   1.9999938   1.9999899   1.9999893   1.9999813   1.9999805   1.9999802
           79          80          81          82          83          84
    1   1.9999757   1.9999471   1.9999337   1.9998915   1.9998184   1.9993363
           85          86          87          88          89          90
    1   1.9975881   0.9991537   0.9980660   0.0047305   0.0013313   0.0001774
           91          92          93          94          95
    1   0.0000466   0.0000317   0.0000210   0.0000180   0.0000140
  
*** Unpaired Electrons
 Yamaguchi Nd:         2.02
 Head-Gordon Nu:       2.01
 Head-Gordon Nu_nl:    2.00
  
**************************************************
 RAS-CI total energy for state   2:   -994.132512141347
  Excitation energy (eV) =  2.317937782106
  State symmetry: A1  (C1       )
  <S^2>      :  2.0000
  Dipole Moment:    0.0000 X     0.0000 Y    -0.0027 Z
  Trans. Moment:    0.2011 X     0.0000 Y     0.0000 Z
  Strength   :  0.002296
  Natural transition orbitals ( 1 -> 2 ):
   e-/hole pair  1 alpha:  ampl =  0.659064 ( 43.4%)   [10 : 11]
   e-/hole pair  2 alpha:  ampl =  0.129025 (  1.7%)   [9 : 12]
   e-/hole pair  1 beta :  ampl =  0.717396 ( 51.5%)   [10 : 11]
   e-/hole pair  2 beta :  ampl =  0.160179 (  2.6%)   [9 : 12]
   Sum of square amplitudes: 0.99

 NATURAL OCCUPATION NUMBERS (higher than 1.0E-05)
            1           2           3           4           5           6
    1   2.0000000   2.0000000   2.0000000   2.0000000   2.0000000   2.0000000
            7           8           9          10          11          12
    1   2.0000000   2.0000000   2.0000000   2.0000000   2.0000000   2.0000000
           13          14          15          16          17          18
    1   2.0000000   2.0000000   2.0000000   2.0000000   2.0000000   2.0000000
           19          20          21          22          23          24
    1   2.0000000   2.0000000   2.0000000   2.0000000   2.0000000   2.0000000
           25          26          27          28          29          30
    1   2.0000000   2.0000000   2.0000000   2.0000000   2.0000000   2.0000000
           31          32          33          34          35          36
    1   2.0000000   2.0000000   2.0000000   2.0000000   2.0000000   2.0000000
           37          38          39          40          41          42
    1   2.0000000   2.0000000   2.0000000   2.0000000   2.0000000   2.0000000
           43          44          45          46          47          48
    1   2.0000000   2.0000000   2.0000000   2.0000000   2.0000000   2.0000000
           49          50          51          52          53          54
    1   2.0000000   2.0000000   2.0000000   2.0000000   2.0000000   2.0000000
           55          56          57          58          59          60
    1   2.0000000   2.0000000   2.0000000   2.0000000   2.0000000   2.0000000
           61          62          63          64          65          66
    1   2.0000000   2.0000000   2.0000000   2.0000000   1.9999999   1.9999997
           67          68          69          70          71          72
    1   1.9999996   1.9999995   1.9999987   1.9999984   1.9999984   1.9999975
           73          74          75          76          77          78
    1   1.9999971   1.9999971   1.9999945   1.9999819   1.9999818   1.9999755
           79          80          81          82          83          84
    1   1.9999693   1.9999528   1.9999120   1.9999105   1.9970425   1.9741906
           85          86          87          88          89          90
    1   1.4993540   1.4829051   0.5886031   0.4365636   0.0192297   0.0017595
           91          92          93
    1   0.0005474   0.0000829   0.0000299

 Head-Gordon Nu:    2.09
 Head-Gordon Nu_nl: 2.31

  Amplitudes : 
  
 | HOLE  | ALPHA      | BETA       | PART  |    AMPLITUDE 
--------------------------------------------------
 |  77   | 1111000000 | 1110000000 |       |    -1.5820540103636E-01
 |  79   | 1111000000 | 1110000000 |       |    -3.0863413842365E-01
 |  83   | 1111000000 | 1110000000 |       |     6.2973630784079E-01
 |  76   | 1111000000 | 1101000000 |       |     1.0223380996146E-01
 |       | 1110000000 | 1100000000 |  94   |    -5.7044502236030E-01
 |       | 1110000000 | 1100000000 |  98   |    -2.9802943256363E-01
 |       | 1110000000 | 1100000000 |  99   |     1.4934876822546E-01
--------------------------------------------------
*** Contributions RASCI wfn    Active:   0.88
                                 Hole:  54.61
                                 Part:  44.52

      Mulliken population analysis 
 ---------------------------------------------------
   Atom    Charge (a.u.)   Spin (a.u.)  
 ---------------------------------------------------
   1  C    0.300613        0.136839 
   2  C   -0.424754        0.267048 
   3  H    0.121510        0.001387 
   4  C   -0.425198        0.267048 
   5  H    0.121453        0.001387 
   6  C    0.278213        0.020250 
   7  C   -0.364032        0.093439 
   8  H    0.119849        0.000368 
   9  C    0.247530        0.019155 
  10  C   -0.269131        0.015008 
  11  H    0.122527        0.000037 
  12  C   -0.106009        0.014779 
  13  H    0.124511        0.000113 
  14  C   -0.106271        0.014779 
  15  H    0.124523        0.000112 
  16  C   -0.268654        0.015009 
  17  H    0.122498        0.000037 
  18  C    0.248135        0.019155 
  19  C   -0.365435        0.093438 
  20  H    0.119792        0.000368 
  21  C    0.278451        0.020251 
  22  C    0.278130        0.020249 
  23  C   -0.364723        0.093439 
  24  H    0.119859        0.000368 
  25  C    0.248271        0.019155 
  26  C   -0.269037        0.015008 
  27  H    0.122607        0.000037 
  28  C   -0.106099        0.014779 
  29  H    0.124453        0.000113 
  30  C   -0.106100        0.014779 
  31  H    0.124458        0.000113 
  32  C   -0.269074        0.015008 
  33  H    0.122543        0.000037 
  34  C    0.247278        0.019155 
  35  C   -0.363909        0.093440 
  36  H    0.119904        0.000368 
  37  C    0.277683        0.020251 
  38  C   -0.424055        0.267036 
  39  H    0.121487        0.001388 
  40  C    0.299682        0.136852 
  41  C   -0.424933        0.267032 
  42  H    0.121452        0.001387 
 ---------------------------------------------------
   Sum:   -0.000000        2.000000 
 ---------------------------------------------------
 
  
 NATURAL OCCUPATION NUMBERS (higher than 1.0E-05)
            1           2           3           4           5           6
    1   2.0000000   2.0000000   2.0000000   2.0000000   2.0000000   2.0000000
            7           8           9          10          11          12
    1   2.0000000   2.0000000   2.0000000   2.0000000   2.0000000   2.0000000
           13          14          15          16          17          18
    1   2.0000000   2.0000000   2.0000000   2.0000000   2.0000000   2.0000000
[...]
    7   3.7944004   0.9870229   1.2076250  -0.0213035   0.0100835   0.0246914
    8   0.9870229   0.9760610  -0.0250111   0.0025199   0.0021972   0.0002479
    9   1.2076250  -0.0250111   3.7560289   1.2477893  -0.0338266  -0.0198706
   10  -0.0213035   0.0025199   1.2477893   3.9535597   0.9870399   1.6037655
   11   0.0100835   0.0021972  -0.0338266   0.9870399   0.9743420  -0.0066940
   12   0.0246914   0.0002479  -0.0198706   1.6037655  -0.0066940   3.9214986
   13   0.0006790   0.0000254   0.0061628  -0.0098130  -0.0003908   0.9828419
   14  -0.0051135  -0.0002367   0.0269545   0.0484440   0.0067852   1.2410205
   15   0.0002089   0.0000228   0.0007663   0.0051176   0.0006354  -0.0149274
   16   0.0159937   0.0006521  -0.0221906   0.0576834   0.0007223   0.0482128
   17   0.0008599   0.0002959   0.0056746   0.0007205   0.0000401   0.0067908
   18  -0.0177122   0.0064802   1.3393018  -0.0219670   0.0056655   0.0269386
   19   0.0306763   0.0006338  -0.0174740   0.0158760   0.0008581  -0.0049692
   20   0.0006295   0.0001326   0.0064819   0.0006522   0.0002967  -0.0002352
   21  -0.0197017   0.0065640   0.0342810  -0.0049626  -0.0004464   0.0204556
   22   0.0004580   0.0000579   0.0010027  -0.0000568   0.0000184   0.0002631
   23   0.0054456   0.0000576  -0.0001973   0.0005145  -0.0000074   0.0002299
   24   0.0000565   0.0000028   0.0000126   0.0000075   0.0000006   0.0000013
   25  -0.0002053   0.0000115   0.0006578   0.0000861   0.0000100   0.0002172
   26   0.0005142   0.0000077   0.0000875   0.0001640  -0.0000013   0.0000556
   27  -0.0000074   0.0000006   0.0000101  -0.0000014   0.0000001   0.0000004
   28   0.0002287   0.0000013   0.0002176   0.0000553   0.0000004   0.0001242
   29   0.0000016   0.0000001   0.0000023   0.0000017   0.0000000   0.0000013
   30   0.0007694   0.0000053   0.0000938   0.0001016   0.0000001   0.0000460
   31   0.0000039   0.0000000   0.0000030   0.0000033   0.0000001   0.0000002
   32   0.0003494   0.0000038   0.0001214   0.0001984   0.0000066   0.0000999
   33  -0.0000081   0.0000003   0.0000088   0.0000066   0.0000006  -0.0000000
   34   0.0011768   0.0000093   0.0004372   0.0001189   0.0000090   0.0000951
   35   0.0016715  -0.0000040   0.0011487   0.0003536  -0.0000081   0.0007694
   36  -0.0000050   0.0000006   0.0000079   0.0000039   0.0000003   0.0000052
   37   0.0012040   0.0000387  -0.0005130   0.0003501   0.0000147   0.0002359
   38   0.0089122   0.0000937   0.0052679   0.0011018  -0.0000003   0.0039879
   39   0.0000854  -0.0000060   0.0000636  -0.0000040   0.0000002   0.0000261
   40  -0.0077441  -0.0003597   0.0092043   0.0007186  -0.0000096   0.0022739
   41   0.0141399   0.0005840  -0.0057075   0.0036652   0.0000587   0.0041141
   42   0.0005833   0.0002794  -0.0001555   0.0000490  -0.0000068   0.0000200
           13          14          15          16          17          18
    1   0.0000314   0.0022656   0.0000242   0.0006901  -0.0000129   0.0091764
    2  -0.0000082   0.0039845   0.0000262   0.0011184   0.0000019   0.0052682
    3   0.0000001   0.0000260   0.0000003  -0.0000036   0.0000003   0.0000619
    4   0.0000462   0.0040995   0.0000443   0.0037113   0.0000615  -0.0056846
    5   0.0000002   0.0000193   0.0000008   0.0000519  -0.0000068  -0.0001578
    6   0.0000886   0.0205515   0.0001070  -0.0051183  -0.0004519   0.0343759
    7   0.0006790  -0.0051135   0.0002089   0.0159937   0.0008599  -0.0177122
    8   0.0000254  -0.0002367   0.0000228   0.0006521   0.0002959   0.0064802
    9   0.0061628   0.0269545   0.0007663  -0.0221906   0.0056746   1.3393018
   10  -0.0098130   0.0484440   0.0051176   0.0576834   0.0007205  -0.0219670
   11  -0.0003908   0.0067852   0.0006354   0.0007223   0.0000401   0.0056655
   12   0.9828419   1.2410205  -0.0149274   0.0482128   0.0067908   0.0269386
   13   0.9715111  -0.0149264  -0.0002068   0.0051159   0.0006347   0.0007652
   14  -0.0149264   3.9217137   0.9828453   1.6036811  -0.0067504  -0.0196220
   15  -0.0002068   0.9828453   0.9715024  -0.0098240  -0.0003935   0.0061653
   16   0.0051159   1.6036811  -0.0098240   3.9529687   0.9871585   1.2475811
   17   0.0006347  -0.0067504  -0.0003935   0.9871585   0.9743316  -0.0338972
   18   0.0007652  -0.0196220   0.0061653   1.2475811  -0.0338972   3.7553509
   19   0.0002104   0.0246450   0.0006749  -0.0213120   0.0100770   1.2073347
   20   0.0000226   0.0002488   0.0000250   0.0025195   0.0021964  -0.0251073
   21   0.0001065  -0.0002776   0.0000918   0.0242641   0.0012366  -0.0291433
   22   0.0000066   0.0002241   0.0000043   0.0003643   0.0000154  -0.0005206
   23   0.0000017   0.0007693   0.0000038   0.0003484  -0.0000085   0.0011542
   24   0.0000001   0.0000053   0.0000000   0.0000036   0.0000003   0.0000082
   25   0.0000022   0.0000928   0.0000030   0.0001250   0.0000093   0.0004436
   26   0.0000017   0.0001018   0.0000033   0.0001959   0.0000065   0.0001199
   27   0.0000000   0.0000000   0.0000001   0.0000066   0.0000006   0.0000088
   28   0.0000013   0.0000459   0.0000002   0.0001012   0.0000001   0.0000934
   29   0.0000000   0.0000002   0.0000000   0.0000033   0.0000001   0.0000029
   30   0.0000002   0.0001243   0.0000013   0.0000555   0.0000004   0.0002165
   31   0.0000000   0.0000013   0.0000000   0.0000017   0.0000000   0.0000022
   32   0.0000033   0.0000571   0.0000017   0.0001605  -0.0000013   0.0000888
   33   0.0000001   0.0000005   0.0000000  -0.0000014   0.0000001   0.0000100
   34   0.0000030   0.0002152   0.0000022   0.0000886   0.0000097   0.0006560
   35   0.0000038   0.0002317   0.0000016   0.0005164  -0.0000070  -0.0001915
   36   0.0000000   0.0000014   0.0000001   0.0000068   0.0000006   0.0000135
   37   0.0000045   0.0002546   0.0000067  -0.0000442   0.0000179   0.0009922
   38   0.0000265   0.0004574  -0.0000087   0.0030166   0.0000145   0.0008718
   39   0.0000003   0.0000015   0.0000001   0.0000440   0.0000023   0.0000673
   40   0.0000236   0.0001789   0.0000321   0.0015790   0.0001147   0.0004039
   41   0.0000455   0.0002826   0.0000458   0.0057778  -0.0001249   0.0140655
   42   0.0000007   0.0000235   0.0000003  -0.0000887   0.0000446   0.0010210
           19          20          21          22          23          24
    1  -0.0076000  -0.0003562   0.0104641  -0.0319695   0.0272124   0.0012188
    2   0.0088781   0.0000949  -0.0042499   1.0860197   0.0073325   0.0083187
    3   0.0000851  -0.0000059  -0.0002176  -0.0344678   0.0079459   0.0024858
    4   0.0140316   0.0005843  -0.0224758   0.0177037   0.0256978   0.0000477
    5   0.0005790   0.0002794   0.0060457   0.0010636   0.0000076   0.0000389
    6  -0.0193513   0.0065771   1.2127999  -0.0003076   0.0004592   0.0000538
    7   0.0306763   0.0006295  -0.0197017   0.0004580   0.0054456   0.0000565
    8   0.0006338   0.0001326   0.0065640   0.0000579   0.0000576   0.0000028
    9  -0.0174740   0.0064819   0.0342810   0.0010027  -0.0001973   0.0000126
   10   0.0158760   0.0006522  -0.0049626  -0.0000568   0.0005145   0.0000075
   11   0.0008581   0.0002967  -0.0004464   0.0000184  -0.0000074   0.0000006
   12  -0.0049692  -0.0002352   0.0204556   0.0002631   0.0002299   0.0000013
   13   0.0002104   0.0000226   0.0001065   0.0000066   0.0000017   0.0000001
   14   0.0246450   0.0002488  -0.0002776   0.0002241   0.0007693   0.0000053
   15   0.0006749   0.0000250   0.0000918   0.0000043   0.0000038   0.0000000
   16  -0.0213120   0.0025195   0.0242641   0.0003643   0.0003484   0.0000036
   17   0.0100770   0.0021964   0.0012366   0.0000154  -0.0000085   0.0000003
   18   1.2073347  -0.0251073  -0.0291433  -0.0005206   0.0011542   0.0000082
   19   3.7949983   0.9872310   1.4844200   0.0012070   0.0016663  -0.0000046
   20   0.9872310   0.9761145  -0.0184227   0.0000384  -0.0000047   0.0000006
   21   1.4844200  -0.0184227   3.7445945   0.0029125   0.0012073   0.0000362
   22   0.0012070   0.0000384   0.0029125   3.7450544   1.4852070  -0.0182635
   23   0.0016663  -0.0000047   0.0012073   1.4852070   3.7964751   0.9869421
   24  -0.0000046   0.0000006   0.0000362  -0.0182635   0.9869421   0.9760927
   25   0.0011624   0.0000079  -0.0005027  -0.0289067   1.2077425  -0.0250127
   26   0.0003531   0.0000040   0.0003486   0.0241912  -0.0211762   0.0025208
   27  -0.0000082   0.0000003   0.0000143   0.0012367   0.0100998   0.0021904
   28   0.0007722   0.0000052   0.0002313  -0.0002351   0.0245690   0.0002506
   29   0.0000040   0.0000000   0.0000041   0.0000912   0.0006753   0.0000250
   30   0.0002287   0.0000014   0.0002513   0.0204422  -0.0049419  -0.0002366
   31   0.0000017   0.0000001   0.0000068   0.0001056   0.0002145   0.0000234
   32   0.0005190   0.0000071  -0.0000402  -0.0049363   0.0158332   0.0006541
   33  -0.0000076   0.0000006   0.0000181  -0.0004499   0.0008566   0.0002969
   34  -0.0002150   0.0000130   0.0009877   0.0341359  -0.0175066   0.0064742
   35   0.0054467   0.0000578   0.0004460  -0.0196536   0.0310196   0.0006357
   36   0.0000576   0.0000028   0.0000544   0.0065486   0.0006381   0.0001343
   37   0.0004266   0.0000580  -0.0002771   1.2122342  -0.0194150   0.0065706
   38   0.0257267   0.0000420   0.0177590  -0.0224547   0.0139931   0.0005768
   39   0.0000132   0.0000394   0.0010552   0.0060466   0.0005763   0.0002785
   40   0.0271276   0.0012215  -0.0319843   0.0100172  -0.0076324  -0.0003519
   41   0.0071103   0.0082980   1.0857276  -0.0041166   0.0088586   0.0000952
   42   0.0079061   0.0024764  -0.0344933  -0.0002229   0.0000851  -0.0000058
           25          26          27          28          29          30
    1   0.0003667   0.0015789   0.0001156   0.0001910   0.0000307   0.0022649
    2   0.0141082   0.0057846  -0.0001262   0.0002677   0.0000476   0.0041296
    3   0.0010112  -0.0000883   0.0000446   0.0000232   0.0000004   0.0000200
    4   0.0009014   0.0030027   0.0000150   0.0004656  -0.0000089   0.0039849
    5   0.0000750   0.0000439   0.0000024   0.0000018   0.0000001   0.0000260
    6   0.0009890  -0.0000460   0.0000187   0.0002599   0.0000069   0.0002276
    7  -0.0002053   0.0005142  -0.0000074   0.0002287   0.0000016   0.0007694
    8   0.0000115   0.0000077   0.0000006   0.0000013   0.0000001   0.0000053
    9   0.0006578   0.0000875   0.0000101   0.0002176   0.0000023   0.0000938
   10   0.0000861   0.0001640  -0.0000014   0.0000553   0.0000017   0.0001016
   11   0.0000100  -0.0000013   0.0000001   0.0000004   0.0000000   0.0000001
   12   0.0002172   0.0000556   0.0000004   0.0001242   0.0000013   0.0000460
   13   0.0000022   0.0000017   0.0000000   0.0000013   0.0000000   0.0000002
   14   0.0000928   0.0001018   0.0000000   0.0000459   0.0000002   0.0001243
   15   0.0000030   0.0000033   0.0000001   0.0000002   0.0000000   0.0000013
   16   0.0001250   0.0001959   0.0000066   0.0001012   0.0000033   0.0000555
   17   0.0000093   0.0000065   0.0000006   0.0000001   0.0000001   0.0000004
   18   0.0004436   0.0001199   0.0000088   0.0000934   0.0000029   0.0002165
   19   0.0011624   0.0003531  -0.0000082   0.0007722   0.0000040   0.0002287
   20   0.0000079   0.0000040   0.0000003   0.0000052   0.0000000   0.0000014
   21  -0.0005027   0.0003486   0.0000143   0.0002313   0.0000041   0.0002513
   22  -0.0289067   0.0241912   0.0012367  -0.0002351   0.0000912   0.0204422
   23   1.2077425  -0.0211762   0.0100998   0.0245690   0.0006753  -0.0049419
   24  -0.0250127   0.0025208   0.0021904   0.0002506   0.0000250  -0.0002366
   25   3.7561367   1.2476482  -0.0337546  -0.0200029   0.0061646   0.0271780
   26   1.2476482   3.9532070   0.9868586   1.6036830  -0.0099056   0.0483792
   27  -0.0337546   0.9868586   0.9743112  -0.0065999  -0.0003911   0.0067687
   28  -0.0200029   1.6036830  -0.0065999   3.9215321   0.9830169   1.2410400
   29   0.0061646  -0.0099056  -0.0003911   0.9830169   0.9715216  -0.0150084
   30   0.0271780   0.0483792   0.0067687   1.2410400  -0.0150084   3.9219027
   31   0.0007710   0.0051263   0.0006344  -0.0150088  -0.0002130   0.9830058
   32  -0.0220151   0.0574368   0.0007226   0.0484678   0.0051269   1.6036525
   33   0.0056583   0.0007213   0.0000407   0.0067749   0.0006339  -0.0066211
   34   1.3392834  -0.0216618   0.0056596   0.0269645   0.0007739  -0.0199468
   35  -0.0175761   0.0160204   0.0008580  -0.0051781   0.0002065   0.0247453
   36   0.0064940   0.0006435   0.0002940  -0.0002328   0.0000232   0.0002388
   37   0.0342494  -0.0051266  -0.0004490   0.0205634   0.0001091  -0.0003474
   38  -0.0057177   0.0037464   0.0000638   0.0040824   0.0000425   0.0003323
   39  -0.0001583   0.0000514  -0.0000067   0.0000189   0.0000008   0.0000243
   40   0.0091905   0.0006943  -0.0000112   0.0022615   0.0000240   0.0001799
   41   0.0052658   0.0011214   0.0000011   0.0039832   0.0000271   0.0004678
   42   0.0000628  -0.0000038   0.0000003   0.0000262   0.0000003   0.0000017
           31          32          33          34          35          36
    1   0.0000240   0.0007266  -0.0000111   0.0091073  -0.0075325  -0.0003533
    2   0.0000439   0.0036324   0.0000596  -0.0056006   0.0140308   0.0005837
    3   0.0000007   0.0000479  -0.0000068  -0.0001500   0.0005798   0.0002795
    4   0.0000269   0.0011167   0.0000006   0.0052414   0.0088598   0.0000960
    5   0.0000003  -0.0000044   0.0000002   0.0000618   0.0000849  -0.0000058
    6   0.0000043   0.0003612   0.0000158  -0.0005040   0.0011833   0.0000357
    7   0.0000039   0.0003494  -0.0000081   0.0011768   0.0016715  -0.0000050
    8   0.0000000   0.0000038   0.0000003   0.0000093  -0.0000040   0.0000006
    9   0.0000030   0.0001214   0.0000088   0.0004372   0.0011487   0.0000079
   10   0.0000033   0.0001984   0.0000066   0.0001189   0.0003536   0.0000039
   11   0.0000001   0.0000066   0.0000006   0.0000090  -0.0000081   0.0000003
   12   0.0000002   0.0000999  -0.0000000   0.0000951   0.0007694   0.0000052
   13   0.0000000   0.0000033   0.0000001   0.0000030   0.0000038   0.0000000
   14   0.0000013   0.0000571   0.0000005   0.0002152   0.0002317   0.0000014
   15   0.0000000   0.0000017   0.0000000   0.0000022   0.0000016   0.0000001
   16   0.0000017   0.0001605  -0.0000014   0.0000886   0.0005164   0.0000068
   17   0.0000000  -0.0000013   0.0000001   0.0000097  -0.0000070   0.0000006
   18   0.0000022   0.0000888   0.0000100   0.0006560  -0.0001915   0.0000135
   19   0.0000017   0.0005190  -0.0000076  -0.0002150   0.0054467   0.0000576
   20   0.0000001   0.0000071   0.0000006   0.0000130   0.0000578   0.0000028
   21   0.0000068  -0.0000402   0.0000181   0.0009877   0.0004460   0.0000544
   22   0.0001056  -0.0049363  -0.0004499   0.0341359  -0.0196536   0.0065486
   23   0.0002145   0.0158332   0.0008566  -0.0175066   0.0310196   0.0006381
   24   0.0000234   0.0006541   0.0002969   0.0064742   0.0006357   0.0001343
   25   0.0007710  -0.0220151   0.0056583   1.3392834  -0.0175761   0.0064940
   26   0.0051263   0.0574368   0.0007213  -0.0216618   0.0160204   0.0006435
   27   0.0006344   0.0007226   0.0000407   0.0056596   0.0008580   0.0002940
   28  -0.0150088   0.0484678   0.0067749   0.0269645  -0.0051781  -0.0002328
   29  -0.0002130   0.0051269   0.0006339   0.0007739   0.0002065   0.0000232
   30   0.9830058   1.6036525  -0.0066211  -0.0199468   0.0247453   0.0002388
   31   0.9715077  -0.0099212  -0.0003920   0.0061758   0.0006761   0.0000251
   32  -0.0099212   3.9528960   0.9869393   1.2473901  -0.0210320   0.0025819
   33  -0.0003920   0.9869393   0.9743904  -0.0338054   0.0101428   0.0022181
   34   0.0061758   1.2473901  -0.0338054   3.7566660   1.2082745  -0.0248918
   35   0.0006761  -0.0210320   0.0101428   1.2082745   3.7964596   0.9867242
   36   0.0000251   0.0025819   0.0022181  -0.0248918   0.9867242   0.9760790
   37   0.0000899   0.0242896   0.0012379  -0.0288362   1.4848108  -0.0182303
   38   0.0000477   0.0057430  -0.0001259   0.0139435   0.0074448   0.0083017
   39   0.0000003  -0.0000884   0.0000442   0.0010128   0.0079463   0.0024775
   40   0.0000312   0.0015513   0.0001163   0.0004918   0.0270367   0.0012209
   41  -0.0000089   0.0030001   0.0000144   0.0008992   0.0257038   0.0000457
   42   0.0000001   0.0000438   0.0000022   0.0000728   0.0000113   0.0000383
           37          38          39          40          41          42
    1   0.0104967  -0.0281622   0.0065787   1.1081999  -0.0278731   0.0065641
    2  -0.0226646  -0.0146153   0.0001022  -0.0277414   0.0262104   0.0005380
    3   0.0060298   0.0001023   0.0001814   0.0065772   0.0005317   0.0002954
    4  -0.0042576   0.0263318   0.0005347  -0.0278351  -0.0150330   0.0000948
    5  -0.0002183   0.0005407   0.0002948   0.0065707   0.0000926   0.0001803
    6   0.0029859  -0.0044153  -0.0002173   0.0106756  -0.0228575   0.0060294
    7   0.0012040   0.0089122   0.0000854  -0.0077441   0.0141399   0.0005833
    8   0.0000387   0.0000937  -0.0000060  -0.0003597   0.0005840   0.0002794
    9  -0.0005130   0.0052679   0.0000636   0.0092043  -0.0057075  -0.0001555
   10   0.0003501   0.0011018  -0.0000040   0.0007186   0.0036652   0.0000490
   11   0.0000147  -0.0000003   0.0000002  -0.0000096   0.0000587  -0.0000068
   12   0.0002359   0.0039879   0.0000261   0.0022739   0.0041141   0.0000200
   13   0.0000045   0.0000265   0.0000003   0.0000236   0.0000455   0.0000007
   14   0.0002546   0.0004574   0.0000015   0.0001789   0.0002826   0.0000235
   15   0.0000067  -0.0000087   0.0000001   0.0000321   0.0000458   0.0000003
   16  -0.0000442   0.0030166   0.0000440   0.0015790   0.0057778  -0.0000887
   17   0.0000179   0.0000145   0.0000023   0.0001147  -0.0001249   0.0000446
   18   0.0009922   0.0008718   0.0000673   0.0004039   0.0140655   0.0010210
   19   0.0004266   0.0257267   0.0000132   0.0271276   0.0071103   0.0079061
   20   0.0000580   0.0000420   0.0000394   0.0012215   0.0082980   0.0024764
   21  -0.0002771   0.0177590   0.0010552  -0.0319843   1.0857276  -0.0344933
   22   1.2122342  -0.0224547   0.0060466   0.0100172  -0.0041166  -0.0002229
   23  -0.0194150   0.0139931   0.0005763  -0.0076324   0.0088586   0.0000851
   24   0.0065706   0.0005768   0.0002785  -0.0003519   0.0000952  -0.0000058
   25   0.0342494  -0.0057177  -0.0001583   0.0091905   0.0052658   0.0000628
   26  -0.0051266   0.0037464   0.0000514   0.0006943   0.0011214  -0.0000038
   27  -0.0004490   0.0000638  -0.0000067  -0.0000112   0.0000011   0.0000003
   28   0.0205634   0.0040824   0.0000189   0.0022615   0.0039832   0.0000262
   29   0.0001091   0.0000425   0.0000008   0.0000240   0.0000271   0.0000003
   30  -0.0003474   0.0003323   0.0000243   0.0001799   0.0004678   0.0000017
   31   0.0000899   0.0000477   0.0000003   0.0000312  -0.0000089   0.0000001
   32   0.0242896   0.0057430  -0.0000884   0.0015513   0.0030001   0.0000438
   33   0.0012379  -0.0001259   0.0000442   0.0001163   0.0000144   0.0000022
   34  -0.0288362   0.0139435   0.0010128   0.0004918   0.0008992   0.0000728
   35   1.4848108   0.0074448   0.0079463   0.0270367   0.0257038   0.0000113
   36  -0.0182303   0.0083017   0.0024775   0.0012209   0.0000457   0.0000383
   37   3.7459970   1.0866056  -0.0345386  -0.0316536   0.0176283   0.0010638
   38   1.0866056   3.6461531   1.0004015   1.3710747   0.1016803   0.0093205
   39  -0.0345386   1.0004015   0.9778237  -0.0270650   0.0093015   0.0026368
   40  -0.0316536   1.3710747  -0.0270650   3.7807716   1.3714071  -0.0270393
   41   0.0176283   0.1016803   0.0093015   1.3714071   3.6449951   1.0004665
   42   0.0010638   0.0093205   0.0026368  -0.0270393   1.0004665   0.9779226


 Total job time:  76593.93s(wall), 70639.78s(cpu) 
 Sat Dec  2 10:27:29 2023

        *************************************************************
        *                                                           *
        *  Thank you very much for using Q-Chem.  Have a nice day.  *
        *                                                           *
        *************************************************************


