                  Welcome to Q-Chem
     A Quantum Leap Into The Future Of Chemistry


 Q-Chem 6.0 (devel), Q-Chem, Inc., Pleasanton, CA (2022)

 E. Epifanovsky,  A. T. B. Gilbert,  Xintian Feng,  Joonho Lee,  Yuezhi Mao,  
 N. Mardirossian,  P. Pokhilko,  A. White,  M. Wormit,  M. P. Coons,  
 A. L. Dempwolff,  Zhengting Gan,  D. Hait,  P. R. Horn,  L. D. Jacobson,  
 I. Kaliman,  J. Kussmann,  A. W. Lange,  Ka Un Lao,  D. S. Levine,  Jie Liu,  
 S. C. McKenzie,  A. F. Morrison,  K. Nanda,  F. Plasser,  D. R. Rehn,  
 M. L. Vidal,  Zhi-Qiang You,  Ying Zhu,  B. Alam,  B. Albrecht,  
 A. Aldossary,  E. Alguire,  J. H. Andersen,  V. Athavale,  D. Barton,  
 K. Begam,  A. Behn,  N. Bellonzi,  Y. A. Bernard,  E. J. Berquist,  
 H. Burton,  A. Carreras,  K. Carter-Fenk,  Romit Chakraborty,  
 Chandrima Chakravarty,  Junhan Chen,  A. D. Chien,  K. D. Closser,  
 V. Cofer-Shabica,  L. Cunha,  S. Dasgupta,  Jia Deng,  M. de Wergifosse,  
 M. Diedenhofen,  Hainam Do,  S. Ehlert,  Po-Tung Fang,  S. Fatehi,  
 Qingguo Feng,  T. Friedhoff,  B. Ganoe,  J. Gayvert,  Qinghui Ge,  
 G. Gidofalvi,  M. Goldey,  J. Gomes,  C. Gonzalez-Espinoza,  S. Gulania,  
 A. Gunina,  J. A. Gyamfi,  M. W. D. Hanson-Heine,  P. H. P. Harbach,  
 A. W. Hauser,  M. F. Herbst,  M. Hernandez Vera,  M. Hodecker,  
 Z. C. Holden,  S. Houck,  Xunkun Huang,  Kerwin Hui,  B. C. Huynh,  
 K. Ikeda,  M. Ivanov,  Hyunjun Ji,  Zuxin Jin,  Hanjie Jiang,  B. Kaduk,  
 S. Kaehler,  R. Kang,  K. Khistyaev,  Jaehoon Kim,  Yongbin Kim,  
 P. Klunzinger,  Z. Koczor-Benda,  Joong Hoon Koh,  D. Kosenkov,  
 Saikiran Kotaru,  L. Koulias,  T. Kowalczyk,  C. M. Krauter,  K. Kue,  
 A. Kunitsa,  T. Kus,  A. Landau,  K. V. Lawler,  D. Lefrancois,  S. Lehtola,  
 Rain Li,  Shaozhi Li,  Yi-Pei Li,  Jiashu Liang,  M. Liebenthal,  
 Hung-Hsuan Lin,  You-Sheng Lin,  Fenglai Liu,  Kuan-Yu Liu,  
 M. Loipersberger,  A. Luenser,  C. Malbon,  A. Manjanath,  P. Manohar,  
 E. Mansoor,  S. F. Manzer,  Shan-Ping Mao,  A. V. Marenich,  T. Markovich,  
 S. Mason,  F. Matz,  S. A. Maurer,  P. F. McLaughlin,  M. F. S. J. Menger,  
 J.-M. Mewes,  S. A. Mewes,  P. Morgante,  Mohammad Mostafanejad,  
 J. W. Mullinax,  K. J. Oosterbaan,  G. Paran,  V. Parravicini,  
 Alexander C. Paul,  Suranjan K. Paul,  F. Pavosevic,  Zheng Pei,  S. Prager,  
 E. I. Proynov,  E. Ramos,  B. Rana,  A. E. Rask,  A. Rettig,  R. M. Richard,  
 F. Rob,  E. Rossomme,  T. Scheele,  M. Scheurer,  M. Schneider,  
 P. E. Schneider,  N. Sergueev,  S. M. Sharada,  Hengyuan Shen,  
 W. Skomorowski,  D. W. Small,  C. J. Stein,  Yingli Su,  Yu-Chuan Su,  
 E. J. Sundstrom,  Zhen Tao,  J. Thirman,  Hung-Yi Tsai,  T. Tsuchimochi,  
 N. M. Tubman,  C. Utku,  S. P. Veccham,  O. Vydrov,  J. Wenzel,  
 Jonathan Wong,  J. Witte,  A. Yamada,  Chou-Hsun Yang,  Kun Yao,  
 S. Yeganeh,  S. R. Yost,  A. Zech,  F. Zeller,  Igor Ying Zhang,  
 Xing Zhang,  Yu Zhang,  D. Zuev,  A. Aspuru-Guzik,  A. T. Bell,  
 N. A. Besley,  K. B. Bravaya,  B. R. Brooks,  D. Casanova,  Jeng-Da Chai,  
 Hsing-Ta Chen,  S. Coriani,  C. J. Cramer,  A. E. DePrince, III,  
 R. A. DiStasio Jr.,  A. Dreuw,  B. D. Dunietz,  T. R. Furlani,  
 W. A. Goddard III,  S. Grimme,  S. Hammes-Schiffer,  T. Head-Gordon,  
 W. J. Hehre,  Chao-Ping Hsu,  T.-C. Jagau,  Yousung Jung,  A. Klamt,  
 Jing Kong,  D. S. Lambrecht,  Xiangyuan Li,  WanZhen Liang,  N. J. Mayhall,  
 C. W. McCurdy,  J. B. Neaton,  T. Neudecker,  C. Ochsenfeld,  
 J. A. Parkhill,  R. Peverati,  V. A. Rassolov,  Haisheng Ren,  Yihan Shao,  
 L. V. Slipchenko,  R. P. Steele,  J. E. Subotnik,  A. J. W. Thom,  
 A. Tkatchenko,  D. G. Truhlar,  T. Van Voorhis,  Fan Wang,  
 T. A. Wesolowski,  K. B. Whaley,  H. L. Woodcock III,  P. M. Zimmerman,  
 S. Faraji,  P. M. W. Gill,  M. Head-Gordon,  J. M. Herbert,  A. I. Krylov

 Contributors to earlier versions of Q-Chem not listed above: 
 R. D. Adamson,  B. Austin,  R. Baer,  J. Baker,  G. J. O. Beran,  
 K. Brandhorst,  S. T. Brown,  E. F. C. Byrd,  Arup K. Chakraborty,  
 G. K. L. Chan,  Chun-Min Chang,  Yunqing Chen,  C.-L. Cheng,  
 Siu Hung Chien,  D. M. Chipman,  D. L. Crittenden,  H. Dachsel,  
 R. J. Doerksen,  A. D. Dutoi,  R. G. Edgar,  J. Fosso-Tande,  
 L. Fusti-Molnar,  D. Ghosh,  A. Ghysels,  A. Golubeva-Zadorozhnaya,  
 J. Gonthier,  M. S. Gordon,  S. R. Gwaltney,  G. Hawkins,  J. E. Herr,  
 A. Heyden,  S. Hirata,  E. G. Hohenstein,  G. Kedziora,  F. J. Keil,  
 C. Kelley,  Jihan Kim,  R. A. King,  R. Z. Khaliullin,  P. P. Korambath,  
 W. Kurlancheek,  A. Laurent,  A. M. Lee,  M. S. Lee,  S. V. Levchenko,  
 Ching Yeh Lin,  D. Liotard,  E. Livshits,  R. C. Lochan,  I. Lotan,  
 L. A. Martinez-Martinez,  P. E. Maslen,  N. Nair,  D. P. O'Neill,  
 D. Neuhauser,  E. Neuscamman,  C. M. Oana,  R. Olivares-Amaya,  R. Olson,  
 T. M. Perrine,  B. Peters,  P. A. Pieniazek,  A. Prociuk,  Y. M. Rhee,  
 J. Ritchie,  M. A. Rohrdanz,  E. Rosta,  N. J. Russ,  H. F. Schaefer III,  
 M. W. Schmidt,  N. E. Schultz,  S. Sharma,  N. Shenvi,  C. D. Sherrill,  
 A. C. Simmonett,  A. Sodt,  T. Stein,  D. Stuck,  K. S. Thanthiriwatte,  
 V. Vanovschi,  L. Vogt,  Tao Wang,  A. Warshel,  M. A. Watson,  
 C. F. Williams,  Q. Wu,  X. Xu,  Jun Yang,  W. Zhang,  Yan Zhao

   Please cite Q-Chem as follows:
  "Software for the frontiers of quantum chemistry:
   An overview of developments in the Q-Chem 5 package"
   J. Chem. Phys. 155, 084801 (2021)
   https://doi.org/10.1063/5.0055522 (open access)

 Q-Chem 6.0.1 for Intel X86 EM64T Linux

 Parts of Q-Chem use Armadillo 9.900.5 (Nocturnal Misbehaviour).
 http://arma.sourceforge.net/

 Q-Chem begins on Tue Oct  3 12:30:53 2023  

 Host: atlas-147
0

     Scratch files written to ./qchem108120//
 Processing $rem in /scratch/abel/SOFTWARE/qchem/config/preferences:
 Processing $rem in /dipc/acebg/.qchemrc:

 Checking the input file for inconsistencies... 	...done.

--------------------------------------------------------------
User input:
--------------------------------------------------------------
$comment
 RAS-SF CALCULATION
$end

$molecule
 READ phenalenyl_opt.molecule
$end

$rem
!**CALCULATION TYPE***     
JOBTYPE            sp    
EXCHANGE           HF
CORRELATION        RASCI    !RASCI=Casanova; RASCI2=Zimmerman
BASIS              def2-TZVP

!***SCF REFERENCE***
SKIP_SCFMAN        FALSE
UNRESTRICTED       FALSE
!SCF_GUESS          core
!SCF_GUESS_MIX      FALSE
!SCF_GUESS_ALWAYS   FALSE
!MAX_SCF_CYCLES     999
!SCF_CONVERGENCE    8
!SCF_ALGORITHM      DIIS_GDM !DIIS,DM,DIIS_DM,GDM,DIIS_GDM,GD

!SYMMETRY           TRUE   !use of symmetry for calculating integrals
!SYM_IGNORE         FALSE  !turn off using symmetry
!SYM_TOL            5      !tolerance for determining point group
!USE_ABELIAN_SUBGROUP      !define to use abelian group

!THRESH             14
SCF_FINAL_PRINT     1 !0,1,2,3

!****RAS-SF****
RAS_ROOTS          20       !number of RAS-CI roots to be computed
SET_ITER           150     !number of iterations in RASCI
RAS_ELEC           13       !number of electrons in RAS2
RAS_ELEC_ALPHA     8       !spin-α electrons in RAS2 
RAS_ELEC_BETA      6       !spin-β electrons in RAS2

RAS_ACT            10       !number of orbitals in RAS2 
RAS_ACT_ORB  [33,39,40,41,42,43,44,45,46,47]  !user-selected RAS2 orbitals
RAS_OCC            37       !number of orbitals in RAS1
N_FROZEN_CORE      27     !Number of frozen core orbitals
N_FROZEN_VIRTUAL   401      !Number of frozen virtual orbitals

RAS_DO_HOLE        TRUE   !presence of hole excitations in RAS-CI wave function
RAS_DO_PART        TRUE   !presence of particle excitations
!RAS_AMPL_PRINT     10     !threshold (×10 2 ) for the CI amplitudes

!RAS_GUESS_CS       0      !number of closed shell guess conﬁgurations
!RAS_SPIN_MULT      0      !spin multiplicity. Only for Ms = 0 
!RAS_SRDFT          FALSE  !short-range density functional RAS-CI
!RAS_NFRAG          0     !fragments of excitation analysis in RASCI

RAS_PRINT          2      !level of information
RAS_NATORB         TRUE   !computation of the natural orbital occupancies
!RAS_NATORB_STATE  0      !Saves NO of i RAS computed state in .fchk ﬁle
!RAS_FOD            TRUE

!****RAS-SOC****
CALC_SOC           TRUE   !calculate SOC for EOM-CC, RAS-CI, ADC, TDDFT/TDA and TDDFT
!RAS_SOC_2E        TRUE   !two-electron mean-ﬁeld contribution, default=true
RAS_SOC_SYM_DENS   TRUE   !averaging of α and β densities

!****MEMORY****
MEM_TOTAL          60000 !Default 2000 MB
MEM_STATIC         10000  !Default 64 MB

!**Molecular Properties and Analysis **                                                                                          
POP_MULLIKEN       TRUE   !Run Mulliken population analysis
LOWDIN_POPULATION  TRUE   !Run Löwdin population analysis
GUI                2       !Checkpoints generation
STATE_ANALYSIS     TRUE

!**Wave function analysis of RAS-CI states: MOLDEN**
!PLOTS = 0     ! Note: This can be omitted, default is 0
!NTO_PAIRS = 2 ! Note: This can be omitted, default is 2
!GUI 0
!MOLDEN_FORMAT      TRUE
!PRINT_ORBITALS     15

!**Wave function analysis of RAS-CI state: CUBE**
!NTO_PAIRS = 2 ! Note: This can be omitted, default is 2
!PLOTS = 1
!GUI 0

!**SR-DFT**
!RAS_SRDFT           TRUE !Perform short-range density functional RAS-CI
!RAS_SRDFT_EXC       0 !EX functional. 0=HF. 
!RAS_SRDFT_ONLY_COR  TRUE !No use of EXC functional
!RAS_SRDFT_COR       srPBE !short-range correlation functional
!ras_srdft_0         TRUE !true: no iteration (one-shot); false: iteration
!RAS_OMEGA           400 !Coulomb range-separation parameter. def=400
!RAS_SRDFT_DAMP     0.5 !dumping factor. def=0.5
$end

!$plots
!   grid_points 100 100 100
!   grid_range  (-10,10) (-10,10) (-10,10)
!$end

--------------------------------------------------------------
 ----------------------------------------------------------------
             Standard Nuclear Orientation (Angstroms)
    I     Atom           X                Y                Z
 ----------------------------------------------------------------
    1      C       0.0000523102     0.0000610157     0.0000452739
    2      C       0.4742275664     1.3401419838     0.0005272392
    3      C      -0.4630702854     2.3944680171     0.0000067406
    4      H      -0.1018855540     3.4158711272     0.0000416957
    5      C      -1.8226126817     2.1329370943    -0.0006721767
    6      H      -2.5259709191     2.9557305620    -0.0013292550
    7      C      -2.2930038536     0.8308689996    -0.0005457984
    8      H      -3.3579646938     0.6340037392    -0.0009227619
    9      C      -1.3978965442    -0.2594860140    -0.0000288640
   10      C      -1.8422769027    -1.5982229827     0.0004440315
   11      H      -2.9070842162    -1.7958514106     0.0006925199
   12      C      -0.9359451963    -2.6448446395     0.0006458050
   13      H      -1.2972069142    -3.6657175843     0.0011971009
   14      C       0.4268961696    -2.4012238429     0.0001196911
   15      H       1.1303443495    -3.2245852637     0.0000539840
   16      C       0.9236477672    -1.0808986860    -0.0003428856
   17      C       2.3052999722    -0.7962327087    -0.0012252925
   18      H       3.0094906791    -1.6189721369    -0.0028006579
   19      C       2.7585229328     0.5119321346    -0.0002099199
   20      H       3.8229242503     0.7090122115    -0.0008211910
   21      C       1.8661111394     1.5703199287     0.0011968219
   22      H       2.2276386546     2.5915869560     0.0041245694
 ----------------------------------------------------------------
 Molecular Point Group                 C1    NOp =  1
 Largest Abelian Subgroup              C1    NOp =  1
 Nuclear Repulsion Energy =         700.22514581 hartrees
 There are       44 alpha and       43 beta electrons
 Requested basis set is def2-TZVP
 There are 179 shells and 457 basis functions

 Q-Chem warning in module libmdc/get_mega.C, line 167:

 Allowed MEM_STATIC has been capped at MEM_STATIC=8191.
 Reduce the value of MEM_STATIC to silence this warning.


 Total QAlloc Memory Limit  60000 MB
 Mega-Array Size      8007 MB
 MEM_STATIC part      8191 MB

 A cutoff of  1.0D-09 yielded  13056 shell pairs
 There are     85770 function pairs (    111402 Cartesian)
 Smallest overlap matrix eigenvalue = 4.70E-06

 Q-Chem warning in module stvman/mkSTV.C, line 313:

 Overlap eigenvalue is smaller than square root of threshold
 Use THRESH >= 12 to get rid of this warning


 Scale SEOQF with 1.000000e-01/1.000000e-01/1.000000e+00

 Standard Electronic Orientation quadrupole field applied
 Nucleus-field energy     =     0.0000000272 hartrees
 Guess from superposition of atomic densities
 Warning:  Energy on first SCF cycle will be non-variational
 SAD guess density has 87.000000 electrons

 -----------------------------------------------------------------------
  General SCF calculation program by
  Eric Jon Sundstrom, Paul Horn, Yuezhi Mao, Dmitri Zuev, Alec White,
  David Stuck, Shaama M.S., Shane Yost, Joonho Lee, David Small,
  Daniel Levine, Susi Lehtola, Hugh Burton, Evgeny Epifanovsky,
  Bang C. Huynh
 -----------------------------------------------------------------------
 Hartree-Fock
 Orthonormalizing orbitals
 A restricted open-shell SCF calculation will be
 performed using GDM
 SCF converges when RMS gradient is below 1.0e-05
 ---------------------------------------
  Cycle       Energy        RMS Gradient
 ---------------------------------------
    1    -495.7462184839      3.11e-01   Descent step
    2    -496.3469696609      2.46e-01   Descent step
    3    -496.8259982240      1.87e-01   Descent step
    4    -497.1916459402      1.39e-01   Descent step
    5    -497.4516863245      9.18e-02   Descent step
    6    -497.6135932518      4.82e-02   Descent step
    7    -497.6849147061      1.94e-02   Normal BFGS step
    8    -497.6909248035      4.37e-03   Normal BFGS step
    9    -497.6910752154      1.87e-03   Normal BFGS step
   10    -497.6910904771      8.70e-04   Normal BFGS step
   11    -497.6910929649      5.56e-05   Normal BFGS step
   12    -497.6910915444      2.82e-05  Line search: overstep
   13    -497.6910929999      5.17e-05  Line search: understep
   14    -497.6910915226      2.88e-05  Line search: overstep
   15    -497.6910930254      4.85e-05   Normal BFGS step
   16    -497.6910928779      1.75e-05  Line search: overstep
   17    -497.6910930598      4.10e-05   Normal BFGS step
   18    -497.6910930613      9.26e-06  Convergence criterion met
The disked orbital energies are calculated using alpha and beta Focks
 ---------------------------------------
 Alpha HF Exchange    Energy = -35.59893669487990
 Beta HF Exchange     Energy = -35.16270823660903
 Nuclear Attraction   Energy =   0.00000000000000
 One-Electron (alpha) Energy = -1039.88753424792480
 One-Electron (beta)  Energy = -1021.97108440912245
 Total Coulomb        Energy = 934.70402468782788
 Final Alpha MO Eigenvalues
            1           2           3           4           5           6
    1 -11.2434458 -11.2432437 -11.2432369 -11.2395687 -11.2371769 -11.2372131
            7           8           9          10          11          12
    1 -11.2371151 -11.2373242 -11.2372343 -11.2372134 -11.2353187 -11.2352513
           13          14          15          16          17          18
    1 -11.2352547  -1.1968117  -1.1231793  -1.1231625  -1.0258200  -1.0258006
           19          20          21          22          23          24
    1  -1.0131161  -0.9209582  -0.8513178  -0.8379336  -0.8379017  -0.7152026
           25          26          27          28          29          30
    1  -0.7151626  -0.6962678  -0.6962249  -0.6528236  -0.6012550  -0.6012495
           31          32          33          34          35          36
    1  -0.5938947  -0.5747885  -0.5613737  -0.5474978  -0.5474785  -0.5361462
           37          38          39          40          41          42
    1  -0.4767155  -0.4767126  -0.4748709  -0.4748578  -0.3368221  -0.3563788
           43          44          45          46          47          48
    1  -0.3563542  -0.2093308   0.1074499   0.1034658   0.1034933   0.1521096
           49          50          51          52          53          54
    1   0.1639917   0.1639981   0.1823929   0.1824227   0.1919639   0.2230528
           55          56          57          58          59          60
    1   0.2333006   0.2367963   0.2368979   0.2391477   0.2391604   0.2574742
           61          62          63          64          65          66
    1   0.2575225   0.3007913   0.3048948   0.3049777   0.3278832   0.3366222
           67          68          69          70          71          72
    1   0.3367415   0.3477150   0.3477181   0.3541549   0.3739358   0.3734738
           73          74          75          76          77          78
    1   0.4125321   0.4125469   0.4116077   0.4116186   0.4191095   0.4379082
           79          80          81          82          83          84
    1   0.4486152   0.4572007   0.4573015   0.4557949   0.4741506   0.4741900
           85          86          87          88          89          90
    1   0.4784103   0.4939353   0.4939530   0.5140941   0.5140968   0.5279727
           91          92          93          94          95          96
    1   0.5416280   0.5510844   0.5511751   0.5631629   0.5631721   0.5753637
           97          98          99         100         101         102
    1   0.5757326   0.5785901   0.5786614   0.5822552   0.5832526   0.6146674
          103         104         105         106         107         108
    1   0.6147495   0.6167726   0.6447158   0.6447703   0.6855800   0.6857005
          109         110         111         112         113         114
    1   0.6844606   0.6849326   0.6885238   0.7007437   0.7107407   0.7116752
          115         116         117         118         119         120
    1   0.7119122   0.7232633   0.7949446   0.8075638   0.8082933   0.8134850
          121         122         123         124         125         126
    1   0.8140161   0.8572753   0.8575807   0.8639619   0.8642798   0.8760385
          127         128         129         130         131         132
    1   0.8760699   0.8810640   0.8916217   0.8999153   0.9000501   0.9192019
          133         134         135         136         137         138
    1   0.9355190   0.9679041   0.9686034   0.9683708   0.9948699   0.9949435
          139         140         141         142         143         144
    1   1.0041291   1.0041625   1.0074135   1.0263795   1.0263948   1.0270856
          145         146         147         148         149         150
    1   1.0462598   1.0932377   1.0937724   1.1021028   1.1021314   1.1229117
          151         152         153         154         155         156
    1   1.1229676   1.1720215   1.1876733   1.1919225   1.1921356   1.2058013
          157         158         159         160         161         162
    1   1.2058122   1.2082730   1.2312519   1.3148407   1.3321642   1.3327828
          163         164         165         166         167         168
    1   1.3535380   1.3535460   1.3812810   1.3813407   1.3837860   1.4125092
          169         170         171         172         173         174
    1   1.4311130   1.4311369   1.4451805   1.4452102   1.4548869   1.4783494
          175         176         177         178         179         180
    1   1.4845696   1.4846118   1.5120953   1.5102684   1.5192811   1.5566201
          181         182         183         184         185         186
    1   1.5566492   1.5972095   1.5972602   1.6302629   1.6302812   1.6629575
          187         188         189         190         191         192
    1   1.6634686   1.6822738   1.6898868   1.6937444   1.7097072   1.7351737
          193         194         195         196         197         198
    1   1.7408334   1.7410238   1.7541355   1.7541657   1.7995388   1.7996311
          199         200         201         202         203         204
    1   1.8090210   1.8091543   1.8316709   1.8420313   1.8420480   1.9147500
          205         206         207         208         209         210
    1   1.9164684   1.9387282   1.9425356   1.9425630   1.9458078   1.9712348
          211         212         213         214         215         216
    1   1.9716090   1.9739301   1.9937716   2.0051207   2.0051342   2.0111671
          217         218         219         220         221         222
    1   2.0112420   2.0676328   2.0845954   2.0846414   2.1076454   2.1077163
          223         224         225         226         227         228
    1   2.1475620   2.1476552   2.1824227   2.2027473   2.2381535   2.2643495
          229         230         231         232         233         234
    1   2.2644377   2.2692682   2.2780545   2.2781649   2.3333910   2.3334540
          235         236         237         238         239         240
    1   2.3611855   2.4341754   2.4342784   2.4487087   2.4487568   2.4569432
          241         242         243         244         245         246
    1   2.4842973   2.4844656   2.4957761   2.5183638   2.5183817   2.5397053
          247         248         249         250         251         252
    1   2.5410781   2.5776124   2.5776144   2.5791614   2.5792309   2.6029386
          253         254         255         256         257         258
    1   2.6738620   2.7298105   2.7298721   2.7432396   2.7432995   2.7504828
          259         260         261         262         263         264
    1   2.7600875   2.7602492   2.8838746   2.8844008   2.8845679   2.9013611
          265         266         267         268         269         270
    1   2.9035075   2.9036734   2.9118336   2.9172823   2.9172995   2.9425530
          271         272         273         274         275         276
    1   2.9439852   2.9819265   2.9923518   2.9923863   3.0163160   3.0164044
          277         278         279         280         281         282
    1   3.0243165   3.0486554   3.0497370   3.0498091   3.0654624   3.0739751
          283         284         285         286         287         288
    1   3.0740869   3.1069383   3.1069670   3.1075762   3.1143091   3.1445067
          289         290         291         292         293         294
    1   3.1445187   3.1546257   3.1717519   3.1718657   3.2000770   3.2003374
          295         296         297         298         299         300
    1   3.2118587   3.2351412   3.2593113   3.2594711   3.2657068   3.2883261
          301         302         303         304         305         306
    1   3.2883763   3.2902418   3.2956540   3.2956951   3.3051306   3.3153027
          307         308         309         310         311         312
    1   3.3247576   3.3247697   3.3299373   3.3300595   3.3586619   3.3587308
          313         314         315         316         317         318
    1   3.3651151   3.4487096   3.4489121   3.4610335   3.4610886   3.4663068
          319         320         321         322         323         324
    1   3.4716751   3.4735271   3.4736399   3.5320172   3.5320822   3.5415320
          325         326         327         328         329         330
    1   3.5416150   3.5536700   3.5537568   3.5791290   3.5792076   3.5921941
          331         332         333         334         335         336
    1   3.5996098   3.5982701   3.6370766   3.6371236   3.6419576   3.6419693
          337         338         339         340         341         342
    1   3.6556247   3.6729822   3.6919518   3.6920107   3.6960862   3.6973942
          343         344         345         346         347         348
    1   3.6975599   3.7169961   3.7324877   3.7712341   3.7766792   3.8110106
          349         350         351         352         353         354
    1   3.8110426   3.8301557   3.8425601   3.8425657   3.8513197   3.8803073
          355         356         357         358         359         360
    1   3.8946104   3.9138031   3.9138273   3.9188517   3.9326041   3.9327222
          361         362         363         364         365         366
    1   3.9432334   3.9433241   3.9866605   3.9867061   4.0576893   4.0578644
          367         368         369         370         371         372
    1   4.0697306   4.0698183   4.1112389   4.1235891   4.1236430   4.2121717
          373         374         375         376         377         378
    1   4.2121773   4.2151125   4.2185026   4.2185660   4.2318955   4.2655464
          379         380         381         382         383         384
    1   4.3085272   4.3085915   4.3600964   4.3602446   4.3651493   4.4146680
          385         386         387         388         389         390
    1   4.4200019   4.4200893   4.4651946   4.4675758   4.4740605   4.4740817
          391         392         393         394         395         396
    1   4.4884679   4.5328454   4.5644633   4.5647398   4.5925559   4.5926521
          397         398         399         400         401         402
    1   4.6434076   4.6437806   4.6476078   4.6477227   4.6866439   4.6866687
          403         404         405         406         407         408
    1   4.7329619   4.7435616   4.7467916   4.7925730   4.7926742   4.8167558
          409         410         411         412         413         414
    1   4.8168634   4.8583038   4.9089213   4.9341386   4.9342250   4.9727098
          415         416         417         418         419         420
    1   4.9959495   5.0504641   5.0505974   5.1552606   5.1554806   5.1845682
          421         422         423         424         425         426
    1   5.2428011   5.2428462   5.2819155   5.2820225   5.3338427   5.3593530
          427         428         429         430         431         432
    1   5.4137415   5.4137799   5.4957599   5.4963239   5.5244281   5.5659949
          433         434         435         436         437         438
    1   5.6059972   5.7111534   5.7115237   5.7647739   5.7915499   5.7917931
          439         440         441         442         443         444
    1   5.9920070   5.9922013   6.1606663   6.1608230   6.1611668   6.5766008
          445         446         447         448         449         450
    1  22.9097096  23.7274786  23.7454697  23.7455959  23.8740099  23.8741588
          451         452         453         454         455         456
    1  23.8924263  24.0513690  24.0517741  24.1218879  24.3729527  24.3731076
          457
    1  25.0262856
 Final Beta MO Eigenvalues
            1           2           3           4           5           6
    1 -11.2434157 -11.2432091 -11.2432019 -11.2395611 -11.2356456 -11.2356041
            7           8           9          10          11          12
    1 -11.2355984 -11.2343158 -11.2342688 -11.2342536 -11.2338660 -11.2338660
           13          14          15          16          17          18
    1 -11.2338265  -1.1911925  -1.1142747  -1.1142592  -1.0161444  -1.0161233
           19          20          21          22          23          24
    1  -1.0089921  -0.9042474  -0.8478959  -0.8319876  -0.8319531  -0.7099863
           25          26          27          28          29          30
    1  -0.7099457  -0.6928177  -0.6927728  -0.6504897  -0.5982703  -0.5982643
           31          32          33          34          35          36
    1  -0.5895952  -0.5723868  -0.5438530  -0.5447022  -0.5446836  -0.5321908
           37          38          39          40          41          42
    1  -0.4742869  -0.4742840  -0.4437025  -0.4436917  -0.3255562  -0.3093504
           43          44          45          46          47          48
    1  -0.3093198   0.0054796   0.1158858   0.1401292   0.1401496   0.1529299
           49          50          51          52          53          54
    1   0.1646277   0.1646342   0.1830312   0.1830607   0.1923944   0.2241244
           55          56          57          58          59          60
    1   0.2352845   0.2377138   0.2378152   0.2570649   0.2570808   0.2604343
           61          62          63          64          65          66
    1   0.2604861   0.3044963   0.3063234   0.3063997   0.3285904   0.3402511
           67          68          69          70          71          72
    1   0.3403755   0.3563443   0.3563469   0.3557081   0.3746548   0.3776044
           73          74          75          76          77          78
    1   0.4149091   0.4149106   0.4254010   0.4253987   0.4201093   0.4475453
           79          80          81          82          83          84
    1   0.4496302   0.4599066   0.4599904   0.4676166   0.4765869   0.4766247
           85          86          87          88          89          90
    1   0.4796731   0.4953283   0.4953464   0.5213722   0.5213769   0.5450306
           91          92          93          94          95          96
    1   0.5457577   0.5536608   0.5537615   0.5698093   0.5698193   0.5780870
           97          98          99         100         101         102
    1   0.5781883   0.5821202   0.5824743   0.5856649   0.5850516   0.6163576
          103         104         105         106         107         108
    1   0.6164381   0.6179978   0.6480972   0.6481449   0.6877772   0.6877465
          109         110         111         112         113         114
    1   0.6910394   0.6903737   0.6893134   0.7025596   0.7137874   0.7131841
          115         116         117         118         119         120
    1   0.7134141   0.7286626   0.7986959   0.8097377   0.8095097   0.8154425
          121         122         123         124         125         126
    1   0.8159694   0.8602680   0.8605340   0.8674465   0.8677759   0.8846905
          127         128         129         130         131         132
    1   0.8847227   0.8826645   0.8927798   0.9025649   0.9027176   0.9313727
          133         134         135         136         137         138
    1   0.9382516   0.9700048   0.9707416   0.9717972   0.9964768   0.9965468
          139         140         141         142         143         144
    1   1.0093481   1.0093821   1.0191361   1.0277314   1.0277473   1.0310555
          145         146         147         148         149         150
    1   1.0480134   1.0956010   1.0961332   1.1094913   1.1095185   1.1260527
          151         152         153         154         155         156
    1   1.1261117   1.1730183   1.1923527   1.1945384   1.1947429   1.2133001
          157         158         159         160         161         162
    1   1.2133073   1.2114242   1.2323706   1.3211752   1.3358761   1.3364807
          163         164         165         166         167         168
    1   1.3589256   1.3589339   1.3829850   1.3830458   1.3860398   1.4191710
          169         170         171         172         173         174
    1   1.4365981   1.4366233   1.4482091   1.4482402   1.4568352   1.4798731
          175         176         177         178         179         180
    1   1.4861684   1.4862086   1.5137171   1.5182625   1.5222362   1.5574789
          181         182         183         184         185         186
    1   1.5575077   1.6028023   1.6028534   1.6322272   1.6322453   1.6662576
          187         188         189         190         191         192
    1   1.6667753   1.6831955   1.6917404   1.6980262   1.7179861   1.7364537
          193         194         195         196         197         198
    1   1.7428801   1.7430676   1.7617309   1.7617627   1.8015343   1.8016306
          199         200         201         202         203         204
    1   1.8099444   1.8100688   1.8323094   1.8507608   1.8507768   1.9156578
          205         206         207         208         209         210
    1   1.9189558   1.9518716   1.9464929   1.9465117   1.9476652   1.9727012
          211         212         213         214         215         216
    1   1.9730742   1.9749553   1.9967645   2.0104881   2.0104998   2.0132568
          217         218         219         220         221         222
    1   2.0133335   2.0686969   2.0858920   2.0859361   2.1104750   2.1105413
          223         224         225         226         227         228
    1   2.1521991   2.1522882   2.1870926   2.2040694   2.2394920   2.2667178
          229         230         231         232         233         234
    1   2.2668044   2.2730453   2.2816285   2.2817382   2.3363065   2.3363703
          235         236         237         238         239         240
    1   2.3646434   2.4360983   2.4362061   2.4515042   2.4515613   2.4597936
          241         242         243         244         245         246
    1   2.4862664   2.4864312   2.4976985   2.5207959   2.5208138   2.5418187
          247         248         249         250         251         252
    1   2.5454404   2.5797300   2.5797330   2.5828226   2.5828944   2.6056584
          253         254         255         256         257         258
    1   2.6753168   2.7333915   2.7334530   2.7467775   2.7468385   2.7534767
          259         260         261         262         263         264
    1   2.7616860   2.7618412   2.8853953   2.8854452   2.8855930   2.9029003
          265         266         267         268         269         270
    1   2.9055805   2.9057482   2.9166660   2.9216242   2.9216415   2.9468077
          271         272         273         274         275         276
    1   2.9474875   2.9835170   2.9939745   2.9940093   3.0202835   3.0203718
          277         278         279         280         281         282
    1   3.0291131   3.0494472   3.0519846   3.0520623   3.0703391   3.0790425
          283         284         285         286         287         288
    1   3.0791554   3.1086694   3.1086908   3.1115140   3.1163157   3.1484512
          289         290         291         292         293         294
    1   3.1484639   3.1571481   3.1748597   3.1749765   3.2013651   3.2016250
          295         296         297         298         299         300
    1   3.2133490   3.2361087   3.2626839   3.2628456   3.2683442   3.2915469
          301         302         303         304         305         306
    1   3.2915962   3.2932120   3.2988128   3.2988555   3.3107581   3.3159143
          307         308         309         310         311         312
    1   3.3270802   3.3270925   3.3317928   3.3319166   3.3632291   3.3632963
          313         314         315         316         317         318
    1   3.3693044   3.4508241   3.4510330   3.4636586   3.4637155   3.4718839
          319         320         321         322         323         324
    1   3.4736677   3.4764542   3.4765603   3.5337269   3.5337980   3.5449203
          325         326         327         328         329         330
    1   3.5449999   3.5551956   3.5552885   3.5851841   3.5852634   3.5939343
          331         332         333         334         335         336
    1   3.6016203   3.6048558   3.6400087   3.6400553   3.6477256   3.6477384
          337         338         339         340         341         342
    1   3.6585665   3.6740818   3.6929394   3.6929969   3.6970508   3.6987095
          343         344         345         346         347         348
    1   3.6988762   3.7212114   3.7339468   3.7725123   3.7796789   3.8140431
          349         350         351         352         353         354
    1   3.8140741   3.8312462   3.8441488   3.8441528   3.8525791   3.8847333
          355         356         357         358         359         360
    1   3.8972603   3.9164239   3.9164474   3.9222769   3.9339915   3.9341111
          361         362         363         364         365         366
    1   3.9458217   3.9459112   3.9882440   3.9882905   4.0594953   4.0596666
          367         368         369         370         371         372
    1   4.0726334   4.0727213   4.1125028   4.1246456   4.1246998   4.2142754
          373         374         375         376         377         378
    1   4.2142810   4.2165832   4.2214146   4.2214752   4.2351007   4.2677679
          379         380         381         382         383         384
    1   4.3098653   4.3099293   4.3617278   4.3618780   4.3666286   4.4154928
          385         386         387         388         389         390
    1   4.4213375   4.4214224   4.4680936   4.4692334   4.4767395   4.4767607
          391         392         393         394         395         396
    1   4.4919087   4.5351618   4.5657632   4.5660378   4.5954799   4.5955750
          397         398         399         400         401         402
    1   4.6446427   4.6450178   4.6487591   4.6488750   4.6899558   4.6899806
          403         404         405         406         407         408
    1   4.7356355   4.7442629   4.7478561   4.7943216   4.7944225   4.8195095
          409         410         411         412         413         414
    1   4.8196168   4.8617304   4.9098726   4.9356927   4.9357791   4.9751330
          415         416         417         418         419         420
    1   4.9971973   5.0517503   5.0518833   5.1564495   5.1566695   5.1858877
          421         422         423         424         425         426
    1   5.2448040   5.2448493   5.2833238   5.2834311   5.3347905   5.3612801
          427         428         429         430         431         432
    1   5.4148992   5.4149377   5.4966887   5.4972530   5.5258493   5.5667897
          433         434         435         436         437         438
    1   5.6071216   5.7126340   5.7130032   5.7656946   5.7924871   5.7927296
          439         440         441         442         443         444
    1   5.9926955   5.9928901   6.1616234   6.1615228   6.1620574   6.5771693
          445         446         447         448         449         450
    1  22.9105062  23.7292944  23.7460908  23.7462203  23.8752613  23.8754144
          451         452         453         454         455         456
    1  23.8926034  24.0529833  24.0533876  24.1227001  24.3731647  24.3733196
          457
    1  25.0264679
 SCF time:   CPU 1379.13s  wall 1386.00s 
<S^2> =          0.750000000
 SCF   energy in the final basis set =     -497.6910930613
 Total energy in the final basis set =     -497.6910930613
  
     ##========================================##
     ||                                        ||
     ||              R A S M A N 2             ||
     ||________________________________________||
     ||                                        ||
     ||  Author:                               ||
     ||                                        ||
     ||        David Casanova (2010)           ||
     ||                                        ||
     ##========================================##
  
Setting single-point xc-functionals (if necessary)

  ***************************************************
  *  RAS-CI Dimensions:                             *
  *                                                 *
  *  Active Elec.:  13 ( 8, 6)   Active Orb.:  10   *
  *  Doubly Occ. :  37           Doubly Vir.: 410   *
  *  Frozen Occ. :  27           Frozen Vir.: 401   *
  *                                                 *
  *  Total CI configurations:    413310             * 
  *    Active configurations:      9450             * 
  *      Hole configurations:     75000             * 
  *  Particle configurations:    328860             * 
  *                                                 *
  *   Requested states:       20                    *
  *  Spin multiplicity: Any multiplicity            *
  *                                                 *
  ***************************************************
-----------------------------------------
    Memory requirements of RASCI

 Each CI-vector requires      3.15 MiB 
 Max. subspace vectors           3000      

 Reduced Lists                0.01 MiB 
 Excitation Lists             0.01 MiB 
 Excitation Lists Sign        0.01 MiB 
 CI-space (Max)            9591.67 MiB 
 Integrals                  322.27 MiB 
 Memory required (Max)     9591.70 MiB 
 Memory available          7811.55 MiB 

 Q-Chem warning in module rasman2/ras_mem_check.C, line 162:

 Static memory may be insufficient to store the subspace vectors


    Disk requirements of RASCI

 Fock matrix                  3.19 MiB 
 2-electron integrals         1.13 MiB 
 CI-space                 18919.83 MiB 
 Disk required            18924.15 MiB 
-----------------------------------------
  
RAS1 HF-like energy:           -477.1801310291
 Computing integrals
 Computing J and K matrices
 Computing addressing
 Making amplitude guesses
 
Direct CI diagonalization
 ---------------------------------------------------
 Iter    Rts Conv    Rts Left    Ttl Dev     Max Dev
 ---------------------------------------------------
   1         0          20      0.005809    0.000327
   2         0          20      0.002710    0.000155
   3         0          20      0.001537    0.000131
   4         0          20      0.001044    0.000128
   5         0          20      0.000770    0.000102
   6         0          20      0.000531    0.000072
   7         0          20      0.000393    0.000056
   8         0          20      0.000304    0.000042
   9         0          20      0.000240    0.000044
  10         2          18      0.000204    0.000052
  11         3          17      0.000188    0.000067
  12         3          17      0.000268    0.000107
  13         5          15      0.000221    0.000093
  14         8          12      0.000150    0.000068
  15        11           9      0.000098    0.000044
  16        12           8      0.000067    0.000028
  17        13           7      0.000049    0.000019
  18        15           5      0.000035    0.000012
  19        16           4      0.000026    0.000008
  20        17           3      0.000021    0.000005
  21        17           3      0.000018    0.000003
  22        19           1      0.000016    0.000002
  23        19           1      0.000015    0.000002
  24        19           1      0.000014    0.000001
  25        20           0      0.000014    0.000001    Roots Converged
 ---------------------------------------------------
   
**************************************************
 RAS-CI total energy for state   1:   -497.636975282089
  Excitation energy (eV) =  0.000000000000
  State symmetry: A1  (C1       )
  <S^2>      :  2.0000
  Dipole Moment:   -0.0018 X    -0.0049 Y    -0.0002 Z
 NATURAL OCCUPATION NUMBERS (higher than 1.0E-05)
            1           2           3           4           5           6
    1   2.0000000   2.0000000   2.0000000   2.0000000   2.0000000   2.0000000
            7           8           9          10          11          12
    1   2.0000000   2.0000000   2.0000000   2.0000000   2.0000000   2.0000000
           13          14          15          16          17          18
    1   2.0000000   2.0000000   2.0000000   2.0000000   2.0000000   2.0000000
           19          20          21          22          23          24
    1   2.0000000   2.0000000   2.0000000   2.0000000   2.0000000   2.0000000
           25          26          27          28          29          30
    1   2.0000000   2.0000000   2.0000000   2.0000000   2.0000000   2.0000000
           31          32          33          34          35          36
    1   2.0000000   2.0000000   2.0000000   2.0000000   2.0000000   2.0000000
           37          38          39          40          41          42
    1   2.0000000   1.9980558   1.9922765   1.9922657   1.9726754   1.9568939
           43          44          45          46          47
    1   1.9568586   1.0071634   0.9957142   0.0640726   0.0640215
Natural Orbitals stored in FCHK

  Amplitudes : 
  
 | HOLE  | ALPHA      | BETA       | PART  |    AMPLITUDE 
--------------------------------------------------
 |       | 1111111100 | 1111110000 |       |     9.4698648591054E-01
 |       | 1111110110 | 1111101000 |       |    -1.0147223916933E-01
 |       | 1111110101 | 1111011000 |       |     1.0150302340486E-01
--------------------------------------------------
*** Contributions RASCI wfn    Active: 100.00
                                 Hole:   0.00
                                 Part:   0.00

      Mulliken population analysis 
 ---------------------------------------------------
   Atom    Charge (a.u.)   Spin (a.u.)  
 ---------------------------------------------------
   1  C   -0.046354        0.255967 
   2  C    0.115495        0.003385 
   3  C   -0.270113        0.236021 
   4  H    0.122795        0.001706 
   5  C   -0.258907        0.101321 
   6  H    0.120428        0.000968 
   7  C   -0.269415        0.234647 
   8  H    0.122720        0.001690 
   9  C    0.115098        0.004385 
  10  C   -0.269834        0.235746 
  11  H    0.122745        0.001700 
  12  C   -0.260131        0.103424 
  13  H    0.120491        0.000988 
  14  C   -0.269673        0.235778 
  15  H    0.122736        0.001701 
  16  C    0.114303        0.004359 
  17  C   -0.269187        0.234644 
  18  H    0.122722        0.001690 
  19  C   -0.258622        0.101251 
  20  H    0.120522        0.000967 
  21  C   -0.270572        0.235956 
  22  H    0.122750        0.001706 
 ---------------------------------------------------
   Sum:   -1.000000        2.000000 
 ---------------------------------------------------
 
  
 NATURAL OCCUPATION NUMBERS (higher than 1.0E-05)
            1           2           3           4           5           6
    1   2.0000000   2.0000000   2.0000000   2.0000000   2.0000000   2.0000000
            7           8           9          10          11          12
    1   2.0000000   2.0000000   2.0000000   2.0000000   2.0000000   2.0000000
           13          14          15          16          17          18
    1   2.0000000   2.0000000   2.0000000   2.0000000   2.0000000   2.0000000
           19          20          21          22          23          24
    1   2.0000000   2.0000000   2.0000000   2.0000000   2.0000000   2.0000000
           25          26          27          28          29          30
    1   2.0000000   2.0000000   2.0000000   2.0000000   2.0000000   2.0000000
           31          32          33          34          35          36
    1   2.0000000   2.0000000   2.0000000   2.0000000   2.0000000   2.0000000
           37          38          39          40          41          42
    1   2.0000000   1.9980558   1.9922765   1.9922657   1.9726754   1.9568939
           43          44          45          46          47
    1   1.9568586   1.0071634   0.9957142   0.0640726   0.0640215
  
*** Unpaired Electrons
 Yamaguchi Nd:         2.51
 Head-Gordon Nu:       2.25
 Head-Gordon Nu_nl:    2.05
  
**************************************************
 RAS-CI total energy for state   2:   -497.632221476334
  Excitation energy (eV) =  0.129357636090
  State symmetry: A1  (C1       )
  <S^2>      :  2.0000
  Dipole Moment:    0.0486 X     0.0768 Y    -0.0002 Z
  Trans. Moment:   -0.1155 X    -0.5242 Y     0.0002 Z
  Strength   :  0.000913
  Natural transition orbitals ( 1 -> 2 ):
   e-/hole pair  1 alpha:  ampl =  0.956505 ( 91.5%)   [10 : 11]
   e-/hole pair  2 alpha:  ampl =  0.072653 (  0.5%)   [9 : 12]
   e-/hole pair  1 beta :  ampl =  0.065518 (  0.4%)   [10 : 11]
   e-/hole pair  2 beta :  ampl =  0.054780 (  0.3%)   [9 : 12]
   Sum of square amplitudes: 0.93

 NATURAL OCCUPATION NUMBERS (higher than 1.0E-05)
            1           2           3           4           5           6
    1   2.0000000   2.0000000   2.0000000   2.0000000   2.0000000   2.0000000
            7           8           9          10          11          12
    1   2.0000000   2.0000000   2.0000000   2.0000000   2.0000000   2.0000000
           13          14          15          16          17          18
    1   2.0000000   2.0000000   2.0000000   2.0000000   2.0000000   2.0000000
           19          20          21          22          23          24
    1   2.0000000   2.0000000   2.0000000   2.0000000   2.0000000   2.0000000
           25          26          27          28          29          30
    1   2.0000000   2.0000000   2.0000000   2.0000000   2.0000000   2.0000000
           31          32          33          34          35          36
    1   2.0000000   2.0000000   2.0000000   2.0000000   2.0000000   2.0000000
           37          38          39          40          41          42
    1   2.0000000   1.9970243   1.9926027   1.9914895   1.9745585   1.9695169
           43          44          45          46          47
    1   1.9536405   1.0180824   0.9994127   0.0526146   0.0510547
Natural Orbitals stored in FCHK

  Amplitudes : 
  
 | HOLE  | ALPHA      | BETA       | PART  |    AMPLITUDE 
--------------------------------------------------
 |       | 1111111010 | 1111110000 |       |     9.5861407482333E-01
--------------------------------------------------
*** Contributions RASCI wfn    Active: 100.00
                                 Hole:   0.00
                                 Part:   0.00

      Mulliken population analysis 
 ---------------------------------------------------
   Atom    Charge (a.u.)   Spin (a.u.)  
 ---------------------------------------------------
   1  C    0.122027        0.002265 
   2  C   -0.047130        0.186589 
   3  C   -0.258480        0.243952 
   4  H    0.122783        0.001800 
   5  C   -0.185953        0.033916 
   6  H    0.121095        0.000385 
   7  C   -0.338911        0.316810 
   8  H    0.121933        0.002501 
   9  C    0.098579        0.009760 
  10  C   -0.265401        0.211220 
  11  H    0.122970        0.001346 
  12  C   -0.247599        0.117019 
  13  H    0.120291        0.001358 
  14  C   -0.245361        0.193270 
  15  H    0.123148        0.001175 
  16  C    0.061383        0.054087 
  17  C   -0.343432        0.333917 
  18  H    0.121784        0.002716 
  19  C   -0.164102        0.004762 
  20  H    0.121495        0.000045 
  21  C   -0.283519        0.278915 
  22  H    0.122398        0.002190 
 ---------------------------------------------------
   Sum:   -1.000000        2.000000 
 ---------------------------------------------------
 
  
 NATURAL OCCUPATION NUMBERS (higher than 1.0E-05)
            1           2           3           4           5           6
    1   2.0000000   2.0000000   2.0000000   2.0000000   2.0000000   2.0000000
            7           8           9          10          11          12
    1   2.0000000   2.0000000   2.0000000   2.0000000   2.0000000   2.0000000
           13          14          15          16          17          18
    1   2.0000000   2.0000000   2.0000000   2.0000000   2.0000000   2.0000000
           19          20          21          22          23          24
    1   2.0000000   2.0000000   2.0000000   2.0000000   2.0000000   2.0000000
           25          26          27          28          29          30
    1   2.0000000   2.0000000   2.0000000   2.0000000   2.0000000   2.0000000
           31          32          33          34          35          36
    1   2.0000000   2.0000000   2.0000000   2.0000000   2.0000000   2.0000000
           37          38          39          40          41          42
    1   2.0000000   1.9970243   1.9926027   1.9914895   1.9745585   1.9695169
           43          44          45          46          47
    1   1.9536405   1.0180824   0.9994127   0.0526146   0.0510547
  
*** Unpaired Electrons
 Yamaguchi Nd:         2.44
 Head-Gordon Nu:       2.21
 Head-Gordon Nu_nl:    2.03
  
**************************************************
 RAS-CI total energy for state   3:   -497.632200904085
  Excitation energy (eV) =  0.129917435483
  State symmetry: A1  (C1       )
  <S^2>      :  2.0000
  Dipole Moment:   -0.0466 X    -0.0718 Y    -0.0002 Z
  Trans. Moment:    0.5258 X    -0.1162 Y     0.0001 Z
  Strength   :  0.000923
  Natural transition orbitals ( 1 -> 3 ):
   e-/hole pair  1 alpha:  ampl =  0.956545 ( 91.5%)   [10 : 11]
   e-/hole pair  2 alpha:  ampl =  0.072520 (  0.5%)   [9 : 12]
   e-/hole pair  1 beta :  ampl =  0.066183 (  0.4%)   [10 : 11]
   e-/hole pair  2 beta :  ampl =  0.055939 (  0.3%)   [9 : 12]
   Sum of square amplitudes: 0.93

 NATURAL OCCUPATION NUMBERS (higher than 1.0E-05)
            1           2           3           4           5           6
    1   2.0000000   2.0000000   2.0000000   2.0000000   2.0000000   2.0000000
            7           8           9          10          11          12
    1   2.0000000   2.0000000   2.0000000   2.0000000   2.0000000   2.0000000
           13          14          15          16          17          18
    1   2.0000000   2.0000000   2.0000000   2.0000000   2.0000000   2.0000000
           19          20          21          22          23          24
    1   2.0000000   2.0000000   2.0000000   2.0000000   2.0000000   2.0000000
           25          26          27          28          29          30
    1   2.0000000   2.0000000   2.0000000   2.0000000   2.0000000   2.0000000
           31          32          33          34          35          36
    1   2.0000000   2.0000000   2.0000000   2.0000000   2.0000000   2.0000000
           37          38          39          40          41          42
    1   2.0000000   1.9969448   1.9926332   1.9914671   1.9738630   1.9708327
           43          44          45          46          47
    1   1.9529397   1.0181573   0.9994850   0.0535749   0.0500996
Natural Orbitals stored in FCHK

  Amplitudes : 
  
 | HOLE  | ALPHA      | BETA       | PART  |    AMPLITUDE 
--------------------------------------------------
 |       | 1111111001 | 1111110000 |       |     9.5860184560440E-01
--------------------------------------------------
*** Contributions RASCI wfn    Active: 100.00
                                 Hole:   0.00
                                 Part:   0.00

      Mulliken population analysis 
 ---------------------------------------------------
   Atom    Charge (a.u.)   Spin (a.u.)  
 ---------------------------------------------------
   1  C    0.122014        0.002288 
   2  C    0.121731       -0.019051 
   3  C   -0.318871        0.281665 
   4  H    0.122348        0.002099 
   5  C   -0.213205        0.070546 
   6  H    0.120704        0.000816 
   7  C   -0.240272        0.210136 
   8  H    0.123003        0.001416 
   9  C   -0.022137        0.156918 
  10  C   -0.313282        0.314396 
  11  H    0.122037        0.002559 
  12  C   -0.149776       -0.014658 
  13  H    0.121684       -0.000181 
  14  C   -0.332835        0.332165 
  15  H    0.121843        0.002729 
  16  C    0.013398        0.112597 
  17  C   -0.235271        0.193044 
  18  H    0.123154        0.001204 
  19  C   -0.234624        0.099777 
  20  H    0.120489        0.001157 
  21  C   -0.294773        0.246663 
  22  H    0.122639        0.001715 
 ---------------------------------------------------
   Sum:   -1.000000        2.000000 
 ---------------------------------------------------
 
  
 NATURAL OCCUPATION NUMBERS (higher than 1.0E-05)
            1           2           3           4           5           6
    1   2.0000000   2.0000000   2.0000000   2.0000000   2.0000000   2.0000000
            7           8           9          10          11          12
    1   2.0000000   2.0000000   2.0000000   2.0000000   2.0000000   2.0000000
           13          14          15          16          17          18
    1   2.0000000   2.0000000   2.0000000   2.0000000   2.0000000   2.0000000
           19          20          21          22          23          24
    1   2.0000000   2.0000000   2.0000000   2.0000000   2.0000000   2.0000000
           25          26          27          28          29          30
    1   2.0000000   2.0000000   2.0000000   2.0000000   2.0000000   2.0000000
           31          32          33          34          35          36
    1   2.0000000   2.0000000   2.0000000   2.0000000   2.0000000   2.0000000
           37          38          39          40          41          42
    1   2.0000000   1.9969448   1.9926332   1.9914671   1.9738630   1.9708327
           43          44          45          46          47
    1   1.9529397   1.0181573   0.9994850   0.0535749   0.0500996
  
*** Unpaired Electrons
 Yamaguchi Nd:         2.44
 Head-Gordon Nu:       2.21
 Head-Gordon Nu_nl:    2.03
  
**************************************************
 RAS-CI total energy for state   4:   -497.612489796054
  Excitation energy (eV) =  0.666283974487
  State symmetry: A1  (C1       )
  <S^2>      :  2.0000
  Dipole Moment:    0.0005 X     0.1056 Y     0.0003 Z
  Trans. Moment:   -0.0012 X    -0.0012 Y    -0.0838 Z
  Strength   :  0.000115
  Natural transition orbitals ( 1 -> 4 ):
   e-/hole pair  1 alpha:  ampl =  0.948444 ( 90.0%)   [10 : 11]
   e-/hole pair  2 alpha:  ampl =  0.038194 (  0.1%)   [9 : 12]
   e-/hole pair  1 beta :  ampl =  0.002253 (  0.0%)   [10 : 11]
   e-/hole pair  2 beta :  ampl =  0.001506 (  0.0%)   [9 : 12]
   Sum of square amplitudes: 0.90

 NATURAL OCCUPATION NUMBERS (higher than 1.0E-05)
            1           2           3           4           5           6
    1   2.0000000   2.0000000   2.0000000   2.0000000   2.0000000   2.0000000
            7           8           9          10          11          12
    1   2.0000000   2.0000000   2.0000000   2.0000000   2.0000000   2.0000000
           13          14          15          16          17          18
    1   2.0000000   2.0000000   2.0000000   2.0000000   2.0000000   2.0000000
           19          20          21          22          23          24
    1   2.0000000   2.0000000   2.0000000   2.0000000   2.0000000   2.0000000
           25          26          27          28          29          30
    1   2.0000000   2.0000000   2.0000000   1.9999997   1.9999995   1.9999995
           31          32          33          34          35          36
    1   1.9999995   1.9999988   1.9999981   1.9999981   1.9999977   1.9999959
           37          38          39          40          41          42
    1   1.9999958   1.9954762   1.9869737   1.9868857   1.9597097   1.9438749
           43          44          45          46          47          48
    1   1.9437808   1.0141743   0.9495231   0.0606924   0.0606623   0.0478046
           49          50          51          52          53          54
    1   0.0203093   0.0200090   0.0037312   0.0035407   0.0015451   0.0009127
           55          56
    1   0.0003932   0.0000183
Natural Orbitals stored in FCHK

  Amplitudes : 
  
 | HOLE  | ALPHA      | BETA       | PART  |    AMPLITUDE 
--------------------------------------------------
 |       | 1111111000 | 1111110000 |  48   |     9.2979291091973E-01
--------------------------------------------------
*** Contributions RASCI wfn    Active:   0.00
                                 Hole:   0.00
                                 Part: 100.00

      Mulliken population analysis 
 ---------------------------------------------------
   Atom    Charge (a.u.)   Spin (a.u.)  
 ---------------------------------------------------
   1  C    0.006302        0.098618 
   2  C    0.104769       -0.022274 
   3  C   -0.009584       -0.000124 
   4  H   -0.266475        0.391047 
   5  C    0.099162       -0.229445 
   6  H    0.005268        0.116256 
   7  C   -0.022425        0.009872 
   8  H   -0.250807        0.375281 
   9  C    0.104954       -0.022295 
  10  C   -0.018986        0.006607 
  11  H   -0.246743        0.371248 
  12  C    0.091269       -0.222365 
  13  H    0.004364        0.117238 
  14  C   -0.025024        0.011518 
  15  H   -0.238663        0.363155 
  16  C    0.103469       -0.021814 
  17  C   -0.027255        0.013765 
  18  H   -0.241214        0.365688 
  19  C    0.096865       -0.227216 
  20  H    0.004456        0.117161 
  21  C   -0.009136       -0.001019 
  22  H   -0.264568        0.389098 
 ---------------------------------------------------
   Sum:   -1.000000        2.000000 
 ---------------------------------------------------
 
  
 NATURAL OCCUPATION NUMBERS (higher than 1.0E-05)
            1           2           3           4           5           6
    1   2.0000000   2.0000000   2.0000000   2.0000000   2.0000000   2.0000000
            7           8           9          10          11          12
    1   2.0000000   2.0000000   2.0000000   2.0000000   2.0000000   2.0000000
           13          14          15          16          17          18
    1   2.0000000   2.0000000   2.0000000   2.0000000   2.0000000   2.0000000
           19          20          21          22          23          24
    1   2.0000000   2.0000000   2.0000000   2.0000000   2.0000000   2.0000000
           25          26          27          28          29          30
    1   2.0000000   2.0000000   2.0000000   1.9999997   1.9999995   1.9999995
           31          32          33          34          35          36
    1   1.9999995   1.9999988   1.9999981   1.9999981   1.9999977   1.9999959
           37          38          39          40          41          42
    1   1.9999958   1.9954762   1.9869737   1.9868857   1.9597097   1.9438749
           43          44          45          46          47          48
    1   1.9437808   1.0141743   0.9495231   0.0606924   0.0606623   0.0478046
           49          50          51          52          53          54
    1   0.0203093   0.0200090   0.0037312   0.0035407   0.0015451   0.0009127
           55          56
    1   0.0003932   0.0000183
  
*** Unpaired Electrons
 Yamaguchi Nd:         2.78
 Head-Gordon Nu:       2.34
 Head-Gordon Nu_nl:    2.07
  
**************************************************
 RAS-CI total energy for state   5:   -497.600830291195
  Excitation energy (eV) =  0.983555243960
  State symmetry: A1  (C1       )
  <S^2>      :  2.0000
  Dipole Moment:   -0.0534 X     0.0104 Y     0.0030 Z
  Trans. Moment:   -0.0004 X    -0.0017 Y    -0.0023 Z
  Strength   :  0.000000
  Natural transition orbitals ( 1 -> 5 ):
   e-/hole pair  1 alpha:  ampl =  0.946574 ( 89.6%)   [10 : 11]
   e-/hole pair  2 alpha:  ampl =  0.048426 (  0.2%)   [9 : 12]
   e-/hole pair  1 beta :  ampl =  0.002445 (  0.0%)   [10 : 11]
   e-/hole pair  2 beta :  ampl =  0.001822 (  0.0%)   [9 : 12]
   Sum of square amplitudes: 0.90

 NATURAL OCCUPATION NUMBERS (higher than 1.0E-05)
            1           2           3           4           5           6
    1   2.0000000   2.0000000   2.0000000   2.0000000   2.0000000   2.0000000
            7           8           9          10          11          12
    1   2.0000000   2.0000000   2.0000000   2.0000000   2.0000000   2.0000000
           13          14          15          16          17          18
    1   2.0000000   2.0000000   2.0000000   2.0000000   2.0000000   2.0000000
           19          20          21          22          23          24
    1   2.0000000   2.0000000   2.0000000   2.0000000   2.0000000   2.0000000
           25          26          27          28          29          30
    1   2.0000000   2.0000000   2.0000000   1.9999999   1.9999999   1.9999999
           31          32          33          34          35          36
    1   1.9999997   1.9999996   1.9999996   1.9999989   1.9999987   1.9999967
           37          38          39          40          41          42
    1   1.9999961   1.9956318   1.9885919   1.9860084   1.9606735   1.9454825
           43          44          45          46          47          48
    1   1.9400734   1.0141694   0.9488162   0.0622956   0.0598039   0.0472913
           49          50          51          52          53          54
    1   0.0340599   0.0095418   0.0043279   0.0017386   0.0010041   0.0003017
           55
    1   0.0001899
Natural Orbitals stored in FCHK

  Amplitudes : 
  
 | HOLE  | ALPHA      | BETA       | PART  |    AMPLITUDE 
--------------------------------------------------
 |       | 1111111000 | 1111110000 |  49   |    -4.7258144321249E-01
 |       | 1111111000 | 1111110000 |  50   |     7.9942639411028E-01
--------------------------------------------------
*** Contributions RASCI wfn    Active:   0.00
                                 Hole:   0.00
                                 Part: 100.00

      Mulliken population analysis 
 ---------------------------------------------------
   Atom    Charge (a.u.)   Spin (a.u.)  
 ---------------------------------------------------
   1  C    0.087798        0.014439 
   2  C    0.147894       -0.062802 
   3  C    0.090172       -0.081213 
   4  H   -0.337201        0.461837 
   5  C   -0.083302       -0.059117 
   6  H    0.082271        0.039220 
   7  C   -0.157671        0.117991 
   8  H    0.041506        0.082849 
   9  C    0.181771       -0.099671 
  10  C   -0.077844        0.082686 
  11  H   -0.382145        0.506740 
  12  C    0.392948       -0.500373 
  13  H   -0.304048        0.425730 
  14  C   -0.240549        0.213970 
  15  H   -0.137431        0.261887 
  16  C    0.207534       -0.128159 
  17  C   -0.288619        0.234659 
  18  H    0.120678        0.003630 
  19  C    0.091246       -0.221101 
  20  H   -0.053748        0.175363 
  21  C    0.121784       -0.096283 
  22  H   -0.503043        0.627716 
 ---------------------------------------------------
   Sum:   -1.000000        2.000000 
 ---------------------------------------------------
 
  
 NATURAL OCCUPATION NUMBERS (higher than 1.0E-05)
            1           2           3           4           5           6
    1   2.0000000   2.0000000   2.0000000   2.0000000   2.0000000   2.0000000
            7           8           9          10          11          12
    1   2.0000000   2.0000000   2.0000000   2.0000000   2.0000000   2.0000000
           13          14          15          16          17          18
    1   2.0000000   2.0000000   2.0000000   2.0000000   2.0000000   2.0000000
           19          20          21          22          23          24
    1   2.0000000   2.0000000   2.0000000   2.0000000   2.0000000   2.0000000
           25          26          27          28          29          30
    1   2.0000000   2.0000000   2.0000000   1.9999999   1.9999999   1.9999999
           31          32          33          34          35          36
    1   1.9999997   1.9999996   1.9999996   1.9999989   1.9999987   1.9999967
           37          38          39          40          41          42
    1   1.9999961   1.9956318   1.9885919   1.9860084   1.9606735   1.9454825
           43          44          45          46          47          48
    1   1.9400734   1.0141694   0.9488162   0.0622956   0.0598039   0.0472913
           49          50          51          52          53          54
    1   0.0340599   0.0095418   0.0043279   0.0017386   0.0010041   0.0003017
           55
    1   0.0001899
  
*** Unpaired Electrons
 Yamaguchi Nd:         2.79
 Head-Gordon Nu:       2.34
 Head-Gordon Nu_nl:    2.07
  
**************************************************
 RAS-CI total energy for state   6:   -497.600695902823
  Excitation energy (eV) =  0.987212137620
  State symmetry: A1  (C1       )
  <S^2>      :  2.0000
  Dipole Moment:    0.0526 X    -0.0337 Y    -0.0027 Z
  Trans. Moment:    0.0009 X     0.0004 Y    -0.0010 Z
  Strength   :  0.000000
  Natural transition orbitals ( 1 -> 6 ):
   e-/hole pair  1 alpha:  ampl =  0.946833 ( 89.6%)   [10 : 11]
   e-/hole pair  2 alpha:  ampl =  0.047880 (  0.2%)   [9 : 12]
   e-/hole pair  1 beta :  ampl =  0.002619 (  0.0%)   [10 : 11]
   e-/hole pair  2 beta :  ampl =  0.001991 (  0.0%)   [9 : 12]
   Sum of square amplitudes: 0.90

 NATURAL OCCUPATION NUMBERS (higher than 1.0E-05)
            1           2           3           4           5           6
    1   2.0000000   2.0000000   2.0000000   2.0000000   2.0000000   2.0000000
            7           8           9          10          11          12
    1   2.0000000   2.0000000   2.0000000   2.0000000   2.0000000   2.0000000
           13          14          15          16          17          18
    1   2.0000000   2.0000000   2.0000000   2.0000000   2.0000000   2.0000000
           19          20          21          22          23          24
    1   2.0000000   2.0000000   2.0000000   2.0000000   2.0000000   2.0000000
           25          26          27          28          29          30
    1   2.0000000   2.0000000   2.0000000   1.9999999   1.9999999   1.9999999
           31          32          33          34          35          36
    1   1.9999997   1.9999996   1.9999995   1.9999991   1.9999987   1.9999968
           37          38          39          40          41          42
    1   1.9999960   1.9956894   1.9884157   1.9863386   1.9605220   1.9461580
           43          44          45          46          47          48
    1   1.9397608   1.0135041   0.9493787   0.0624633   0.0596833   0.0474866
           49          50          51          52          53          54
    1   0.0337004   0.0093553   0.0041595   0.0018773   0.0009548   0.0003925
           55
    1   0.0001615
Natural Orbitals stored in FCHK

  Amplitudes : 
  
 | HOLE  | ALPHA      | BETA       | PART  |    AMPLITUDE 
--------------------------------------------------
 |       | 1111111000 | 1111110000 |  49   |     7.9970211591201E-01
 |       | 1111111000 | 1111110000 |  50   |     4.7267301171194E-01
--------------------------------------------------
*** Contributions RASCI wfn    Active:   0.00
                                 Hole:   0.00
                                 Part: 100.00

      Mulliken population analysis 
 ---------------------------------------------------
   Atom    Charge (a.u.)   Spin (a.u.)  
 ---------------------------------------------------
   1  C    0.086512        0.015666 
   2  C    0.220479       -0.141197 
   3  C   -0.282022        0.246416 
   4  H   -0.063724        0.188205 
   5  C    0.353908       -0.465643 
   6  H   -0.261188        0.382752 
   7  C   -0.037438        0.049298 
   8  H   -0.434620        0.559197 
   9  C    0.180010       -0.096902 
  10  C   -0.106816        0.075442 
  11  H   -0.016034        0.140459 
  12  C   -0.114813       -0.029880 
  13  H    0.104011        0.017543 
  14  C    0.054454       -0.054396 
  15  H   -0.255404        0.379948 
  16  C    0.148311       -0.064179 
  17  C    0.096146       -0.069237 
  18  H   -0.511447        0.636085 
  19  C    0.182308       -0.305513 
  20  H   -0.132390        0.254024 
  21  C   -0.310755        0.258052 
  22  H    0.100511        0.023860 
 ---------------------------------------------------
   Sum:   -1.000000        2.000000 
 ---------------------------------------------------
 
  
 NATURAL OCCUPATION NUMBERS (higher than 1.0E-05)
            1           2           3           4           5           6
    1   2.0000000   2.0000000   2.0000000   2.0000000   2.0000000   2.0000000
            7           8           9          10          11          12
    1   2.0000000   2.0000000   2.0000000   2.0000000   2.0000000   2.0000000
           13          14          15          16          17          18
    1   2.0000000   2.0000000   2.0000000   2.0000000   2.0000000   2.0000000
           19          20          21          22          23          24
    1   2.0000000   2.0000000   2.0000000   2.0000000   2.0000000   2.0000000
           25          26          27          28          29          30
    1   2.0000000   2.0000000   2.0000000   1.9999999   1.9999999   1.9999999
           31          32          33          34          35          36
    1   1.9999997   1.9999996   1.9999995   1.9999991   1.9999987   1.9999968
           37          38          39          40          41          42
    1   1.9999960   1.9956894   1.9884157   1.9863386   1.9605220   1.9461580
           43          44          45          46          47          48
    1   1.9397608   1.0135041   0.9493787   0.0624633   0.0596833   0.0474866
           49          50          51          52          53          54
    1   0.0337004   0.0093553   0.0041595   0.0018773   0.0009548   0.0003925
           55
    1   0.0001615
  
*** Unpaired Electrons
 Yamaguchi Nd:         2.78
 Head-Gordon Nu:       2.34
 Head-Gordon Nu_nl:    2.07
  
**************************************************
 RAS-CI total energy for state   7:   -497.581155969338
  Excitation energy (eV) =  1.518920780212
  State symmetry: A1  (C1       )
  <S^2>      :  2.0000
  Dipole Moment:   -0.3117 X     0.3170 Y     0.0007 Z
  Trans. Moment:   -0.0012 X    -0.0022 Y    -0.0060 Z
  Strength   :  0.000002
  Natural transition orbitals ( 1 -> 7 ):
   e-/hole pair  1 alpha:  ampl =  0.947267 ( 89.7%)   [10 : 11]
   e-/hole pair  2 alpha:  ampl =  0.042814 (  0.2%)   [9 : 12]
   e-/hole pair  1 beta :  ampl =  0.004045 (  0.0%)   [10 : 11]
   e-/hole pair  2 beta :  ampl =  0.002267 (  0.0%)   [9 : 12]
   Sum of square amplitudes: 0.90

 NATURAL OCCUPATION NUMBERS (higher than 1.0E-05)
            1           2           3           4           5           6
    1   2.0000000   2.0000000   2.0000000   2.0000000   2.0000000   2.0000000
            7           8           9          10          11          12
    1   2.0000000   2.0000000   2.0000000   2.0000000   2.0000000   2.0000000
           13          14          15          16          17          18
    1   2.0000000   2.0000000   2.0000000   2.0000000   2.0000000   2.0000000
           19          20          21          22          23          24
    1   2.0000000   2.0000000   2.0000000   2.0000000   2.0000000   2.0000000
           25          26          27          28          29          30
    1   2.0000000   2.0000000   2.0000000   1.9999998   1.9999998   1.9999997
           31          32          33          34          35          36
    1   1.9999996   1.9999990   1.9999978   1.9999976   1.9999964   1.9999933
           37          38          39          40          41          42
    1   1.9999927   1.9954971   1.9877543   1.9858457   1.9590365   1.9459259
           43          44          45          46          47          48
    1   1.9409839   1.0150126   0.9485605   0.0618204   0.0601323   0.0480401
           49          50          51          52          53          54
    1   0.0219383   0.0201110   0.0073929   0.0008442   0.0007097   0.0003186
           55
    1   0.0000935
Natural Orbitals stored in FCHK

  Amplitudes : 
  
 | HOLE  | ALPHA      | BETA       | PART  |    AMPLITUDE 
--------------------------------------------------
 |       | 1111111000 | 1111110000 |  51   |    -3.5497025572332E-01
 |       | 1111111000 | 1111110000 |  52   |     8.5832444614259E-01
--------------------------------------------------
*** Contributions RASCI wfn    Active:   0.00
                                 Hole:   0.00
                                 Part: 100.00

      Mulliken population analysis 
 ---------------------------------------------------
   Atom    Charge (a.u.)   Spin (a.u.)  
 ---------------------------------------------------
   1  C    0.092522        0.007786 
   2  C    0.140435       -0.057872 
   3  C   -0.192136        0.167641 
   4  H    0.130235       -0.005689 
   5  C    0.381886       -0.488052 
   6  H   -0.698213        0.819711 
   7  C   -0.190132        0.165495 
   8  H    0.129483       -0.005032 
   9  C    0.133615       -0.050752 
  10  C    0.107664       -0.110729 
  11  H   -0.312491        0.437034 
  12  C   -0.054507       -0.076583 
  13  H   -0.070373        0.191968 
  14  C    0.085355       -0.103465 
  15  H   -0.284956        0.409406 
  16  C    0.135132       -0.052555 
  17  C    0.091419       -0.108395 
  18  H   -0.294142        0.418583 
  19  C   -0.078025       -0.054467 
  20  H   -0.030948        0.152552 
  21  C    0.117055       -0.120008 
  22  H   -0.338878        0.463422 
 ---------------------------------------------------
   Sum:   -1.000000        2.000000 
 ---------------------------------------------------
 
  
 NATURAL OCCUPATION NUMBERS (higher than 1.0E-05)
            1           2           3           4           5           6
    1   2.0000000   2.0000000   2.0000000   2.0000000   2.0000000   2.0000000
            7           8           9          10          11          12
    1   2.0000000   2.0000000   2.0000000   2.0000000   2.0000000   2.0000000
           13          14          15          16          17          18
    1   2.0000000   2.0000000   2.0000000   2.0000000   2.0000000   2.0000000
           19          20          21          22          23          24
    1   2.0000000   2.0000000   2.0000000   2.0000000   2.0000000   2.0000000
           25          26          27          28          29          30
    1   2.0000000   2.0000000   2.0000000   1.9999998   1.9999998   1.9999997
           31          32          33          34          35          36
    1   1.9999996   1.9999990   1.9999978   1.9999976   1.9999964   1.9999933
           37          38          39          40          41          42
    1   1.9999927   1.9954971   1.9877543   1.9858457   1.9590365   1.9459259
           43          44          45          46          47          48
    1   1.9409839   1.0150126   0.9485605   0.0618204   0.0601323   0.0480401
           49          50          51          52          53          54
    1   0.0219383   0.0201110   0.0073929   0.0008442   0.0007097   0.0003186
           55
    1   0.0000935
  
*** Unpaired Electrons
 Yamaguchi Nd:         2.79
 Head-Gordon Nu:       2.34
 Head-Gordon Nu_nl:    2.07
  
**************************************************
 RAS-CI total energy for state   8:   -497.581120064148
  Excitation energy (eV) =  1.519897810167
  State symmetry: A1  (C1       )
  <S^2>      :  2.0000
  Dipole Moment:    0.3126 X    -0.1809 Y    -0.0007 Z
  Trans. Moment:   -0.0005 X    -0.0013 Y     0.0050 Z
  Strength   :  0.000001
  Natural transition orbitals ( 1 -> 8 ):
   e-/hole pair  1 alpha:  ampl =  0.947344 ( 89.7%)   [10 : 11]
   e-/hole pair  2 alpha:  ampl =  0.042085 (  0.2%)   [9 : 12]
   e-/hole pair  1 beta :  ampl =  0.003558 (  0.0%)   [10 : 11]
   e-/hole pair  2 beta :  ampl =  0.003365 (  0.0%)   [9 : 12]
   Sum of square amplitudes: 0.90

 NATURAL OCCUPATION NUMBERS (higher than 1.0E-05)
            1           2           3           4           5           6
    1   2.0000000   2.0000000   2.0000000   2.0000000   2.0000000   2.0000000
            7           8           9          10          11          12
    1   2.0000000   2.0000000   2.0000000   2.0000000   2.0000000   2.0000000
           13          14          15          16          17          18
    1   2.0000000   2.0000000   2.0000000   2.0000000   2.0000000   2.0000000
           19          20          21          22          23          24
    1   2.0000000   2.0000000   2.0000000   2.0000000   2.0000000   2.0000000
           25          26          27          28          29          30
    1   2.0000000   2.0000000   2.0000000   1.9999998   1.9999998   1.9999997
           31          32          33          34          35          36
    1   1.9999997   1.9999990   1.9999977   1.9999974   1.9999969   1.9999933
           37          38          39          40          41          42
    1   1.9999927   1.9955076   1.9878063   1.9858505   1.9590731   1.9458885
           43          44          45          46          47          48
    1   1.9412111   1.0146576   0.9487848   0.0615936   0.0604671   0.0479925
           49          50          51          52          53          54
    1   0.0222429   0.0196311   0.0073514   0.0009006   0.0005226   0.0004079
           55
    1   0.0001286
Natural Orbitals stored in FCHK

  Amplitudes : 
  
 | HOLE  | ALPHA      | BETA       | PART  |    AMPLITUDE 
[...]
 <Sz=-1.00|    0.000000   -0.004705i    -0.001327    0.000415i    -0.000000    0.000000i
 <Sz= 0.00|    0.001327    0.000415i     0.000000   -0.000000i    -0.001327    0.000415i
 <Sz= 1.00|   -0.000000    0.000000i     0.001327    0.000415i     0.000000    0.004705i
1-elec SOCC =     0.007211073 cm-1
 Reading 2e-SOMF integrals
 2e-SOMF Reduced matrix elements (cm-1)
<S|| Hso(L-) ||S'> =     0.0011771256     0.0000004413
<S|| Hso(L0) ||S'> =     0.0000000000    -0.0068665066
<S|| Hso(L+) ||S'> =     0.0011771256    -0.0000004413
 2-elec mean-field SOC matrix (cm-1): < B(S,Sz) | Hso(2e-mf) | A(S',Sz') >
                     |Sz'=-1.00>              |Sz'= 0.00>              |Sz'= 1.00>
 <Sz=-1.00|   -0.000000    0.004855i     0.000832   -0.000000i     0.000000   -0.000000i
 <Sz= 0.00|   -0.000832   -0.000000i    -0.000000   -0.000000i     0.000832   -0.000000i
 <Sz= 1.00|    0.000000   -0.000000i    -0.000832   -0.000000i    -0.000000   -0.004855i
 Total mean-field SOC matrix (cm-1): < B(S,Sz) | Hsomf | A(S',Sz') >
                     |Sz'=-1.00>              |Sz'= 0.00>              |Sz'= 1.00>
 <Sz=-1.00|    0.000000    0.000151i    -0.000494    0.000415i    -0.000000    0.000000i
 <Sz= 0.00|    0.000494    0.000415i     0.000000   -0.000000i    -0.000494    0.000415i
 <Sz= 1.00|   -0.000000   -0.000000i     0.000494    0.000415i     0.000000   -0.000151i
Mean-Field SOCC =     0.001308323 cm-1
   
**************************************************
RAS-CI timing summary (seconds)
  CPU time      12239.60s
  System time       0.12s
  Wall time     13601.67s
Detailed CPU timing summary
     Fock matrix         :       107.4651 s
     Integrals           :      1026.1838 s
     Addressing matrices :         0.0003 s
     Guesses             :         0.0553 s
     Iterations          :      2578.1483 s
     Properties          :      8527.7423 s
     RAS-CI(2) correction:         0.0000 s
  
 
 --------------------------------------------------------------
 
                    Orbital Energies (a.u.)
 --------------------------------------------------------------
 
 Alpha MOs
 -- Occupied --
-11.2434 -11.2432 -11.2432 -11.2396 -11.2372 -11.2372 -11.2371 -11.2373
-11.2372 -11.2372 -11.2353 -11.2353 -11.2353  -1.1968  -1.1232  -1.1232
 -1.0258  -1.0258  -1.0131  -0.9210  -0.8513  -0.8379  -0.8379  -0.7152
 -0.7152  -0.6963  -0.6962  -0.6528  -0.6013  -0.6012  -0.5939  -0.5748
 -0.5475  -0.5475  -0.5361  -0.4767  -0.4767  -0.5614  -0.4749  -0.4749
 -0.3368  -0.3564  -0.3564  -0.2093
 -- Virtual --
  0.1074   0.1035   0.1035   0.1521   0.1640   0.1640   0.1824   0.1824
  0.1920   0.2231   0.2333   0.2368   0.2369   0.2391   0.2392   0.2575
  0.2575   0.3008   0.3049   0.3050   0.3279   0.3366   0.3367   0.3477
  0.3477   0.3542   0.3739   0.3735   0.4125   0.4125   0.4116   0.4116
  0.4191   0.4379   0.4486   0.4572   0.4573   0.4558   0.4742   0.4742
  0.4784   0.4939   0.4940   0.5141   0.5141   0.5280   0.5416   0.5511
  0.5512   0.5632   0.5632   0.5754   0.5757   0.5786   0.5787   0.5823
  0.5833   0.6147   0.6147   0.6168   0.6447   0.6448   0.6856   0.6857
  0.6845   0.6849   0.6885   0.7007   0.7107   0.7117   0.7119   0.7233
  0.7949   0.8076   0.8083   0.8135   0.8140   0.8573   0.8576   0.8640
  0.8643   0.8760   0.8761   0.8811   0.8916   0.8999   0.9001   0.9192
  0.9355   0.9679   0.9686   0.9684   0.9949   0.9949   1.0041   1.0042
  1.0074   1.0264   1.0264   1.0271   1.0463   1.0932   1.0938   1.1021
  1.1021   1.1229   1.1230   1.1720   1.1877   1.1919   1.1921   1.2058
  1.2058   1.2083   1.2313   1.3148   1.3322   1.3328   1.3535   1.3535
  1.3813   1.3813   1.3838   1.4125   1.4311   1.4311   1.4452   1.4452
  1.4549   1.4783   1.4846   1.4846   1.5121   1.5103   1.5193   1.5566
  1.5566   1.5972   1.5973   1.6303   1.6303   1.6630   1.6635   1.6823
  1.6899   1.6937   1.7097   1.7352   1.7408   1.7410   1.7541   1.7542
  1.7995   1.7996   1.8090   1.8092   1.8317   1.8420   1.8420   1.9147
  1.9165   1.9387   1.9425   1.9426   1.9458   1.9712   1.9716   1.9739
  1.9938   2.0051   2.0051   2.0112   2.0112   2.0676   2.0846   2.0846
  2.1076   2.1077   2.1476   2.1477   2.1824   2.2027   2.2382   2.2643
  2.2644   2.2693   2.2781   2.2782   2.3334   2.3335   2.3612   2.4342
  2.4343   2.4487   2.4488   2.4569   2.4843   2.4845   2.4958   2.5184
  2.5184   2.5397   2.5411   2.5776   2.5776   2.5792   2.5792   2.6029
  2.6739   2.7298   2.7299   2.7432   2.7433   2.7505   2.7601   2.7602
  2.8839   2.8844   2.8846   2.9014   2.9035   2.9037   2.9118   2.9173
  2.9173   2.9426   2.9440   2.9819   2.9924   2.9924   3.0163   3.0164
  3.0243   3.0487   3.0497   3.0498   3.0655   3.0740   3.0741   3.1069
  3.1070   3.1076   3.1143   3.1445   3.1445   3.1546   3.1718   3.1719
  3.2001   3.2003   3.2119   3.2351   3.2593   3.2595   3.2657   3.2883
  3.2884   3.2902   3.2957   3.2957   3.3051   3.3153   3.3248   3.3248
  3.3299   3.3301   3.3587   3.3587   3.3651   3.4487   3.4489   3.4610
  3.4611   3.4663   3.4717   3.4735   3.4736   3.5320   3.5321   3.5415
  3.5416   3.5537   3.5538   3.5791   3.5792   3.5922   3.5996   3.5983
  3.6371   3.6371   3.6420   3.6420   3.6556   3.6730   3.6920   3.6920
  3.6961   3.6974   3.6976   3.7170   3.7325   3.7712   3.7767   3.8110
  3.8110   3.8302   3.8426   3.8426   3.8513   3.8803   3.8946   3.9138
  3.9138   3.9189   3.9326   3.9327   3.9432   3.9433   3.9867   3.9867
  4.0577   4.0579   4.0697   4.0698   4.1112   4.1236   4.1236   4.2122
  4.2122   4.2151   4.2185   4.2186   4.2319   4.2655   4.3085   4.3086
  4.3601   4.3602   4.3651   4.4147   4.4200   4.4201   4.4652   4.4676
  4.4741   4.4741   4.4885   4.5328   4.5645   4.5647   4.5926   4.5927
  4.6434   4.6438   4.6476   4.6477   4.6866   4.6867   4.7330   4.7436
  4.7468   4.7926   4.7927   4.8168   4.8169   4.8583   4.9089   4.9341
  4.9342   4.9727   4.9959   5.0505   5.0506   5.1553   5.1555   5.1846
  5.2428   5.2428   5.2819   5.2820   5.3338   5.3594   5.4137   5.4138
  5.4958   5.4963   5.5244   5.5660   5.6060   5.7112   5.7115   5.7648
  5.7915   5.7918   5.9920   5.9922   6.1607   6.1608   6.1612   6.5766
 22.9097  23.7275  23.7455  23.7456  23.8740  23.8742  23.8924  24.0514
 24.0518  24.1219  24.3730  24.3731  25.0263
 
 Beta MOs
 -- Occupied --
-11.2434 -11.2432 -11.2432 -11.2396 -11.2372 -11.2372 -11.2371 -11.2373
-11.2372 -11.2372 -11.2353 -11.2353 -11.2353  -1.1968  -1.1232  -1.1232
 -1.0258  -1.0258  -1.0131  -0.9210  -0.8513  -0.8379  -0.8379  -0.7152
 -0.7152  -0.6963  -0.6962  -0.6528  -0.6013  -0.6012  -0.5939  -0.5748
 -0.5475  -0.5475  -0.5361  -0.4767  -0.4767  -0.5614  -0.4749  -0.4749
 -0.3368  -0.3564  -0.3564
 -- Virtual --
 -0.2093   0.1074   0.1035   0.1035   0.1521   0.1640   0.1640   0.1824
  0.1824   0.1920   0.2231   0.2333   0.2368   0.2369   0.2391   0.2392
  0.2575   0.2575   0.3008   0.3049   0.3050   0.3279   0.3366   0.3367
  0.3477   0.3477   0.3542   0.3739   0.3735   0.4125   0.4125   0.4116
  0.4116   0.4191   0.4379   0.4486   0.4572   0.4573   0.4558   0.4742
  0.4742   0.4784   0.4939   0.4940   0.5141   0.5141   0.5280   0.5416
  0.5511   0.5512   0.5632   0.5632   0.5754   0.5757   0.5786   0.5787
  0.5823   0.5833   0.6147   0.6147   0.6168   0.6447   0.6448   0.6856
  0.6857   0.6845   0.6849   0.6885   0.7007   0.7107   0.7117   0.7119
  0.7233   0.7949   0.8076   0.8083   0.8135   0.8140   0.8573   0.8576
  0.8640   0.8643   0.8760   0.8761   0.8811   0.8916   0.8999   0.9001
  0.9192   0.9355   0.9679   0.9686   0.9684   0.9949   0.9949   1.0041
  1.0042   1.0074   1.0264   1.0264   1.0271   1.0463   1.0932   1.0938
  1.1021   1.1021   1.1229   1.1230   1.1720   1.1877   1.1919   1.1921
  1.2058   1.2058   1.2083   1.2313   1.3148   1.3322   1.3328   1.3535
  1.3535   1.3813   1.3813   1.3838   1.4125   1.4311   1.4311   1.4452
  1.4452   1.4549   1.4783   1.4846   1.4846   1.5121   1.5103   1.5193
  1.5566   1.5566   1.5972   1.5973   1.6303   1.6303   1.6630   1.6635
  1.6823   1.6899   1.6937   1.7097   1.7352   1.7408   1.7410   1.7541
  1.7542   1.7995   1.7996   1.8090   1.8092   1.8317   1.8420   1.8420
  1.9147   1.9165   1.9387   1.9425   1.9426   1.9458   1.9712   1.9716
  1.9739   1.9938   2.0051   2.0051   2.0112   2.0112   2.0676   2.0846
  2.0846   2.1076   2.1077   2.1476   2.1477   2.1824   2.2027   2.2382
  2.2643   2.2644   2.2693   2.2781   2.2782   2.3334   2.3335   2.3612
  2.4342   2.4343   2.4487   2.4488   2.4569   2.4843   2.4845   2.4958
  2.5184   2.5184   2.5397   2.5411   2.5776   2.5776   2.5792   2.5792
  2.6029   2.6739   2.7298   2.7299   2.7432   2.7433   2.7505   2.7601
  2.7602   2.8839   2.8844   2.8846   2.9014   2.9035   2.9037   2.9118
  2.9173   2.9173   2.9426   2.9440   2.9819   2.9924   2.9924   3.0163
  3.0164   3.0243   3.0487   3.0497   3.0498   3.0655   3.0740   3.0741
  3.1069   3.1070   3.1076   3.1143   3.1445   3.1445   3.1546   3.1718
  3.1719   3.2001   3.2003   3.2119   3.2351   3.2593   3.2595   3.2657
  3.2883   3.2884   3.2902   3.2957   3.2957   3.3051   3.3153   3.3248
  3.3248   3.3299   3.3301   3.3587   3.3587   3.3651   3.4487   3.4489
  3.4610   3.4611   3.4663   3.4717   3.4735   3.4736   3.5320   3.5321
  3.5415   3.5416   3.5537   3.5538   3.5791   3.5792   3.5922   3.5996
  3.5983   3.6371   3.6371   3.6420   3.6420   3.6556   3.6730   3.6920
  3.6920   3.6961   3.6974   3.6976   3.7170   3.7325   3.7712   3.7767
  3.8110   3.8110   3.8302   3.8426   3.8426   3.8513   3.8803   3.8946
  3.9138   3.9138   3.9189   3.9326   3.9327   3.9432   3.9433   3.9867
  3.9867   4.0577   4.0579   4.0697   4.0698   4.1112   4.1236   4.1236
  4.2122   4.2122   4.2151   4.2185   4.2186   4.2319   4.2655   4.3085
  4.3086   4.3601   4.3602   4.3651   4.4147   4.4200   4.4201   4.4652
  4.4676   4.4741   4.4741   4.4885   4.5328   4.5645   4.5647   4.5926
  4.5927   4.6434   4.6438   4.6476   4.6477   4.6866   4.6867   4.7330
  4.7436   4.7468   4.7926   4.7927   4.8168   4.8169   4.8583   4.9089
  4.9341   4.9342   4.9727   4.9959   5.0505   5.0506   5.1553   5.1555
  5.1846   5.2428   5.2428   5.2819   5.2820   5.3338   5.3594   5.4137
  5.4138   5.4958   5.4963   5.5244   5.5660   5.6060   5.7112   5.7115
  5.7648   5.7915   5.7918   5.9920   5.9922   6.1607   6.1608   6.1612
  6.5766  22.9097  23.7275  23.7455  23.7456  23.8740  23.8742  23.8924
 24.0514  24.0518  24.1219  24.3730  24.3731  25.0263
 --------------------------------------------------------------
 
          Ground-State Mulliken Net Atomic Charges

     Atom                 Charge (a.u.)
  ----------------------------------------
      1 C                     0.097123
      2 C                     0.119011
      3 C                    -0.208959
      4 H                     0.123397
      5 C                    -0.101814
      6 H                     0.121898
      7 C                    -0.209323
      8 H                     0.123305
      9 C                     0.119512
     10 C                    -0.209315
     11 H                     0.123337
     12 C                    -0.101639
     13 H                     0.121973
     14 C                    -0.209095
     15 H                     0.123329
     16 C                     0.118695
     17 C                    -0.209094
     18 H                     0.123308
     19 C                    -0.101576
     20 H                     0.121989
     21 C                    -0.209419
     22 H                     0.123355
  ----------------------------------------
  Sum of atomic charges =     0.000000

  Do orbital-by-orbital Lowdin population analysis
 
 
 Partial Mulliken analysis unavailable for frozen orbitals
 
 -----------------------------------------------------------------
                    Cartesian Multipole Moments
 -----------------------------------------------------------------
    Charge (ESU x 10^10)
                 0.0000
    Dipole Moment (Debye)
         X      -0.0000      Y       0.0001      Z       0.0003
       Tot       0.0004
    Quadrupole Moments (Debye-Ang)
        XX     -66.0352     XY      -0.0031     YY     -66.0441
        XZ       0.0005     YZ       0.0052     ZZ     -83.5269
    Octopole Moments (Debye-Ang^2)
       XXX      -0.8191    XXY      -0.5084    XYY       0.8197
       YYY       0.5105    XXZ      -0.0177    XYZ       0.0378
       YYZ       0.0199    XZZ      -0.0002    YZZ      -0.0010
       ZZZ       0.0007
    Hexadecapole Moments (Debye-Ang^3)
      XXXX   -1210.4574   XXXY      -0.0758   XXYY    -403.5157
      XYYY       0.0050   YYYY   -1210.5393   XXXZ      -0.0370
      XXYZ       0.0385   XYYZ       0.0398   YYYZ       0.0137
      XXZZ    -273.7041   XYZZ      -0.0058   YYZZ    -273.6993
      XZZZ       0.0013   YZZZ       0.0070   ZZZZ    -101.2043
 -----------------------------------------------------------------
 Mayer SCF Bond Order, atomic valence on the diagonal:

            1           2           3           4           5           6
    1   3.7194410   1.3107510  -0.0426764   0.0067445  -0.0003746   0.0010760
    2   1.3107510   3.8450898   1.2999158  -0.0251773   0.0239805   0.0056058
    3  -0.0426764   1.2999158   3.8708817   0.9866357   1.4095285  -0.0151125
    4   0.0067445  -0.0251773   0.9866357   0.9727028  -0.0104017  -0.0003968
    5  -0.0003746   0.0239805   1.4095285  -0.0104017   3.8822443   0.9892549
    6   0.0010760   0.0056058  -0.0151125  -0.0003968   0.9892549   0.9721667
    7  -0.0423464   0.0307754   0.0652762   0.0063942   1.4094109  -0.0151137
    8   0.0067685   0.0006727   0.0063901   0.0006172  -0.0104171  -0.0004014
    9   1.3110352  -0.0785968   0.0311362   0.0006706   0.0237400   0.0055951
   10  -0.0420325   0.0129805   0.0267583  -0.0002022   0.0193321   0.0004934
   11   0.0067783   0.0005686  -0.0001016   0.0000165   0.0004000   0.0000093
   12  -0.0006418  -0.0068325   0.0076297   0.0002861  -0.0006301   0.0001609
   13   0.0010765   0.0001341   0.0000438   0.0000079   0.0001610   0.0000488
   14  -0.0424762   0.0130245   0.0314678   0.0003001   0.0076457   0.0000426
   15   0.0067688   0.0005706   0.0002995   0.0000534   0.0002881   0.0000076
   16   1.3096291  -0.0794012   0.0130945   0.0005747  -0.0068545   0.0001317
   17  -0.0424475   0.0313863   0.0267525  -0.0001024   0.0076394   0.0000461
   18   0.0067725   0.0006694  -0.0002000   0.0000167   0.0002867   0.0000077
   19  -0.0007164   0.0238098   0.0193474   0.0004050  -0.0006325   0.0001615
   20   0.0010626   0.0055897   0.0004943   0.0000091   0.0001596   0.0000490
   21  -0.0420801   1.2998789   0.0003155   0.0039027   0.0193262   0.0004921
   22   0.0067700  -0.0252160   0.0038864   0.0023488   0.0004013   0.0000086
            7           8           9          10          11          12
    1  -0.0423464   0.0067685   1.3110352  -0.0420325   0.0067783  -0.0006418
    2   0.0307754   0.0006727  -0.0785968   0.0129805   0.0005686  -0.0068325
    3   0.0652762   0.0063901   0.0311362   0.0267583  -0.0001016   0.0076297
    4   0.0063942   0.0006172   0.0006706  -0.0002022   0.0000165   0.0002861
    5   1.4094109  -0.0104171   0.0237400   0.0193321   0.0004000  -0.0006301
    6  -0.0151137  -0.0004014   0.0055951   0.0004934   0.0000093   0.0001609
    7   3.8707607   0.9866586   1.2998163   0.0003702   0.0039101   0.0193471
    8   0.9866586   0.9727731  -0.0251440   0.0039113   0.0023612   0.0003989
    9   1.2998163  -0.0251440   3.8458451   1.3003738  -0.0251679   0.0237139
   10   0.0003702   0.0039113   1.3003738   3.8714098   0.9866698   1.4091893
   11   0.0039101   0.0023612  -0.0251679   0.9866698   0.9727419  -0.0104490
   12   0.0193471   0.0003989   0.0237139   1.4091893  -0.0104490   3.8817144
   13   0.0004916   0.0000086   0.0056010  -0.0150829  -0.0003952   0.9891536
   14   0.0267363  -0.0000995   0.0313159   0.0651470   0.0063927   1.4096268
   15  -0.0002036   0.0000166   0.0006738   0.0063913   0.0006163  -0.0104277
   16   0.0130676   0.0005718  -0.0793006   0.0309108   0.0006743   0.0239988
   17   0.0315444   0.0002974   0.0130133   0.0267708  -0.0002093   0.0193909
   18   0.0003007   0.0000538   0.0005700  -0.0001005   0.0000169   0.0003971
   19   0.0075617   0.0002895  -0.0068538   0.0076231   0.0002912  -0.0006878
   20   0.0000442   0.0000079   0.0001350   0.0000415   0.0000077   0.0001587
   21   0.0268197  -0.0002061   0.0129433   0.0315654   0.0002983   0.0076418
   22  -0.0001009   0.0000173   0.0005750   0.0002994   0.0000537   0.0002899
           13          14          15          16          17          18
    1   0.0010765  -0.0424762   0.0067688   1.3096291  -0.0424475   0.0067725
    2   0.0001341   0.0130245   0.0005706  -0.0794012   0.0313863   0.0006694
    3   0.0000438   0.0314678   0.0002995   0.0130945   0.0267525  -0.0002000
    4   0.0000079   0.0003001   0.0000534   0.0005747  -0.0001024   0.0000167
    5   0.0001610   0.0076457   0.0002881  -0.0068545   0.0076394   0.0002867
    6   0.0000488   0.0000426   0.0000076   0.0001317   0.0000461   0.0000077
    7   0.0004916   0.0267363  -0.0002036   0.0130676   0.0315444   0.0003007
    8   0.0000086  -0.0000995   0.0000166   0.0005718   0.0002974   0.0000538
    9   0.0056010   0.0313159   0.0006738  -0.0793006   0.0130133   0.0005700
   10  -0.0150829   0.0651470   0.0063913   0.0309108   0.0267708  -0.0001005
   11  -0.0003952   0.0063927   0.0006163   0.0006743  -0.0002093   0.0000169
   12   0.9891536   1.4096268  -0.0104277   0.0239988   0.0193909   0.0003971
   13   0.9721368  -0.0150796  -0.0003965   0.0056042   0.0004930   0.0000091
   14  -0.0150796   3.8716208   0.9866517   1.3001739   0.0004206   0.0039046
   15  -0.0003965   0.9866517   0.9727341  -0.0251822   0.0039220   0.0023610
   16   0.0056042   1.3001739  -0.0251822   3.8440032   1.3000917  -0.0251468
   17   0.0004930   0.0004206   0.0039220   1.3000917   3.8718316   0.9866383
   18   0.0000091   0.0039046   0.0023610  -0.0251468   0.9866383   0.9727613
   19   0.0001599   0.0193913   0.0003982   0.0240836   1.4096058  -0.0104072
   20   0.0000484   0.0004960   0.0000095   0.0055889  -0.0149753  -0.0003971
   21   0.0000421   0.0267452  -0.0001009   0.0310215   0.0651527   0.0063914
   22   0.0000078  -0.0002067   0.0000168   0.0006712   0.0064008   0.0006170
           19          20          21          22
    1  -0.0007164   0.0010626  -0.0420801   0.0067700
    2   0.0238098   0.0055897   1.2998789  -0.0252160
    3   0.0193474   0.0004943   0.0003155   0.0038864
    4   0.0004050   0.0000091   0.0039027   0.0023488
    5  -0.0006325   0.0001596   0.0193262   0.0004013
    6   0.0001615   0.0000490   0.0004921   0.0000086
    7   0.0075617   0.0000442   0.0268197  -0.0001009
    8   0.0002895   0.0000079  -0.0002061   0.0000173
    9  -0.0068538   0.0001350   0.0129433   0.0005750
   10   0.0076231   0.0000415   0.0315654   0.0002994
   11   0.0002912   0.0000077   0.0002983   0.0000537
   12  -0.0006878   0.0001587   0.0076418   0.0002899
   13   0.0001599   0.0000484   0.0000421   0.0000078
   14   0.0193913   0.0004960   0.0267452  -0.0002067
   15   0.0003982   0.0000095  -0.0001009   0.0000168
   16   0.0240836   0.0055889   0.0310215   0.0006712
   17   1.4096058  -0.0149753   0.0651527   0.0064008
   18  -0.0104072  -0.0003971   0.0063914   0.0006170
   19   3.8820822   0.9889581   1.4097241  -0.0104304
   20   0.9889581   0.9721277  -0.0149700  -0.0003901
   21   1.4097241  -0.0149700   3.8716203   0.9867166
   22  -0.0104304  -0.0003901   0.9867166   0.9727365


 Total job time:  14992.71s(wall), 13619.87s(cpu) 
 Tue Oct  3 16:40:45 2023

        *************************************************************
        *                                                           *
        *  Thank you very much for using Q-Chem.  Have a nice day.  *
        *                                                           *
        *************************************************************


