                  Welcome to Q-Chem
     A Quantum Leap Into The Future Of Chemistry


 Q-Chem 6.0 (devel), Q-Chem, Inc., Pleasanton, CA (2022)

 E. Epifanovsky,  A. T. B. Gilbert,  Xintian Feng,  Joonho Lee,  Yuezhi Mao,  
 N. Mardirossian,  P. Pokhilko,  A. White,  M. Wormit,  M. P. Coons,  
 A. L. Dempwolff,  Zhengting Gan,  D. Hait,  P. R. Horn,  L. D. Jacobson,  
 I. Kaliman,  J. Kussmann,  A. W. Lange,  Ka Un Lao,  D. S. Levine,  Jie Liu,  
 S. C. McKenzie,  A. F. Morrison,  K. Nanda,  F. Plasser,  D. R. Rehn,  
 M. L. Vidal,  Zhi-Qiang You,  Ying Zhu,  B. Alam,  B. Albrecht,  
 A. Aldossary,  E. Alguire,  J. H. Andersen,  V. Athavale,  D. Barton,  
 K. Begam,  A. Behn,  N. Bellonzi,  Y. A. Bernard,  E. J. Berquist,  
 H. Burton,  A. Carreras,  K. Carter-Fenk,  Romit Chakraborty,  
 Chandrima Chakravarty,  Junhan Chen,  A. D. Chien,  K. D. Closser,  
 V. Cofer-Shabica,  L. Cunha,  S. Dasgupta,  Jia Deng,  M. de Wergifosse,  
 M. Diedenhofen,  Hainam Do,  S. Ehlert,  Po-Tung Fang,  S. Fatehi,  
 Qingguo Feng,  T. Friedhoff,  B. Ganoe,  J. Gayvert,  Qinghui Ge,  
 G. Gidofalvi,  M. Goldey,  J. Gomes,  C. Gonzalez-Espinoza,  S. Gulania,  
 A. Gunina,  J. A. Gyamfi,  M. W. D. Hanson-Heine,  P. H. P. Harbach,  
 A. W. Hauser,  M. F. Herbst,  M. Hernandez Vera,  M. Hodecker,  
 Z. C. Holden,  S. Houck,  Xunkun Huang,  Kerwin Hui,  B. C. Huynh,  
 K. Ikeda,  M. Ivanov,  Hyunjun Ji,  Zuxin Jin,  Hanjie Jiang,  B. Kaduk,  
 S. Kaehler,  R. Kang,  K. Khistyaev,  Jaehoon Kim,  Yongbin Kim,  
 P. Klunzinger,  Z. Koczor-Benda,  Joong Hoon Koh,  D. Kosenkov,  
 Saikiran Kotaru,  L. Koulias,  T. Kowalczyk,  C. M. Krauter,  K. Kue,  
 A. Kunitsa,  T. Kus,  A. Landau,  K. V. Lawler,  D. Lefrancois,  S. Lehtola,  
 Rain Li,  Shaozhi Li,  Yi-Pei Li,  Jiashu Liang,  M. Liebenthal,  
 Hung-Hsuan Lin,  You-Sheng Lin,  Fenglai Liu,  Kuan-Yu Liu,  
 M. Loipersberger,  A. Luenser,  C. Malbon,  A. Manjanath,  P. Manohar,  
 E. Mansoor,  S. F. Manzer,  Shan-Ping Mao,  A. V. Marenich,  T. Markovich,  
 S. Mason,  F. Matz,  S. A. Maurer,  P. F. McLaughlin,  M. F. S. J. Menger,  
 J.-M. Mewes,  S. A. Mewes,  P. Morgante,  Mohammad Mostafanejad,  
 J. W. Mullinax,  K. J. Oosterbaan,  G. Paran,  V. Parravicini,  
 Alexander C. Paul,  Suranjan K. Paul,  F. Pavosevic,  Zheng Pei,  S. Prager,  
 E. I. Proynov,  E. Ramos,  B. Rana,  A. E. Rask,  A. Rettig,  R. M. Richard,  
 F. Rob,  E. Rossomme,  T. Scheele,  M. Scheurer,  M. Schneider,  
 P. E. Schneider,  N. Sergueev,  S. M. Sharada,  Hengyuan Shen,  
 W. Skomorowski,  D. W. Small,  C. J. Stein,  Yingli Su,  Yu-Chuan Su,  
 E. J. Sundstrom,  Zhen Tao,  J. Thirman,  Hung-Yi Tsai,  T. Tsuchimochi,  
 N. M. Tubman,  C. Utku,  S. P. Veccham,  O. Vydrov,  J. Wenzel,  
 Jonathan Wong,  J. Witte,  A. Yamada,  Chou-Hsun Yang,  Kun Yao,  
 S. Yeganeh,  S. R. Yost,  A. Zech,  F. Zeller,  Igor Ying Zhang,  
 Xing Zhang,  Yu Zhang,  D. Zuev,  A. Aspuru-Guzik,  A. T. Bell,  
 N. A. Besley,  K. B. Bravaya,  B. R. Brooks,  D. Casanova,  Jeng-Da Chai,  
 Hsing-Ta Chen,  S. Coriani,  C. J. Cramer,  A. E. DePrince, III,  
 R. A. DiStasio Jr.,  A. Dreuw,  B. D. Dunietz,  T. R. Furlani,  
 W. A. Goddard III,  S. Grimme,  S. Hammes-Schiffer,  T. Head-Gordon,  
 W. J. Hehre,  Chao-Ping Hsu,  T.-C. Jagau,  Yousung Jung,  A. Klamt,  
 Jing Kong,  D. S. Lambrecht,  Xiangyuan Li,  WanZhen Liang,  N. J. Mayhall,  
 C. W. McCurdy,  J. B. Neaton,  T. Neudecker,  C. Ochsenfeld,  
 J. A. Parkhill,  R. Peverati,  V. A. Rassolov,  Haisheng Ren,  Yihan Shao,  
 L. V. Slipchenko,  R. P. Steele,  J. E. Subotnik,  A. J. W. Thom,  
 A. Tkatchenko,  D. G. Truhlar,  T. Van Voorhis,  Fan Wang,  
 T. A. Wesolowski,  K. B. Whaley,  H. L. Woodcock III,  P. M. Zimmerman,  
 S. Faraji,  P. M. W. Gill,  M. Head-Gordon,  J. M. Herbert,  A. I. Krylov

 Contributors to earlier versions of Q-Chem not listed above: 
 R. D. Adamson,  B. Austin,  R. Baer,  J. Baker,  G. J. O. Beran,  
 K. Brandhorst,  S. T. Brown,  E. F. C. Byrd,  Arup K. Chakraborty,  
 G. K. L. Chan,  Chun-Min Chang,  Yunqing Chen,  C.-L. Cheng,  
 Siu Hung Chien,  D. M. Chipman,  D. L. Crittenden,  H. Dachsel,  
 R. J. Doerksen,  A. D. Dutoi,  R. G. Edgar,  J. Fosso-Tande,  
 L. Fusti-Molnar,  D. Ghosh,  A. Ghysels,  A. Golubeva-Zadorozhnaya,  
 J. Gonthier,  M. S. Gordon,  S. R. Gwaltney,  G. Hawkins,  J. E. Herr,  
 A. Heyden,  S. Hirata,  E. G. Hohenstein,  G. Kedziora,  F. J. Keil,  
 C. Kelley,  Jihan Kim,  R. A. King,  R. Z. Khaliullin,  P. P. Korambath,  
 W. Kurlancheek,  A. Laurent,  A. M. Lee,  M. S. Lee,  S. V. Levchenko,  
 Ching Yeh Lin,  D. Liotard,  E. Livshits,  R. C. Lochan,  I. Lotan,  
 L. A. Martinez-Martinez,  P. E. Maslen,  N. Nair,  D. P. O'Neill,  
 D. Neuhauser,  E. Neuscamman,  C. M. Oana,  R. Olivares-Amaya,  R. Olson,  
 T. M. Perrine,  B. Peters,  P. A. Pieniazek,  A. Prociuk,  Y. M. Rhee,  
 J. Ritchie,  M. A. Rohrdanz,  E. Rosta,  N. J. Russ,  H. F. Schaefer III,  
 M. W. Schmidt,  N. E. Schultz,  S. Sharma,  N. Shenvi,  C. D. Sherrill,  
 A. C. Simmonett,  A. Sodt,  T. Stein,  D. Stuck,  K. S. Thanthiriwatte,  
 V. Vanovschi,  L. Vogt,  Tao Wang,  A. Warshel,  M. A. Watson,  
 C. F. Williams,  Q. Wu,  X. Xu,  Jun Yang,  W. Zhang,  Yan Zhao

   Please cite Q-Chem as follows:
  "Software for the frontiers of quantum chemistry:
   An overview of developments in the Q-Chem 5 package"
   J. Chem. Phys. 155, 084801 (2021)
   https://doi.org/10.1063/5.0055522 (open access)

 Q-Chem 6.0.1 for Intel X86 EM64T Linux

 Parts of Q-Chem use Armadillo 9.900.5 (Nocturnal Misbehaviour).
 http://arma.sourceforge.net/

 Q-Chem begins on Fri Oct 13 09:37:07 2023  

 Host: atlas-132
0

     Scratch files written to ./qchem72610//
 Processing $rem in /scratch/abel/SOFTWARE/qchem/config/preferences:
 Processing $rem in /dipc/acebg/.qchemrc:

 Checking the input file for inconsistencies... 	...done.

--------------------------------------------------------------
User input:
--------------------------------------------------------------
$comment
 RAS-SF CALCULATION
$end

$molecule
 READ phen_deriv_1_opt.molecule
$end

$rem
!**CALCULATION TYPE***     
JOBTYPE            sp    
EXCHANGE           HF
CORRELATION        RASCI    !RASCI=Casanova; RASCI2=Zimmerman
BASIS              def2-TZVP

!***SCF REFERENCE***
SKIP_SCFMAN        FALSE
UNRESTRICTED       FALSE
!SCF_GUESS          core
!SCF_GUESS_MIX      FALSE
!SCF_GUESS_ALWAYS   FALSE
MAX_SCF_CYCLES     999
!SCF_CONVERGENCE    8
!SCF_ALGORITHM      DIIS_GDM !DIIS,DM,DIIS_DM,GDM,DIIS_GDM,GD

!SYMMETRY           TRUE   !use of symmetry for calculating integrals
!SYM_IGNORE         FALSE  !turn off using symmetry
!SYM_TOL            5      !tolerance for determining point group
!USE_ABELIAN_SUBGROUP      !define to use abelian group

!THRESH             14
SCF_FINAL_PRINT     1 !0,1,2,3

!****RAS-SF****
RAS_ROOTS          20       !number of RAS-CI roots to be computed
SET_ITER           150     !number of iterations in RASCI
RAS_ELEC           8       !number of electrons in RAS2
RAS_ELEC_ALPHA     5       !spin-α electrons in RAS2 
RAS_ELEC_BETA      3       !spin-β electrons in RAS2

RAS_ACT            8       !number of orbitals in RAS2 
RAS_ACT_ORB  [76,77,78,79,80,81,82,83]  !user-selected RAS2 orbitals
RAS_OCC            75       !number of orbitals in RAS1
!N_FROZEN_CORE      0     !Number of frozen core orbitals
!N_FROZEN_VIRTUAL   0      !Number of frozen virtual orbitals

RAS_DO_HOLE        TRUE   !presence of hole excitations in RAS-CI wave function
RAS_DO_PART        TRUE   !presence of particle excitations
!RAS_AMPL_PRINT     10     !threshold (×10 2 ) for the CI amplitudes

!RAS_GUESS_CS       0      !number of closed shell guess conﬁgurations
!RAS_SPIN_MULT      0      !spin multiplicity. Only for Ms = 0 
!RAS_SRDFT          FALSE  !short-range density functional RAS-CI
!RAS_NFRAG          0     !fragments of excitation analysis in RASCI

RAS_PRINT          2      !level of information
RAS_NATORB         TRUE   !computation of the natural orbital occupancies
!RAS_NATORB_STATE  0      !Saves NO of i RAS computed state in .fchk ﬁle
!RAS_FOD            TRUE

!****RAS-SOC****
CALC_SOC           TRUE   !calculate SOC for EOM-CC, RAS-CI, ADC, TDDFT/TDA and TDDFT
!RAS_SOC_2E        TRUE   !two-electron mean-ﬁeld contribution, default=true
RAS_SOC_SYM_DENS   TRUE   !averaging of α and β densities

!****MEMORY****
MEM_TOTAL          60000 !Default 2000 MB
MEM_STATIC         10000  !Default 64 MB

!**Molecular Properties and Analysis **                                                                                          
POP_MULLIKEN       TRUE   !Run Mulliken population analysis
LOWDIN_POPULATION  TRUE   !Run Löwdin population analysis
GUI                2       !Checkpoints generation
STATE_ANALYSIS     TRUE

!**Wave function analysis of RAS-CI states: MOLDEN**
!PLOTS = 0     ! Note: This can be omitted, default is 0
!NTO_PAIRS = 2 ! Note: This can be omitted, default is 2
!GUI 0
!MOLDEN_FORMAT      TRUE
!PRINT_ORBITALS     15

!**Wave function analysis of RAS-CI state: CUBE**
!NTO_PAIRS = 2 ! Note: This can be omitted, default is 2
!PLOTS = 1
!GUI 0

!**SR-DFT**
!RAS_SRDFT           TRUE !Perform short-range density functional RAS-CI
!RAS_SRDFT_EXC       0 !EX functional. 0=HF. 
!RAS_SRDFT_ONLY_COR  TRUE !No use of EXC functional
!RAS_SRDFT_COR       srPBE !short-range correlation functional
!ras_srdft_0         TRUE !true: no iteration (one-shot); false: iteration
!RAS_OMEGA           400 !Coulomb range-separation parameter. def=400
!RAS_SRDFT_DAMP     0.5 !dumping factor. def=0.5
$end

!$plots
!   grid_points 100 100 100
!   grid_range  (-10,10) (-10,10) (-10,10)
!$end

--------------------------------------------------------------
 ----------------------------------------------------------------
             Standard Nuclear Orientation (Angstroms)
    I     Atom           X                Y                Z
 ----------------------------------------------------------------
    1      C      -0.1864991704     0.6802105986     0.0010432953
    2      C       0.1864945476    -0.6803520576     0.0011354358
    3      C       0.8216962491     1.6709220813     0.0029659059
    4      H       0.5563618487     2.7180660368     0.0048339037
    5      C       2.1706764242     1.3536904310     0.0030285502
    6      C      -0.8217731931    -1.6710152832     0.0023754742
    7      H      -0.5565103695    -2.7181736098     0.0031292124
    8      C      -2.1707477459    -1.3537336854     0.0027072536
    9      C      -3.1735848612    -2.3621811822     0.0047581541
   10      H      -2.8637184516    -3.4000211214     0.0069580661
   11      C      -4.5114795383    -2.0309692820     0.0040244717
   12      H      -5.2586386163    -2.8138586662     0.0057627828
   13      C      -4.9092134714    -0.7017591387     0.0010300587
   14      H      -5.9612358241    -0.4446717316     0.0001844311
   15      C      -3.9549933895     0.3426568070    -0.0010518888
   16      C      -4.3396351617     1.6934273980    -0.0047835370
   17      H      -5.3940798540     1.9417828538    -0.0064211890
   18      C      -3.3820407555     2.6888884010    -0.0062050030
   19      H      -3.6856575098     3.7280588377    -0.0096784597
   20      C      -2.0317720140     2.3760839358    -0.0041848171
   21      H      -1.3204101732     3.1872378666    -0.0066128387
   22      C      -1.5924597574     1.0404112648    -0.0005392942
   23      C      -2.5687960414     0.0203155700     0.0004379239
   24      C       3.1734556471     2.3621962649     0.0053732386
   25      H       2.8635295462     3.4000171469     0.0080934591
   26      C       4.5113632586     2.0310586471     0.0042128725
   27      H       5.2584845413     2.8139820655     0.0062236205
   28      C       4.9091634307     0.7018689014     0.0005699143
   29      H       5.9612002632     0.4448416556    -0.0005156113
   30      C       3.9549990717    -0.3425936489    -0.0016291111
   31      C       4.3397373845    -1.6933301033    -0.0058510172
   32      H       5.3941975028    -1.9416112123    -0.0085105950
   33      C       3.3822118612    -2.6888542090    -0.0057273321
   34      H       3.6859020151    -3.7280031304    -0.0092208142
   35      C       2.0319259093    -2.3761446834    -0.0027822978
   36      H       1.3206496935    -3.1873684628    -0.0039827897
   37      C       1.5924842604    -1.0404993856     0.0002617548
   38      C       2.5687746200    -0.0203440633     0.0004561317
 ----------------------------------------------------------------
 Molecular Point Group                 C1    NOp =  1
 Largest Abelian Subgroup              C1    NOp =  1
 Nuclear Repulsion Energy =        1788.01314469 hartrees
 There are       80 alpha and       78 beta electrons
 Requested basis set is def2-TZVP
 There are 320 shells and 828 basis functions

 Q-Chem warning in module libmdc/get_mega.C, line 167:

 Allowed MEM_STATIC has been capped at MEM_STATIC=8191.
 Reduce the value of MEM_STATIC to silence this warning.


 Total QAlloc Memory Limit  60000 MB
 Mega-Array Size      8007 MB
 MEM_STATIC part      8191 MB

 A cutoff of  1.0D-09 yielded  31069 shell pairs
 There are    201785 function pairs (    259534 Cartesian)
 Smallest overlap matrix eigenvalue = 2.56E-06

 Q-Chem warning in module stvman/mkSTV.C, line 313:

 Overlap eigenvalue is smaller than square root of threshold
 Use THRESH >= 12 to get rid of this warning


 Scale SEOQF with 1.000000e-02/1.000000e-01/1.000000e+00

 Standard Electronic Orientation quadrupole field applied
 Nucleus-field energy     =     0.0000000414 hartrees
 Guess from superposition of atomic densities
 Warning:  Energy on first SCF cycle will be non-variational
 SAD guess density has 158.000001 electrons

 -----------------------------------------------------------------------
  General SCF calculation program by
  Eric Jon Sundstrom, Paul Horn, Yuezhi Mao, Dmitri Zuev, Alec White,
  David Stuck, Shaama M.S., Shane Yost, Joonho Lee, David Small,
  Daniel Levine, Susi Lehtola, Hugh Burton, Evgeny Epifanovsky,
  Bang C. Huynh
 -----------------------------------------------------------------------
 Hartree-Fock
 Orthonormalizing orbitals
 A restricted open-shell SCF calculation will be
 performed using GDM
 SCF converges when RMS gradient is below 1.0e-05
 ---------------------------------------
  Cycle       Energy        RMS Gradient
 ---------------------------------------
    1    -911.4406388905      1.20e+00   Descent step
    2    -912.3507742151      1.06e+00   Descent step
    3    -913.1381417339      9.14e-01   Descent step
    4    -913.8131927181      7.74e-01   Descent step
    5    -914.3844012453      6.34e-01   Descent step
    6    -914.8666974821      4.88e-01   Descent step
    7    -915.3031057375      5.91e-01   Descent step
    8    -915.7647510452      3.79e-01   Descent step
    9    -916.0818488923      3.66e-01   Descent step
   10    -916.3225173133      2.40e-01   Descent step
   11    -916.4808976564      2.30e-01   Descent step
   12    -916.5863536129      1.39e-01   Dog-leg BFGS step
   13    -916.6420857774      5.48e-02   Dog-leg BFGS step
   14    -916.6535076022      1.55e-01   Normal BFGS step
   15    -916.6876030192      1.92e-01   Dog-leg BFGS step
   16    -916.8278547421      2.64e-01   Dog-leg BFGS step
   17    -916.9240825869      1.30e-01   Dog-leg BFGS step
   18    -916.9905060473      2.07e-01   Dog-leg BFGS step
   19    -917.0753431011      1.37e-01   Dog-leg BFGS step
Fro norm of D 1.175388793827e+00
transformation scaled by 2
   20    -917.1422660087      3.17e-01   Descent step
   21    -917.2533824595      1.16e-01   Dog-leg BFGS step
   22    -917.2733642508      6.45e-02   Dog-leg BFGS step
   23    -917.2617748662      1.11e-01  Line search: overstep
   24    -917.2825226175      4.40e-02   Dog-leg BFGS step
   25    -917.2535280866      9.26e-02  Line search: overstep
   26    -917.2872176382      2.07e-02   Dog-leg BFGS step
   27    -917.2522059392      9.18e-02  Line search: overstep
   28    -917.2887793024      1.81e-02   Normal BFGS step
   29    -917.2895003528      3.07e-02   Normal BFGS step
   30    -917.2868601627      3.61e-02  Line search: overstep
   31    -917.2906256618      1.38e-02   Normal BFGS step
   32    -917.2907664508      1.96e-02   Normal BFGS step
   33    -917.2919213167      7.22e-03   Normal BFGS step
   34    -917.2914362049      1.34e-02  Line search: overstep
   35    -917.2922286516      7.09e-03   Normal BFGS step
   36    -917.2923186966      8.61e-03   Normal BFGS step
   37    -917.2924093690      4.31e-03   Normal BFGS step
   38    -917.2924215102      3.92e-03   Normal BFGS step
   39    -917.2924517476      1.82e-03   Normal BFGS step
   40    -917.2924730147      7.72e-04   Normal BFGS step
   41    -917.2924745618      5.86e-04   Normal BFGS step
   42    -917.2924742178      4.16e-04  Line search: overstep
   43    -917.2924771005      4.98e-04   Normal BFGS step
   44    -917.2924799209      2.47e-04   Normal BFGS step
   45    -917.2924805911      1.39e-04   Normal BFGS step
   46    -917.2924801420      6.67e-05  Line search: overstep
   47    -917.2924805732      1.11e-04   Normal BFGS step
   48    -917.2924810469      3.23e-05   Normal BFGS step
   49    -917.2924812689      2.30e-05   Normal BFGS step
   50    -917.2924806461      1.37e-05  Line search: overstep
   51    -917.2924812708      2.19e-05   Normal BFGS step
   52    -917.2924794423      8.38e-05  Line search: overstep
   53    -917.2924812979      1.60e-05   Normal BFGS step
   54    -917.2924811480      9.30e-06  Convergence criterion met
The disked orbital energies are calculated using alpha and beta Focks
 ---------------------------------------
 Alpha HF Exchange    Energy = -65.32610569940552
 Beta HF Exchange     Energy = -64.45047804729361
 Nuclear Attraction   Energy =   0.00000000000000
 One-Electron (alpha) Energy = -2421.80104372677897
 One-Electron (beta)  Energy = -2373.41793126142693
 Total Coulomb        Energy = 2219.68993286016439
 Final Alpha MO Eigenvalues
            1           2           3           4           5           6
    1 -11.2503070 -11.2493640 -11.2487899 -11.2485923 -11.2449019 -11.2448972
            7           8           9          10          11          12
    1 -11.2446671 -11.2446607 -11.2422674 -11.2422633 -11.2403343 -11.2403378
           13          14          15          16          17          18
    1 -11.2405533 -11.2405262 -11.2368236 -11.2368210 -11.2380382 -11.2376855
           19          20          21          22          23          24
    1 -11.2374384 -11.2371425 -11.2362680 -11.2362637 -11.2352447 -11.2352433
           25          26          27          28          29          30
    1  -1.2095545  -1.1901584  -1.1411350  -1.1312202  -1.1219633  -1.0845730
           31          32          33          34          35          36
    1  -1.0493995  -1.0268299  -1.0207080  -1.0174189  -0.9982105  -0.9419530
           37          38          39          40          41          42
    1  -0.9094675  -0.8699481  -0.8565359  -0.8553407  -0.8358148  -0.8131412
           43          44          45          46          47          48
    1  -0.7799620  -0.7248871  -0.7168637  -0.7100345  -0.7084326  -0.6941073
           49          50          51          52          53          54
    1  -0.6795336  -0.6772247  -0.6361302  -0.6298724  -0.6099249  -0.6088706
           55          56          57          58          59          60
    1  -0.5947258  -0.5929417  -0.5897234  -0.5713041  -0.5781999  -0.5594193
           61          62          63          64          65          66
    1  -0.5574892  -0.5432466  -0.5502387  -0.5429926  -0.5362485  -0.5005440
           67          68          69          70          71          72
    1  -0.4889418  -0.4943201  -0.4713605  -0.4859038  -0.4659874  -0.4727046
           73          74          75          76          77          78
    1  -0.4238671  -0.3817727  -0.3451510  -0.3470754  -0.3463231  -0.3180540
           79          80          81          82          83          84
    1  -0.2472652  -0.1926533   0.0672617   0.0922011   0.0990173   0.1078576
           85          86          87          88          89          90
    1   0.1350830   0.1483905   0.1508176   0.1556317   0.1669406   0.1688659
           91          92          93          94          95          96
    1   0.1801679   0.1821953   0.1738854   0.1899470   0.2119325   0.2150830
           97          98          99         100         101         102
    1   0.2171833   0.2196822   0.2280398   0.2255785   0.2394266   0.2426756
          103         104         105         106         107         108
    1   0.2486136   0.2594622   0.2597030   0.2655717   0.2781079   0.2798465
          109         110         111         112         113         114
    1   0.2848083   0.2985324   0.3104371   0.3173782   0.3171911   0.3217872
          115         116         117         118         119         120
    1   0.3282115   0.3388656   0.3394602   0.3394863   0.3413219   0.3453338
          121         122         123         124         125         126
    1   0.3526702   0.3521801   0.3673842   0.3696489   0.3818356   0.3859240
          127         128         129         130         131         132
    1   0.3923136   0.3987662   0.4008424   0.4042388   0.4085976   0.4120944
          133         134         135         136         137         138
    1   0.4184404   0.4232784   0.4270809   0.4343064   0.4379759   0.4368877
          139         140         141         142         143         144
    1   0.4415082   0.4541192   0.4555238   0.4622914   0.4619143   0.4668125
          145         146         147         148         149         150
    1   0.4668832   0.4708227   0.4760608   0.4774800   0.4850239   0.4887308
          151         152         153         154         155         156
    1   0.4948166   0.5020654   0.5047312   0.5099818   0.5172252   0.5226716
          157         158         159         160         161         162
    1   0.5241737   0.5284383   0.5300101   0.5345467   0.5352621   0.5413174
          163         164         165         166         167         168
    1   0.5511360   0.5536179   0.5588770   0.5600759   0.5686518   0.5716489
          169         170         171         172         173         174
    1   0.5731667   0.5797563   0.5806607   0.5818284   0.5833858   0.5846090
          175         176         177         178         179         180
    1   0.5969990   0.5977726   0.6066395   0.6147379   0.6232181   0.6255442
          181         182         183         184         185         186
    1   0.6317006   0.6423720   0.6446488   0.6482976   0.6561976   0.6625798
          187         188         189         190         191         192
    1   0.6639298   0.6713195   0.6774552   0.6787344   0.6941795   0.6969036
          193         194         195         196         197         198
    1   0.7020802   0.7067211   0.7087513   0.7107780   0.7134695   0.7217795
          199         200         201         202         203         204
    1   0.7434948   0.7468003   0.7514428   0.7555526   0.7599435   0.7788043
          205         206         207         208         209         210
    1   0.7842957   0.7885008   0.7893612   0.7968435   0.8058137   0.8160328
          211         212         213         214         215         216
    1   0.8194091   0.8234147   0.8350173   0.8358502   0.8389989   0.8434381
          217         218         219         220         221         222
    1   0.8449205   0.8465227   0.8485191   0.8645945   0.8627934   0.8646346
          223         224         225         226         227         228
    1   0.8670244   0.8802420   0.8882089   0.8904134   0.8945590   0.8995850
          229         230         231         232         233         234
    1   0.9112629   0.9157438   0.9156500   0.9219242   0.9209870   0.9285200
          235         236         237         238         239         240
    1   0.9433134   0.9499673   0.9548064   0.9619550   0.9599669   0.9629037
          241         242         243         244         245         246
    1   0.9716607   0.9830115   0.9860980   0.9866113   0.9895407   0.9972190
          247         248         249         250         251         252
    1   1.0005705   1.0036169   1.0085683   1.0127125   1.0243572   1.0293354
          253         254         255         256         257         258
    1   1.0376435   1.0402205   1.0530375   1.0517327   1.0593845   1.0734040
          259         260         261         262         263         264
    1   1.0744855   1.0830354   1.0912082   1.1017588   1.1001432   1.1035485
          265         266         267         268         269         270
    1   1.1089532   1.1237354   1.1301180   1.1405924   1.1494353   1.1493370
          271         272         273         274         275         276
    1   1.1565980   1.1642035   1.1667254   1.1767968   1.1854474   1.2023879
          277         278         279         280         281         282
    1   1.2096242   1.2177497   1.2324304   1.2381214   1.2462515   1.2545040
          283         284         285         286         287         288
    1   1.2592859   1.2651795   1.2676630   1.2898039   1.3015111   1.3223828
          289         290         291         292         293         294
    1   1.3276687   1.3453646   1.3464143   1.3487286   1.3554364   1.3719763
          295         296         297         298         299         300
    1   1.3738676   1.3877608   1.4038962   1.4135019   1.4157155   1.4165830
          301         302         303         304         305         306
    1   1.4286861   1.4296692   1.4358134   1.4412584   1.4478806   1.4544359
          307         308         309         310         311         312
    1   1.4589531   1.4683146   1.4722532   1.4752031   1.4747168   1.4952410
          313         314         315         316         317         318
    1   1.4969763   1.5044235   1.5087772   1.5104922   1.5191706   1.5403265
          319         320         321         322         323         324
    1   1.5422452   1.5513992   1.5567052   1.5689782   1.5859966   1.5855789
          325         326         327         328         329         330
    1   1.5898313   1.6000237   1.6253097   1.6336144   1.6345547   1.6414108
          331         332         333         334         335         336
    1   1.6522121   1.6613524   1.6621238   1.6733963   1.6739822   1.6772509
          337         338         339         340         341         342
    1   1.6995709   1.6988756   1.7027148   1.7071278   1.7116387   1.7264091
          343         344         345         346         347         348
    1   1.7291395   1.7386865   1.7432683   1.7543753   1.7541634   1.7672285
          349         350         351         352         353         354
    1   1.7669094   1.7760718   1.7761691   1.7884156   1.7914588   1.8015913
          355         356         357         358         359         360
    1   1.8154305   1.8177071   1.8178934   1.8353877   1.8362817   1.8407691
          361         362         363         364         365         366
    1   1.8531213   1.8670742   1.8866901   1.8989850   1.9069202   1.9118217
          367         368         369         370         371         372
    1   1.9274647   1.9303747   1.9332566   1.9482522   1.9455557   1.9534335
          373         374         375         376         377         378
    1   1.9618705   1.9700525   1.9699985   1.9729707   1.9830488   1.9841559
          379         380         381         382         383         384
    1   1.9906423   1.9916994   1.9919825   2.0016044   2.0125493   2.0179463
          385         386         387         388         389         390
    1   2.0198092   2.0240019   2.0304771   2.0401466   2.0545638   2.0579569
          391         392         393         394         395         396
    1   2.0899917   2.0911061   2.0909175   2.1032236   2.1134162   2.1317173
          397         398         399         400         401         402
    1   2.1479029   2.1670479   2.1714360   2.1788558   2.1798965   2.1875142
          403         404         405         406         407         408
    1   2.2035876   2.2045693   2.2133587   2.2158366   2.2184410   2.2318562
          409         410         411         412         413         414
    1   2.2678500   2.2762241   2.2829679   2.2876397   2.2946950   2.3135737
          415         416         417         418         419         420
    1   2.3241102   2.3313781   2.3465574   2.3487722   2.3794629   2.4030939
          421         422         423         424         425         426
    1   2.4173195   2.4329458   2.4338553   2.4388671   2.4450364   2.4467970
          427         428         429         430         431         432
    1   2.4483574   2.4675768   2.4736688   2.4761855   2.4959149   2.4974885
          433         434         435         436         437         438
    1   2.5055044   2.5190360   2.5207462   2.5263209   2.5326003   2.5506242
          439         440         441         442         443         444
    1   2.5507734   2.5507999   2.5555796   2.5651307   2.5707231   2.5784935
          445         446         447         448         449         450
    1   2.5901882   2.5976405   2.6012849   2.6160382   2.6206829   2.6364512
          451         452         453         454         455         456
    1   2.6477472   2.6517182   2.6645580   2.6792653   2.6924250   2.7007506
          457         458         459         460         461         462
    1   2.7320349   2.7439782   2.7446922   2.7464535   2.7508215   2.7767300
          463         464         465         466         467         468
    1   2.7813433   2.7943739   2.8216273   2.8231258   2.8502576   2.8583313
          469         470         471         472         473         474
    1   2.8663374   2.8838353   2.8884939   2.8957258   2.8996894   2.9088276
          475         476         477         478         479         480
    1   2.9093662   2.9132294   2.9135638   2.9332959   2.9364672   2.9378514
          481         482         483         484         485         486
    1   2.9424541   2.9448343   2.9555741   2.9620144   2.9824386   2.9867258
          487         488         489         490         491         492
    1   2.9912395   2.9986066   3.0094444   3.0126289   3.0133709   3.0166492
          493         494         495         496         497         498
    1   3.0235046   3.0347172   3.0425598   3.0426439   3.0437906   3.0571224
          499         500         501         502         503         504
    1   3.0609042   3.0601663   3.0680690   3.0708481   3.0807036   3.0812001
          505         506         507         508         509         510
    1   3.0957636   3.1053858   3.1094861   3.1104753   3.1279970   3.1316951
          511         512         513         514         515         516
    1   3.1420566   3.1436593   3.1509118   3.1573361   3.1591188   3.1648466
          517         518         519         520         521         522
    1   3.1646055   3.1738452   3.1781140   3.1896448   3.1909342   3.2019658
          523         524         525         526         527         528
    1   3.2103150   3.2118280   3.2235955   3.2286128   3.2281371   3.2382685
          529         530         531         532         533         534
    1   3.2624176   3.2640856   3.2643275   3.2668285   3.2677246   3.2749504
          535         536         537         538         539         540
    1   3.2765884   3.2858887   3.2863695   3.2926392   3.2952755   3.3027825
          541         542         543         544         545         546
    1   3.3078229   3.3136839   3.3136258   3.3148151   3.3257600   3.3314613
          547         548         549         550         551         552
    1   3.3362480   3.3365562   3.3434275   3.3450100   3.3451129   3.3491638
          553         554         555         556         557         558
    1   3.3577240   3.3585857   3.3658116   3.3768493   3.3801700   3.3808386
          559         560         561         562         563         564
    1   3.4040919   3.4198799   3.4302735   3.4447511   3.4467672   3.4472649
          565         566         567         568         569         570
    1   3.4600458   3.4631650   3.4656886   3.4668132   3.4712782   3.4765199
          571         572         573         574         575         576
    1   3.4808008   3.4833571   3.4889812   3.4924085   3.5007648   3.5041934
          577         578         579         580         581         582
    1   3.5127084   3.5329169   3.5399599   3.5447661   3.5477714   3.5607620
          583         584         585         586         587         588
    1   3.5608330   3.5668257   3.5753044   3.5824105   3.5857890   3.5972664
          589         590         591         592         593         594
    1   3.6043970   3.6044451   3.6048823   3.6109437   3.6167404   3.6241093
          595         596         597         598         599         600
    1   3.6334306   3.6378132   3.6433623   3.6495017   3.6583183   3.6581992
          601         602         603         604         605         606
    1   3.6587308   3.6705609   3.6815565   3.6888460   3.6895885   3.6905827
          607         608         609         610         611         612
    1   3.7000596   3.7020606   3.7092628   3.7159293   3.7171168   3.7368625
          613         614         615         616         617         618
    1   3.7407818   3.7411414   3.7531194   3.7618030   3.7627293   3.7752486
          619         620         621         622         623         624
    1   3.7916367   3.7925347   3.7947596   3.7972745   3.7992863   3.8141664
          625         626         627         628         629         630
    1   3.8184484   3.8350913   3.8352124   3.8407088   3.8533655   3.8533793
          631         632         633         634         635         636
    1   3.8628355   3.8701807   3.8800057   3.8864258   3.8920116   3.8954335
          637         638         639         640         641         642
    1   3.9058736   3.9088555   3.9157092   3.9161394   3.9271100   3.9295296
          643         644         645         646         647         648
    1   3.9330630   3.9425328   3.9438141   3.9521511   3.9547045   3.9693392
          649         650         651         652         653         654
    1   3.9862149   3.9967237   4.0122411   4.0177239   4.0397054   4.0426563
          655         656         657         658         659         660
    1   4.0464110   4.0515711   4.0769023   4.0768759   4.0853585   4.0906649
          661         662         663         664         665         666
    1   4.1036652   4.1286491   4.1404907   4.1472547   4.1487874   4.1829835
          667         668         669         670         671         672
    1   4.1837638   4.1889308   4.1913613   4.2131792   4.2155413   4.2264117
          673         674         675         676         677         678
    1   4.2314352   4.2340084   4.2484493   4.2508082   4.2596431   4.2903550
          679         680         681         682         683         684
    1   4.3020941   4.3075976   4.3151125   4.3312606   4.3380267   4.3575357
          685         686         687         688         689         690
    1   4.3916583   4.3939482   4.4044578   4.4084475   4.4135037   4.4221329
          691         692         693         694         695         696
    1   4.4227703   4.4334176   4.4450509   4.4527593   4.4600523   4.4772768
          697         698         699         700         701         702
    1   4.4885219   4.4951233   4.4985937   4.5062661   4.5074080   4.5091904
          703         704         705         706         707         708
    1   4.5192599   4.5319808   4.5480205   4.5710025   4.5722229   4.5902643
          709         710         711         712         713         714
    1   4.5933880   4.5952313   4.6149666   4.6172749   4.6308860   4.6313389
          715         716         717         718         719         720
    1   4.6386390   4.6730440   4.6751830   4.6850065   4.6854030   4.6928971
          721         722         723         724         725         726
    1   4.6963934   4.6969725   4.7078005   4.7154290   4.7290936   4.7448493
          727         728         729         730         731         732
    1   4.7560284   4.7817521   4.7821676   4.8008507   4.8184972   4.8235801
          733         734         735         736         737         738
    1   4.8257645   4.8340310   4.8585825   4.8650090   4.8666091   4.8809852
          739         740         741         742         743         744
    1   4.8985020   4.8984484   4.9198547   4.9501052   4.9530336   4.9585941
          745         746         747         748         749         750
    1   4.9687279   4.9756301   4.9944495   5.0020766   5.0246960   5.0441398
          751         752         753         754         755         756
    1   5.0632294   5.0949082   5.1512771   5.1671405   5.1717305   5.1748378
          757         758         759         760         761         762
    1   5.1774279   5.2148217   5.2168054   5.2942390   5.3055453   5.3096892
          763         764         765         766         767         768
    1   5.3117307   5.3355013   5.3387779   5.3452041   5.3483858   5.3736398
          769         770         771         772         773         774
    1   5.3995090   5.4072869   5.4154835   5.4582699   5.4779526   5.4911559
          775         776         777         778         779         780
    1   5.5162122   5.5312319   5.5402500   5.5566483   5.5783908   5.6300067
          781         782         783         784         785         786
    1   5.6517032   5.6523629   5.6945562   5.7227799   5.7586502   5.7695949
          787         788         789         790         791         792
    1   5.7788477   5.7907885   5.8130034   5.8195422   5.8569756   5.9339340
          793         794         795         796         797         798
    1   5.9782074   6.0306833   6.0781790   6.0900850   6.1366826   6.1686412
          799         800         801         802         803         804
    1   6.1916498   6.3023933   6.3210490   6.3919420   6.5398633   6.8458687
          805         806         807         808         809         810
    1  22.8637756  23.6512545  23.7541595  23.7616434  23.7753157  23.7889768
          811         812         813         814         815         816
    1  23.8728902  23.8800133  23.9297651  23.9335134  23.9453831  23.9703430
          817         818         819         820         821         822
    1  24.0765929  24.0872233  24.1195382  24.1912103  24.2733652  24.2846902
          823         824         825         826         827         828
    1  24.3854843  24.4361215  24.4718226  24.6107378  25.0097794  25.3281235
 Final Beta MO Eigenvalues
            1           2           3           4           5           6
    1 -11.2494463 -11.2489291 -11.2484664 -11.2478499 -11.2448413 -11.2448351
            7           8           9          10          11          12
    1 -11.2443748 -11.2443667 -11.2421031 -11.2420990 -11.2368033 -11.2367972
           13          14          15          16          17          18
    1 -11.2356988 -11.2356927 -11.2362569 -11.2362559 -11.2349206 -11.2350829
           19          20          21          22          23          24
    1 -11.2351587 -11.2353020 -11.2347015 -11.2346981 -11.2341835 -11.2341802
           25          26          27          28          29          30
    1  -1.2030957  -1.1838133  -1.1311774  -1.1218647  -1.1128703  -1.0737468
           31          32          33          34          35          36
    1  -1.0405790  -1.0160738  -1.0133268  -1.0098645  -0.9912219  -0.9237554
           37          38          39          40          41          42
    1  -0.8937582  -0.8652301  -0.8508785  -0.8495163  -0.8293811  -0.8067413
           43          44          45          46          47          48
    1  -0.7730052  -0.7202538  -0.7128817  -0.7050812  -0.7041510  -0.6879903
           49          50          51          52          53          54
    1  -0.6756277  -0.6739756  -0.6337642  -0.6252284  -0.6057444  -0.6054253
           55          56          57          58          59          60
    1  -0.5914396  -0.5900869  -0.5854577  -0.5677732  -0.5589818  -0.5562286
           61          62          63          64          65          66
    1  -0.5544694  -0.5403192  -0.5330409  -0.5365922  -0.5313714  -0.4977517
           67          68          69          70          71          72
    1  -0.4862438  -0.4609377  -0.4685720  -0.4534351  -0.4630448  -0.4394388
           73          74          75          76          77          78
    1  -0.3847031  -0.3420077  -0.3227918  -0.3194950  -0.2969915  -0.2809341
           79          80          81          82          83          84
    1  -0.0123106   0.0396351   0.0964675   0.1242936   0.1194359   0.1330071
           85          86          87          88          89          90
    1   0.1684403   0.1493724   0.1517865   0.1564405   0.1678853   0.1693818
           91          92          93          94          95          96
    1   0.1806973   0.1829901   0.2019347   0.1904177   0.2133401   0.2164678
           97          98          99         100         101         102
    1   0.2193468   0.2220028   0.2291645   0.2418532   0.2406427   0.2456753
          103         104         105         106         107         108
    1   0.2513649   0.2629284   0.2768858   0.2845394   0.2806365   0.2815645
          109         110         111         112         113         114
    1   0.2862853   0.3051741   0.3148303   0.3188443   0.3299804   0.3240151
          115         116         117         118         119         120
    1   0.3307701   0.3409996   0.3412853   0.3473761   0.3437979   0.3546830
          121         122         123         124         125         126
    1   0.3550460   0.3602602   0.3702131   0.3765699   0.3840903   0.3907605
          127         128         129         130         131         132
    1   0.4056456   0.4013260   0.4101726   0.4133039   0.4108225   0.4145875
          133         134         135         136         137         138
    1   0.4268637   0.4276498   0.4402321   0.4401423   0.4399934   0.4481152
          139         140         141         142         143         144
    1   0.4446788   0.4574474   0.4580462   0.4650196   0.4673011   0.4685469
          145         146         147         148         149         150
    1   0.4696737   0.4817323   0.4796755   0.4956273   0.4880833   0.4911561
          151         152         153         154         155         156
    1   0.4969254   0.5037550   0.5072851   0.5179527   0.5253029   0.5264351
          157         158         159         160         161         162
    1   0.5315348   0.5312130   0.5324585   0.5373503   0.5400971   0.5583056
          163         164         165         166         167         168
    1   0.5551968   0.5668798   0.5617875   0.5629729   0.5763258   0.5747932
          169         170         171         172         173         174
    1   0.5746707   0.5863536   0.5852791   0.5842302   0.5870339   0.5864829
          175         176         177         178         179         180
    1   0.6003719   0.6026372   0.6093418   0.6173235   0.6249970   0.6304466
          181         182         183         184         185         186
    1   0.6336731   0.6481456   0.6470581   0.6505238   0.6588562   0.6689741
          187         188         189         190         191         192
    1   0.6666929   0.6744447   0.6817168   0.6857585   0.6977810   0.7003716
          193         194         195         196         197         198
    1   0.7049938   0.7097561   0.7124627   0.7130166   0.7161212   0.7239730
          199         200         201         202         203         204
    1   0.7467965   0.7497245   0.7560823   0.7617090   0.7633725   0.7815090
          205         206         207         208         209         210
    1   0.7868594   0.7909135   0.7937400   0.7996522   0.8074077   0.8196678
          211         212         213         214         215         216
    1   0.8218095   0.8254408   0.8370910   0.8379723   0.8474403   0.8488920
          217         218         219         220         221         222
    1   0.8473791   0.8489374   0.8521849   0.8672442   0.8730494   0.8715881
          223         224         225         226         227         228
    1   0.8691464   0.8834630   0.8905057   0.8931893   0.8974697   0.9021068
          229         230         231         232         233         234
    1   0.9145914   0.9224277   0.9231258   0.9240911   0.9322658   0.9308190
          235         236         237         238         239         240
    1   0.9453239   0.9520836   0.9571539   0.9644149   0.9730860   0.9691346
          241         242         243         244         245         246
    1   0.9741147   0.9850022   0.9891353   0.9890595   0.9912208   1.0040129
          247         248         249         250         251         252
    1   1.0023937   1.0105974   1.0123522   1.0253105   1.0270336   1.0326939
          253         254         255         256         257         258
    1   1.0398216   1.0424638   1.0552226   1.0585287   1.0629577   1.0759110
          259         260         261         262         263         264
    1   1.0768309   1.0911177   1.0930652   1.1035684   1.1087746   1.1071724
          265         266         267         268         269         270
    1   1.1121597   1.1331445   1.1328904   1.1439351   1.1514942   1.1564123
          271         272         273         274         275         276
    1   1.1625324   1.1665749   1.1736297   1.1786747   1.1887118   1.2051654
          277         278         279         280         281         282
    1   1.2121114   1.2242271   1.2349862   1.2405352   1.2528437   1.2634649
          283         284         285         286         287         288
    1   1.2612643   1.2733317   1.2701412   1.2911232   1.3043117   1.3258972
          289         290         291         292         293         294
    1   1.3334850   1.3477990   1.3478944   1.3558254   1.3603418   1.3789380
          295         296         297         298         299         300
    1   1.3771952   1.3912940   1.4066691   1.4206065   1.4208566   1.4215907
          301         302         303         304         305         306
    1   1.4330188   1.4337471   1.4382942   1.4430087   1.4500845   1.4604382
          307         308         309         310         311         312
    1   1.4616701   1.4737075   1.4742595   1.4776128   1.4821239   1.4971683
          313         314         315         316         317         318
    1   1.5018134   1.5075231   1.5105636   1.5122053   1.5208550   1.5428101
          319         320         321         322         323         324
    1   1.5448502   1.5581644   1.5656783   1.5713842   1.5883586   1.5910750
          325         326         327         328         329         330
    1   1.5915677   1.6044921   1.6269465   1.6352761   1.6366313   1.6467189
          331         332         333         334         335         336
    1   1.6547618   1.6648193   1.6691066   1.6755331   1.6763534   1.6805165
          337         338         339         340         341         342
    1   1.7017951   1.7087038   1.7089029   1.7089299   1.7136631   1.7343430
          343         344         345         346         347         348
    1   1.7325724   1.7404353   1.7501549   1.7565232   1.7618234   1.7697186
          349         350         351         352         353         354
    1   1.7757269   1.7779267   1.7785641   1.7944274   1.7933861   1.8038457
          355         356         357         358         359         360
    1   1.8209659   1.8187880   1.8196610   1.8401341   1.8436626   1.8427548
          361         362         363         364         365         366
    1   1.8622389   1.8763938   1.8877855   1.9016581   1.9078798   1.9176590
          367         368         369         370         371         372
    1   1.9291816   1.9325001   1.9387670   1.9494390   1.9594723   1.9620308
          373         374         375         376         377         378
    1   1.9637925   1.9723100   1.9735766   1.9791885   1.9849716   1.9894433
          379         380         381         382         383         384
    1   1.9928925   1.9930868   1.9934994   2.0062317   2.0163176   2.0202339
          385         386         387         388         389         390
    1   2.0218137   2.0282961   2.0320491   2.0461838   2.0564970   2.0593421
          391         392         393         394         395         396
    1   2.0912062   2.0930811   2.0954165   2.1043666   2.1167913   2.1363651
          397         398         399         400         401         402
    1   2.1539453   2.1745125   2.1758177   2.1806218   2.1854575   2.1904292
          403         404         405         406         407         408
    1   2.2056733   2.2072094   2.2156471   2.2173863   2.2206996   2.2358552
          409         410         411         412         413         414
    1   2.2733668   2.2795500   2.2850585   2.2900926   2.2987834   2.3156942
          415         416         417         418         419         420
    1   2.3272376   2.3339374   2.3491304   2.3532498   2.3819548   2.4064952
          421         422         423         424         425         426
    1   2.4203472   2.4365284   2.4369204   2.4411139   2.4468475   2.4503063
          427         428         429         430         431         432
    1   2.4518414   2.4707592   2.4762862   2.4796318   2.4980785   2.4997742
          433         434         435         436         437         438
    1   2.5079596   2.5216227   2.5236008   2.5295869   2.5354908   2.5541414
          439         440         441         442         443         444
    1   2.5541491   2.5548355   2.5595648   2.5669420   2.5735914   2.5799207
          445         446         447         448         449         450
    1   2.5918995   2.6002672   2.6054600   2.6186269   2.6238666   2.6400479
          451         452         453         454         455         456
    1   2.6497146   2.6533076   2.6692252   2.6815690   2.6963049   2.7027870
          457         458         459         460         461         462
    1   2.7340874   2.7484870   2.7481057   2.7497986   2.7535573   2.7786415
          463         464         465         466         467         468
    1   2.7841860   2.7979692   2.8263958   2.8257029   2.8565022   2.8606663
          469         470         471         472         473         474
    1   2.8678072   2.8859493   2.8904130   2.8974097   2.9016800   2.9111608
          475         476         477         478         479         480
    1   2.9146461   2.9151357   2.9184366   2.9366168   2.9393764   2.9399111
          481         482         483         484         485         486
    1   2.9472150   2.9488498   2.9580655   2.9637882   2.9881246   2.9922949
          487         488         489         490         491         492
    1   2.9934021   3.0003873   3.0144557   3.0149300   3.0175223   3.0209289
          493         494         495         496         497         498
    1   3.0252382   3.0372401   3.0451046   3.0476354   3.0474519   3.0605196
          499         500         501         502         503         504
    1   3.0622829   3.0665111   3.0703043   3.0763559   3.0837259   3.0867225
          505         506         507         508         509         510
    1   3.0992512   3.1101330   3.1118560   3.1129719   3.1316071   3.1343897
          511         512         513         514         515         516
    1   3.1453249   3.1458616   3.1548361   3.1623013   3.1616735   3.1669758
          517         518         519         520         521         522
    1   3.1695292   3.1777266   3.1809358   3.1916116   3.1940600   3.2050513
          523         524         525         526         527         528
    1   3.2126852   3.2141889   3.2290898   3.2304685   3.2321104   3.2396279
          529         530         531         532         533         534
    1   3.2644250   3.2672823   3.2685232   3.2685358   3.2704518   3.2791806
          535         536         537         538         539         540
    1   3.2793906   3.2886424   3.2896154   3.2954421   3.2987880   3.3056520
          541         542         543         544         545         546
    1   3.3125322   3.3153823   3.3169131   3.3168454   3.3303050   3.3351845
          547         548         549         550         551         552
    1   3.3382583   3.3403525   3.3460517   3.3486433   3.3489632   3.3511914
          553         554         555         556         557         558
    1   3.3608176   3.3637299   3.3703844   3.3818570   3.3824295   3.3839131
          559         560         561         562         563         564
    1   3.4060205   3.4237214   3.4345012   3.4476982   3.4488939   3.4489349
          565         566         567         568         569         570
    1   3.4631020   3.4662027   3.4683857   3.4694132   3.4744194   3.4795159
          571         572         573         574         575         576
    1   3.4844274   3.4865244   3.4918249   3.4956508   3.5045659   3.5080958
          577         578         579         580         581         582
    1   3.5178078   3.5356170   3.5419077   3.5491222   3.5502751   3.5633127
          583         584         585         586         587         588
    1   3.5638100   3.5735589   3.5773132   3.5841198   3.5918523   3.6016060
          589         590         591         592         593         594
    1   3.6067626   3.6121552   3.6113305   3.6162606   3.6187604   3.6261782
          595         596         597         598         599         600
    1   3.6351027   3.6441001   3.6455240   3.6510759   3.6599825   3.6620414
          601         602         603         604         605         606
    1   3.6651572   3.6722545   3.6850544   3.6903613   3.6949441   3.6935662
          607         608         609         610         611         612
    1   3.7051231   3.7034913   3.7110228   3.7179254   3.7201703   3.7407940
          613         614         615         616         617         618
    1   3.7423468   3.7437066   3.7572950   3.7633489   3.7645950   3.7794077
          619         620         621         622         623         624
    1   3.7949418   3.7937361   3.7970449   3.7990795   3.8006810   3.8156945
          625         626         627         628         629         630
    1   3.8198446   3.8369204   3.8383634   3.8420471   3.8574209   3.8577071
          631         632         633         634         635         636
    1   3.8642655   3.8720231   3.8813964   3.8894862   3.8934564   3.8980177
          637         638         639         640         641         642
    1   3.9077242   3.9139033   3.9178769   3.9203133   3.9300470   3.9336115
          643         644         645         646         647         648
    1   3.9346906   3.9461226   3.9454607   3.9538901   3.9561494   3.9718607
          649         650         651         652         653         654
    1   3.9882817   3.9994424   4.0139237   4.0194296   4.0417076   4.0456391
          655         656         657         658         659         660
    1   4.0484723   4.0537136   4.0788070   4.0797860   4.0889521   4.0920936
          661         662         663         664         665         666
    1   4.1050628   4.1298972   4.1426004   4.1487454   4.1506746   4.1863581
          667         668         669         670         671         672
    1   4.1856265   4.1922037   4.1928190   4.2150924   4.2175931   4.2279983
          673         674         675         676         677         678
    1   4.2349363   4.2370771   4.2519438   4.2526102   4.2608661   4.2919762
          679         680         681         682         683         684
    1   4.3040168   4.3105107   4.3164850   4.3326680   4.3393081   4.3599103
          685         686         687         688         689         690
    1   4.3939127   4.3954906   4.4062745   4.4109188   4.4171152   4.4235284
          691         692         693         694         695         696
    1   4.4253896   4.4345656   4.4467043   4.4551639   4.4632540   4.4799600
          697         698         699         700         701         702
    1   4.4901119   4.4985745   4.5005577   4.5089087   4.5092937   4.5106714
          703         704         705         706         707         708
    1   4.5220838   4.5343603   4.5506815   4.5726384   4.5734639   4.5938800
          709         710         711         712         713         714
    1   4.5969416   4.5969699   4.6181376   4.6186082   4.6319120   4.6324434
          715         716         717         718         719         720
    1   4.6421101   4.6742712   4.6767052   4.6868189   4.6887101   4.6965433
          721         722         723         724         725         726
    1   4.6988643   4.6987794   4.7090387   4.7185088   4.7302468   4.7462002
          727         728         729         730         731         732
    1   4.7593454   4.7831897   4.7833584   4.8019748   4.8196010   4.8250950
          733         734         735         736         737         738
    1   4.8287383   4.8370948   4.8599100   4.8663711   4.8699255   4.8842910
          739         740         741         742         743         744
    1   4.9003142   4.9011627   4.9213687   4.9515720   4.9557793   4.9601245
          745         746         747         748         749         750
    1   4.9706595   4.9771201   4.9972584   5.0035402   5.0260441   5.0457175
          751         752         753         754         755         756
    1   5.0646478   5.0959044   5.1529319   5.1685465   5.1732550   5.1772489
          757         758         759         760         761         762
    1   5.1796172   5.2163414   5.2180343   5.2956112   5.3071587   5.3110982
          763         764         765         766         767         768
    1   5.3134365   5.3377820   5.3402022   5.3464291   5.3505258   5.3749153
          769         770         771         772         773         774
    1   5.4012496   5.4086908   5.4166111   5.4593937   5.4793816   5.4922638
          775         776         777         778         779         780
    1   5.5174192   5.5324563   5.5414555   5.5578080   5.5796639   5.6311579
          781         782         783         784         785         786
    1   5.6531417   5.6535866   5.6957260   5.7238216   5.7595933   5.7710735
          787         788         789         790         791         792
    1   5.7801742   5.7919367   5.8144754   5.8208235   5.8580712   5.9349316
          793         794         795         796         797         798
    1   5.9791283   6.0316423   6.0791230   6.0909488   6.1375848   6.1694551
          799         800         801         802         803         804
    1   6.1925010   6.3034352   6.3219752   6.3928542   6.5405276   6.8464968
          805         806         807         808         809         810
    1  22.8646682  23.6520788  23.7549912  23.7625717  23.7770141  23.7909894
          811         812         813         814         815         816
    1  23.8743595  23.8801745  23.9312452  23.9341302  23.9470755  23.9718759
          817         818         819         820         821         822
    1  24.0780503  24.0887498  24.1208537  24.1916427  24.2740794  24.2854055
          823         824         825         826         827         828
    1  24.3858529  24.4363784  24.4723360  24.6112143  25.0100248  25.3284860
 SCF time:   CPU 21115.99s  wall 21127.00s 
<S^2> =          2.000000000
 SCF   energy in the final basis set =     -917.2924811480
 Total energy in the final basis set =     -917.2924811480
  
     ##========================================##
     ||                                        ||
     ||              R A S M A N 2             ||
     ||________________________________________||
     ||                                        ||
     ||  Author:                               ||
     ||                                        ||
     ||        David Casanova (2010)           ||
     ||                                        ||
     ##========================================##
  
Setting single-point xc-functionals (if necessary)

  ***************************************************
  *  RAS-CI Dimensions:                             *
  *                                                 *
  *  Active Elec.:   8 ( 5, 3)   Active Orb.:   8   *
  *  Doubly Occ. :  75           Doubly Vir.: 745   *
  *  Frozen Occ. :   0           Frozen Vir.:   0   *
  *                                                 *
  *  Total CI configurations:   4503296             * 
  *    Active configurations:      3136             * 
  *      Hole configurations:    411600             * 
  *  Particle configurations:   4088560             * 
  *                                                 *
  *   Requested states:       20                    *
  *  Spin multiplicity: Any multiplicity            *
  *                                                 *
  ***************************************************
-----------------------------------------
    Memory requirements of RASCI

 Each CI-vector requires     34.36 MiB 
 Max. subspace vectors           3000      

 Reduced Lists                0.00 MiB 
 Excitation Lists             0.00 MiB 
 Excitation Lists Sign        0.00 MiB 
 CI-space (Max)          103828.10 MiB 
 Integrals                  641.47 MiB 
 Memory required (Max)   103828.11 MiB 
 Memory available          7811.55 MiB 

 Q-Chem warning in module rasman2/ras_mem_check.C, line 162:

 Static memory may be insufficient to store the subspace vectors


    Disk requirements of RASCI

 Fock matrix                 10.46 MiB 
 2-electron integrals      1156.05 MiB 
 CI-space                206144.53 MiB 
 Disk required           207311.05 MiB 
-----------------------------------------
  
RAS1 HF-like energy:           -910.7979952756
 Computing integrals
 Computing J and K matrices
 Computing addressing
 Making amplitude guesses
 
Direct CI diagonalization
 ---------------------------------------------------
 Iter    Rts Conv    Rts Left    Ttl Dev     Max Dev
 ---------------------------------------------------
   1         0          20      0.001746    0.000111
   2         0          20      0.001012    0.000066
   3         0          20      0.000930    0.000062
   4         0          20      0.000815    0.000059
   5         0          20      0.000793    0.000115
   6         0          20      0.000968    0.000087
   7         0          20      0.000818    0.000067
   8         0          20      0.000816    0.000061
   9         0          20      0.000910    0.000073
  10         0          20      0.000959    0.000085
  11         1          19      0.000636    0.000056
  12         1          19      0.000552    0.000063
  13         1          19      0.000471    0.000058
  14         1          19      0.000359    0.000043
  15         1          19      0.000323    0.000038
  16         1          19      0.000316    0.000039
  17         1          19      0.000247    0.000032
  18         1          19      0.000182    0.000022
  19         1          19      0.000152    0.000021
  20         2          18      0.000135    0.000020
  21         3          17      0.000111    0.000016
  22         3          17      0.000097    0.000016
  23         6          14      0.000080    0.000015
  24         9          11      0.000060    0.000012
  25        10          10      0.000053    0.000011
  26        10          10      0.000052    0.000012
  27        11           9      0.000043    0.000010
  28        13           7      0.000037    0.000009
  29        13           7      0.000032    0.000008
  30        15           5      0.000026    0.000006
  31        15           5      0.000023    0.000005
  32        15           5      0.000022    0.000005
  33        15           5      0.000020    0.000004
  34        16           4      0.000016    0.000003
  35        16           4      0.000014    0.000003
  36        18           2      0.000013    0.000003
  37        18           2      0.000011    0.000002
  38        18           2      0.000011    0.000002
  39        19           1      0.000010    0.000002
  40        19           1      0.000009    0.000001
  41        20           0      0.000009    0.000001    Roots Converged
 ---------------------------------------------------
   
**************************************************
 RAS-CI total energy for state   1:   -917.353824313248
  Excitation energy (eV) =  0.000000000000
  State symmetry: A1  (C1       )
  <S^2>      :  2.0000
  Dipole Moment:    0.0000 X    -0.0001 Y     0.0015 Z
 NATURAL OCCUPATION NUMBERS (higher than 1.0E-05)
            1           2           3           4           5           6
    1   2.0000000   2.0000000   2.0000000   2.0000000   2.0000000   2.0000000
            7           8           9          10          11          12
    1   2.0000000   2.0000000   2.0000000   2.0000000   2.0000000   2.0000000
           13          14          15          16          17          18
    1   2.0000000   2.0000000   2.0000000   2.0000000   2.0000000   2.0000000
           19          20          21          22          23          24
    1   2.0000000   2.0000000   2.0000000   2.0000000   2.0000000   2.0000000
           25          26          27          28          29          30
    1   2.0000000   2.0000000   2.0000000   2.0000000   2.0000000   2.0000000
           31          32          33          34          35          36
    1   2.0000000   2.0000000   2.0000000   2.0000000   2.0000000   2.0000000
           37          38          39          40          41          42
    1   2.0000000   2.0000000   2.0000000   2.0000000   2.0000000   2.0000000
           43          44          45          46          47          48
    1   2.0000000   2.0000000   2.0000000   2.0000000   2.0000000   2.0000000
           49          50          51          52          53          54
    1   2.0000000   2.0000000   2.0000000   2.0000000   2.0000000   2.0000000
           55          56          57          58          59          60
    1   2.0000000   2.0000000   2.0000000   2.0000000   2.0000000   2.0000000
           61          62          63          64          65          66
    1   2.0000000   2.0000000   2.0000000   2.0000000   2.0000000   2.0000000
           67          68          69          70          71          72
    1   2.0000000   1.9995257   1.9994028   1.9986420   1.9985045   1.9975335
           73          74          75          76          77          78
    1   1.9955495   1.9926862   1.9889088   1.9726562   1.9559702   1.9515474
           79          80          81          82          83          84
    1   1.0134666   0.9889645   0.0428546   0.0402894   0.0267186   0.0109731
           85          86          87          88          89          90
    1   0.0101041   0.0048731   0.0025712   0.0014738   0.0013926   0.0007031
           91          92          93          94          95          96
    1   0.0006026   0.0004810   0.0004111   0.0004038   0.0003552   0.0002790
           97          98          99         100         101         102
    1   0.0002427   0.0002168   0.0001784   0.0001553   0.0001480   0.0001452
          103         104         105         106         107         108
    1   0.0001258   0.0001054   0.0000957   0.0000783   0.0000690   0.0000618
          109         110         111         112         113         114
    1   0.0000481   0.0000459   0.0000457   0.0000414   0.0000384   0.0000345
          115         116         117         118         119         120
    1   0.0000323   0.0000280   0.0000271   0.0000231   0.0000229   0.0000205
          121         122         123         124
    1   0.0000183   0.0000145   0.0000127   0.0000103
Natural Orbitals stored in FCHK

  Amplitudes : 
  
 | HOLE  | ALPHA    | BETA     | PART  |    AMPLITUDE 
--------------------------------------------------
 |       | 11111000 | 11100000 |       |     9.4085358996466E-01
--------------------------------------------------
*** Contributions RASCI wfn    Active:  92.72
                                 Hole:   3.04
                                 Part:   4.23

      Mulliken population analysis 
 ---------------------------------------------------
   Atom    Charge (a.u.)   Spin (a.u.)  
 ---------------------------------------------------
   1  C    0.233995        0.067625 
   2  C    0.233084        0.067615 
   3  C   -0.458693        0.224956 
   4  H    0.105489        0.001416 
   5  C    0.190527       -0.000951 
   6  C   -0.462160        0.225020 
   7  H    0.105306        0.001415 
   8  C    0.192500       -0.000950 
   9  C   -0.274926        0.228199 
  10  H    0.126260        0.001397 
  11  C   -0.104314       -0.015839 
  12  H    0.121970       -0.000181 
  13  C   -0.211069        0.273556 
  14  H    0.125506        0.001686 
  15  C    0.109789       -0.017559 
  16  C   -0.211555        0.118937 
  17  H    0.122998        0.000730 
  18  C   -0.108948       -0.020049 
  19  H    0.121616       -0.000174 
  20  C   -0.223065        0.131717 
  21  H    0.110700        0.000900 
  22  C    0.141963       -0.008554 
  23  C    0.082523        0.012133 
  24  C   -0.274547        0.228207 
  25  H    0.126350        0.001397 
  26  C   -0.104733       -0.015825 
  27  H    0.121951       -0.000181 
  28  C   -0.210632        0.273623 
  29  H    0.125575        0.001686 
  30  C    0.110309       -0.017546 
  31  C   -0.212358        0.118946 
  32  H    0.122905        0.000731 
  33  C   -0.107025       -0.020031 
  34  H    0.121546       -0.000174 
  35  C   -0.224598        0.131662 
  36  H    0.110579        0.000899 
  37  C    0.141878       -0.008554 
  38  C    0.083303        0.012115 
 ---------------------------------------------------
   Sum:    0.000000        2.000000 
 ---------------------------------------------------
 
  
 NATURAL OCCUPATION NUMBERS (higher than 1.0E-05)
            1           2           3           4           5           6
    1   2.0000000   2.0000000   2.0000000   2.0000000   2.0000000   2.0000000
            7           8           9          10          11          12
    1   2.0000000   2.0000000   2.0000000   2.0000000   2.0000000   2.0000000
           13          14          15          16          17          18
    1   2.0000000   2.0000000   2.0000000   2.0000000   2.0000000   2.0000000
           19          20          21          22          23          24
    1   2.0000000   2.0000000   2.0000000   2.0000000   2.0000000   2.0000000
           25          26          27          28          29          30
    1   2.0000000   2.0000000   2.0000000   2.0000000   2.0000000   2.0000000
           31          32          33          34          35          36
    1   2.0000000   2.0000000   2.0000000   2.0000000   2.0000000   2.0000000
           37          38          39          40          41          42
    1   2.0000000   2.0000000   2.0000000   2.0000000   2.0000000   2.0000000
           43          44          45          46          47          48
    1   2.0000000   2.0000000   2.0000000   2.0000000   2.0000000   2.0000000
           49          50          51          52          53          54
    1   2.0000000   2.0000000   2.0000000   2.0000000   2.0000000   2.0000000
           55          56          57          58          59          60
    1   2.0000000   2.0000000   2.0000000   2.0000000   2.0000000   2.0000000
           61          62          63          64          65          66
    1   2.0000000   2.0000000   2.0000000   2.0000000   2.0000000   2.0000000
           67          68          69          70          71          72
    1   2.0000000   1.9995257   1.9994028   1.9986420   1.9985045   1.9975335
           73          74          75          76          77          78
    1   1.9955495   1.9926862   1.9889088   1.9726562   1.9559702   1.9515474
           79          80          81          82          83          84
    1   1.0134666   0.9889645   0.0428546   0.0402894   0.0267186   0.0109731
           85          86          87          88          89          90
    1   0.0101041   0.0048731   0.0025712   0.0014738   0.0013926   0.0007031
           91          92          93          94          95          96
    1   0.0006026   0.0004810   0.0004111   0.0004038   0.0003552   0.0002790
           97          98          99         100         101         102
    1   0.0002427   0.0002168   0.0001784   0.0001553   0.0001480   0.0001452
          103         104         105         106         107         108
    1   0.0001258   0.0001054   0.0000957   0.0000783   0.0000690   0.0000618
          109         110         111         112         113         114
    1   0.0000481   0.0000459   0.0000457   0.0000414   0.0000384   0.0000345
          115         116         117         118         119         120
    1   0.0000323   0.0000280   0.0000271   0.0000231   0.0000229   0.0000205
          121         122         123         124
    1   0.0000183   0.0000145   0.0000127   0.0000103
  
*** Unpaired Electrons
 Yamaguchi Nd:         2.58
 Head-Gordon Nu:       2.27
 Head-Gordon Nu_nl:    2.04
  
**************************************************
 RAS-CI total energy for state   2:   -917.274951784473
  Excitation energy (eV) =  2.146230704774
  State symmetry: A1  (C1       )
  <S^2>      :  2.0000
  Dipole Moment:   -0.0000 X     0.0000 Y     0.0013 Z
  Trans. Moment:   -0.1456 X     0.2007 Y     0.0000 Z
  Strength   :  0.003232
  Natural transition orbitals ( 1 -> 2 ):
   e-/hole pair  1 alpha:  ampl =  0.712337 ( 50.7%)   [8 : 9]
   e-/hole pair  2 alpha:  ampl =  0.117823 (  1.4%)   [7 : 10]
   e-/hole pair  1 beta :  ampl =  0.560472 ( 31.4%)   [8 : 9]
   e-/hole pair  2 beta :  ampl =  0.112520 (  1.3%)   [7 : 10]
   Sum of square amplitudes: 0.86

 NATURAL OCCUPATION NUMBERS (higher than 1.0E-05)
            1           2           3           4           5           6
    1   2.0000000   2.0000000   2.0000000   2.0000000   2.0000000   2.0000000
            7           8           9          10          11          12
    1   2.0000000   2.0000000   2.0000000   2.0000000   2.0000000   2.0000000
           13          14          15          16          17          18
    1   2.0000000   2.0000000   2.0000000   2.0000000   2.0000000   2.0000000
           19          20          21          22          23          24
    1   2.0000000   2.0000000   2.0000000   2.0000000   2.0000000   2.0000000
           25          26          27          28          29          30
    1   2.0000000   2.0000000   2.0000000   2.0000000   2.0000000   2.0000000
           31          32          33          34          35          36
    1   2.0000000   2.0000000   2.0000000   2.0000000   2.0000000   2.0000000
           37          38          39          40          41          42
    1   2.0000000   2.0000000   2.0000000   2.0000000   2.0000000   2.0000000
           43          44          45          46          47          48
    1   2.0000000   2.0000000   2.0000000   2.0000000   2.0000000   2.0000000
           49          50          51          52          53          54
    1   2.0000000   2.0000000   2.0000000   2.0000000   2.0000000   2.0000000
           55          56          57          58          59          60
    1   2.0000000   2.0000000   2.0000000   2.0000000   2.0000000   2.0000000
           61          62          63          64          65          66
    1   2.0000000   2.0000000   2.0000000   2.0000000   2.0000000   2.0000000
           67          68          69          70          71          72
    1   2.0000000   1.9994434   1.9992039   1.9985817   1.9981581   1.9965071
           73          74          75          76          77          78
    1   1.9924477   1.9914863   1.9827487   1.9672920   1.9464994   1.6014697
           79          80          81          82          83          84
    1   1.3280213   0.6085263   0.4682891   0.0408162   0.0254689   0.0232427
           85          86          87          88          89          90
    1   0.0109864   0.0082632   0.0036580   0.0019497   0.0012835   0.0007677
           91          92          93          94          95          96
    1   0.0006323   0.0005016   0.0004125   0.0003752   0.0003379   0.0002805
           97          98          99         100         101         102
    1   0.0002428   0.0002261   0.0002099   0.0001739   0.0001597   0.0001272
          103         104         105         106         107         108
    1   0.0001176   0.0001023   0.0000924   0.0000795   0.0000769   0.0000726
          109         110         111         112         113         114
    1   0.0000620   0.0000542   0.0000493   0.0000474   0.0000450   0.0000444
          115         116         117         118         119         120
    1   0.0000413   0.0000326   0.0000312   0.0000279   0.0000250   0.0000249
          121         122         123         124         125         126
    1   0.0000219   0.0000184   0.0000167   0.0000150   0.0000150   0.0000117
          127
    1   0.0000107
Natural Orbitals stored in FCHK

  Amplitudes : 
  
 | HOLE  | ALPHA    | BETA     | PART  |    AMPLITUDE 
--------------------------------------------------
 |       | 11111000 | 11010000 |       |     5.3267164946518E-01
 |       | 11111000 | 11000010 |       |    -1.0154702550549E-01
 |       | 11110100 | 11100000 |       |    -6.8116548889549E-01
 |       | 10111100 | 11100000 |       |    -1.6247163047922E-01
 |  74   | 11111000 | 11101000 |       |     1.0104856680437E-01
 |       | 11101000 | 11100000 |  85   |    -1.1171631596162E-01
--------------------------------------------------
*** Contributions RASCI wfn    Active:  85.38
                                 Hole:   6.40
                                 Part:   8.21

      Mulliken population analysis 
 ---------------------------------------------------
   Atom    Charge (a.u.)   Spin (a.u.)  
 ---------------------------------------------------
   1  C    0.235266        0.062686 
   2  C    0.234350        0.062708 
   3  C   -0.449993        0.198093 
   4  H    0.105457        0.001281 
   5  C    0.189287        0.003523 
   6  C   -0.453447        0.198106 
   7  H    0.105274        0.001279 
   8  C    0.191255        0.003544 
   9  C   -0.271571        0.106357 
  10  H    0.126347        0.000638 
  11  C   -0.103983        0.012973 
  12  H    0.121905        0.000073 
  13  C   -0.198695        0.126046 
  14  H    0.125667        0.000758 
  15  C    0.105512        0.012247 
  16  C   -0.214530        0.178087 
  17  H    0.122753        0.001219 
  18  C   -0.112375        0.002182 
  19  H    0.121584       -0.000030 
  20  C   -0.217951        0.128924 
  21  H    0.110623        0.000923 
  22  C    0.125412        0.117841 
  23  C    0.080046        0.046143 
  24  C   -0.271199        0.106395 
  25  H    0.126437        0.000638 
  26  C   -0.104398        0.012958 
  27  H    0.121886        0.000073 
  28  C   -0.198258        0.126113 
  29  H    0.125737        0.000758 
  30  C    0.106028        0.012242 
  31  C   -0.215331        0.178089 
[...]
 -----------------------------------------------------------------
 Mayer SCF Bond Order, atomic valence on the diagonal:

            1           2           3           4           5           6
    1   3.4991045   1.4107604   1.1645139  -0.0409669  -0.0525991  -0.0288814
    2   1.4107604   3.4947038  -0.0293627   0.0063929   0.0445530   1.1613676
    3   1.1645139  -0.0293627   3.7913603   0.9947116   1.4684709   0.0313909
    4  -0.0409669   0.0063929   0.9947116   0.9774196  -0.0009763   0.0006724
    5  -0.0525991   0.0445530   1.4684709  -0.0009763   3.7734193  -0.0080054
    6  -0.0288814   1.1613676   0.0313909   0.0006724  -0.0080054   3.7880214
    7   0.0063618  -0.0413047   0.0007050   0.0003387  -0.0002002   0.9952063
    8   0.0441484  -0.0532375  -0.0076024  -0.0001863   0.0298034   1.4678079
    9   0.0199068   0.0297680   0.0000004   0.0001164   0.0031462   0.0472065
   10   0.0016986   0.0036523  -0.0003481   0.0000260   0.0001670   0.0244004
   11  -0.0014427  -0.0098429   0.0028099  -0.0000445   0.0019707   0.0307656
   12  -0.0000435   0.0000614  -0.0001031  -0.0000122   0.0000803   0.0004881
   13   0.0251032   0.0112492  -0.0004144   0.0000933   0.0033985   0.0426691
   14   0.0004816   0.0002944   0.0000640   0.0000009  -0.0000591   0.0000954
   15   0.0130236  -0.0112890   0.0030929   0.0001478   0.0028777   0.0235702
   16  -0.0017184   0.0095831  -0.0010885  -0.0008474   0.0012051   0.0207519
   17   0.0000383   0.0000782  -0.0000678  -0.0000086  -0.0000866   0.0001576
   18   0.0127623  -0.0001030   0.0072676   0.0001090  -0.0003120   0.0127415
   19   0.0005572   0.0002018  -0.0000956   0.0000147   0.0001661   0.0000603
   20  -0.1077879   0.0149500   0.0091583   0.0019834   0.0079403   0.0088058
   21  -0.0232761  -0.0022699   0.0169264   0.0055462   0.0044497   0.0001121
   22   1.1187052  -0.0632653  -0.0602298   0.0006934   0.0278002   0.0062744
   23  -0.0365853  -0.0076244   0.0285654   0.0004869  -0.0058486  -0.0546041
   24   0.0294768   0.0197342   0.0470639  -0.0015480   1.1724029   0.0000536
   25   0.0035792   0.0016897   0.0243202   0.0014521  -0.0526481  -0.0003546
   26  -0.0095533  -0.0013715   0.0305372  -0.0002071  -0.0043552   0.0028714
   27   0.0000697  -0.0000478   0.0004840   0.0000370   0.0061060  -0.0000964
   28   0.0109498   0.0248591   0.0430178   0.0001228   0.0209052  -0.0004668
   29   0.0002723   0.0004806   0.0001248   0.0000027   0.0004999   0.0000654
   30  -0.0114905   0.0135359   0.0232960  -0.0000017  -0.0689786   0.0027939
   31   0.0097253  -0.0020216   0.0205290  -0.0001772   0.0157992  -0.0009378
   32   0.0000991   0.0000222   0.0001596   0.0000358   0.0006759  -0.0000408
   33  -0.0000903   0.0128828   0.0127173   0.0007538  -0.0044440   0.0071365
   34   0.0002021   0.0005614   0.0000632   0.0000116  -0.0001205  -0.0001002
   35   0.0146703  -0.1075144   0.0088534  -0.0012631   0.0079105   0.0085829
   36  -0.0022871  -0.0234694   0.0001250  -0.0001179   0.0008420   0.0169132
   37  -0.0633841   1.1176405   0.0067084   0.0011690  -0.0674194  -0.0605321
   38  -0.0078947  -0.0368905  -0.0550044   0.0088588   1.2183018   0.0290804
            7           8           9          10          11          12
    1   0.0063618   0.0441484   0.0199068   0.0016986  -0.0014427  -0.0000435
    2  -0.0413047  -0.0532375   0.0297680   0.0036523  -0.0098429   0.0000614
    3   0.0007050  -0.0076024   0.0000004  -0.0003481   0.0028099  -0.0001031
    4   0.0003387  -0.0001863   0.0001164   0.0000260  -0.0000445  -0.0000122
    5  -0.0002002   0.0298034   0.0031462   0.0001670   0.0019707   0.0000803
    6   0.9952063   1.4678079   0.0472065   0.0244004   0.0307656   0.0004881
    7   0.9776005  -0.0007558  -0.0014778   0.0014541  -0.0002466   0.0000352
    8  -0.0007558   3.7703254   1.1720428  -0.0530228  -0.0041251   0.0061219
    9  -0.0014778   1.1720428   3.8520292   0.9988190   1.4457255  -0.0150761
   10   0.0014541  -0.0530228   0.9988190   0.9745839  -0.0116955  -0.0006592
   11  -0.0002466  -0.0041251   1.4457255  -0.0116955   3.8760273   0.9907553
   12   0.0000352   0.0061219  -0.0150761  -0.0006592   0.9907553   0.9733168
   13   0.0001443   0.0207466   0.1080791   0.0068524   1.3798621  -0.0157719
   14   0.0000047   0.0005226   0.0062929   0.0006176  -0.0113895  -0.0004149
   15  -0.0000449  -0.0698847   0.0168874   0.0001363   0.0243728   0.0057767
   16  -0.0001967   0.0159065   0.0223677   0.0000031   0.0199855   0.0004669
   17   0.0000362   0.0006817  -0.0001289   0.0000201   0.0003993   0.0000133
   18   0.0007793  -0.0046565   0.0058804   0.0001078  -0.0008190   0.0001634
   19   0.0000128  -0.0001311   0.0000286   0.0000085   0.0001367   0.0000469
   20  -0.0013090   0.0080776   0.0235105   0.0005818   0.0086387   0.0000659
   21  -0.0001226   0.0008411   0.0001201   0.0000090   0.0002643   0.0000078
   22   0.0012164  -0.0679383   0.0083718  -0.0007349  -0.0043544   0.0001708
   23   0.0088985   1.2187019  -0.0397995   0.0031152   0.0087442   0.0010513
   24   0.0001097   0.0030190   0.0011513  -0.0000852   0.0006288   0.0000261
   25   0.0000267   0.0001645  -0.0000752   0.0000009   0.0000527   0.0000005
   26  -0.0000405   0.0019728   0.0006153   0.0000588   0.0002350  -0.0000051
   27  -0.0000126   0.0000760   0.0000256   0.0000005  -0.0000050  -0.0000001
   28   0.0000937   0.0034647   0.0012549  -0.0000602   0.0008044   0.0000108
   29   0.0000000  -0.0000626   0.0000278  -0.0000005   0.0000126   0.0000008
   30   0.0001396   0.0035959  -0.0001880   0.0002004   0.0006993   0.0000522
   31  -0.0008432   0.0010699   0.0008050  -0.0000425  -0.0006042  -0.0000417
   32  -0.0000120  -0.0001393  -0.0000322  -0.0000023   0.0000278   0.0000001
   33   0.0000866  -0.0001096  -0.0001148   0.0000688   0.0007002   0.0000309
   34   0.0000153   0.0001667  -0.0001696   0.0000058   0.0001364   0.0000008
   35   0.0018330   0.0076509   0.0003371   0.0005076   0.0002695   0.0000007
   36   0.0055012   0.0043817  -0.0002227   0.0000366   0.0000256   0.0000017
   37   0.0006180   0.0271502  -0.0048188  -0.0009585   0.0004947   0.0000396
   38   0.0005500  -0.0059375   0.0016456  -0.0003551   0.0020793  -0.0000248
           13          14          15          16          17          18
    1   0.0251032   0.0004816   0.0130236  -0.0017184   0.0000383   0.0127623
    2   0.0112492   0.0002944  -0.0112890   0.0095831   0.0000782  -0.0001030
    3  -0.0004144   0.0000640   0.0030929  -0.0010885  -0.0000678   0.0072676
    4   0.0000933   0.0000009   0.0001478  -0.0008474  -0.0000086   0.0001090
    5   0.0033985  -0.0000591   0.0028777   0.0012051  -0.0000866  -0.0003120
    6   0.0426691   0.0000954   0.0235702   0.0207519   0.0001576   0.0127415
    7   0.0001443   0.0000047  -0.0000449  -0.0001967   0.0000362   0.0007793
    8   0.0207466   0.0005226  -0.0698847   0.0159065   0.0006817  -0.0046565
    9   0.1080791   0.0062929   0.0168874   0.0223677  -0.0001289   0.0058804
   10   0.0068524   0.0006176   0.0001363   0.0000031   0.0000201   0.0001078
   11   1.3798621  -0.0113895   0.0243728   0.0199855   0.0003993  -0.0008190
   12  -0.0157719  -0.0004149   0.0057767   0.0004669   0.0000133   0.0001634
   13   3.8015333   0.9910804   1.2313800   0.0039966   0.0034882   0.0169156
   14   0.9910804   0.9724219  -0.0291706   0.0044852   0.0023959   0.0004967
   15   1.2313800  -0.0291706   3.8889850   1.3656922  -0.0258109   0.0315931
   16   0.0039966   0.0044852   1.3656922   3.8858924   0.9870005   1.3790658
   17   0.0034882   0.0023959  -0.0258109   0.9870005   0.9724170  -0.0097922
   18   0.0169156   0.0004967   0.0315931   1.3790658  -0.0097922   3.8642703
   19   0.0004934   0.0000086   0.0059271  -0.0166066  -0.0003002   0.9893971
   20   0.0228177  -0.0000683   0.0504560   0.0646791   0.0061394   1.4275145
   21  -0.0002628   0.0000087   0.0003857   0.0072873   0.0006092  -0.0153499
   22   0.0054594   0.0003109  -0.1082712   0.0224790   0.0008582  -0.0054872
   23  -0.0600055   0.0064407   1.3411830  -0.0280057   0.0066673   0.0156941
   24   0.0012794   0.0000268  -0.0001357   0.0008557  -0.0000350  -0.0001507
   25  -0.0000535  -0.0000001   0.0001756  -0.0000338  -0.0000020   0.0000694
   26   0.0007758   0.0000133   0.0007043  -0.0006359   0.0000321   0.0007383
   27   0.0000100   0.0000008   0.0000560  -0.0000464   0.0000001   0.0000375
   28   0.0013724  -0.0000093  -0.0004350   0.0010241  -0.0000140  -0.0003995
   29  -0.0000072   0.0000001   0.0000676  -0.0000176  -0.0000002   0.0000500
   30  -0.0004769   0.0000697   0.0038482  -0.0008994   0.0000169   0.0005548
   31   0.0009774  -0.0000143  -0.0011311   0.0027197  -0.0000182  -0.0000013
   32  -0.0000066  -0.0000001   0.0000295  -0.0000336   0.0000001   0.0000424
   33  -0.0003922   0.0000446   0.0007208   0.0000732   0.0000322  -0.0002502
   34  -0.0001374  -0.0000014   0.0001795   0.0000088  -0.0000002   0.0000007
   35   0.0004985  -0.0001052   0.0012998   0.0030757  -0.0000434  -0.0006215
   36  -0.0001271   0.0000043   0.0002785   0.0003403  -0.0000009  -0.0002938
   37   0.0015125  -0.0000017   0.0116427  -0.0000500   0.0000152  -0.0000782
   38  -0.0010668  -0.0001044  -0.0003472   0.0030193   0.0000456   0.0006043
           19          20          21          22          23          24
    1   0.0005572  -0.1077879  -0.0232761   1.1187052  -0.0365853   0.0294768
    2   0.0002018   0.0149500  -0.0022699  -0.0632653  -0.0076244   0.0197342
    3  -0.0000956   0.0091583   0.0169264  -0.0602298   0.0285654   0.0470639
    4   0.0000147   0.0019834   0.0055462   0.0006934   0.0004869  -0.0015480
    5   0.0001661   0.0079403   0.0044497   0.0278002  -0.0058486   1.1724029
    6   0.0000603   0.0088058   0.0001121   0.0062744  -0.0546041   0.0000536
    7   0.0000128  -0.0013090  -0.0001226   0.0012164   0.0088985   0.0001097
    8  -0.0001311   0.0080776   0.0008411  -0.0679383   1.2187019   0.0030190
    9   0.0000286   0.0235105   0.0001201   0.0083718  -0.0397995   0.0011513
   10   0.0000085   0.0005818   0.0000090  -0.0007349   0.0031152  -0.0000852
   11   0.0001367   0.0086387   0.0002643  -0.0043544   0.0087442   0.0006288
   12   0.0000469   0.0000659   0.0000078   0.0001708   0.0010513   0.0000261
   13   0.0004934   0.0228177  -0.0002628   0.0054594  -0.0600055   0.0012794
   14   0.0000086  -0.0000683   0.0000087   0.0003109   0.0064407   0.0000268
   15   0.0059271   0.0504560   0.0003857  -0.1082712   1.3411830  -0.0001357
   16  -0.0166066   0.0646791   0.0072873   0.0224790  -0.0280057   0.0008557
   17  -0.0003002   0.0061394   0.0006092   0.0008582   0.0066673  -0.0000350
   18   0.9893971   1.4275145  -0.0153499  -0.0054872   0.0156941  -0.0001507
   19   0.9739716  -0.0126030  -0.0007027   0.0063003   0.0011787  -0.0001810
   20  -0.0126030   3.8939145   0.9785859   1.3757894  -0.0150394   0.0003200
   21  -0.0007027   0.9785859   0.9805688  -0.0005461   0.0074767  -0.0002515
   22   0.0063003   1.3757894  -0.0005461   3.6186571   1.3489014  -0.0046410
   23   0.0011787  -0.0150394   0.0074767   1.3489014   3.7341837   0.0016572
   24  -0.0001810   0.0003200  -0.0002515  -0.0046410   0.0016572   3.8510703
   25   0.0000049   0.0005094   0.0000396  -0.0009625  -0.0003391   0.9983217
   26   0.0001449   0.0002323   0.0000461   0.0004114   0.0020863   1.4457846
   27   0.0000012  -0.0000063   0.0000018   0.0000430  -0.0000260  -0.0150914
   28  -0.0001422   0.0005272  -0.0001470   0.0014897  -0.0010631   0.1079505
   29  -0.0000014  -0.0001077   0.0000037   0.0000075  -0.0001109   0.0062868
   30   0.0001844   0.0015329   0.0003385   0.0112036  -0.0006523   0.0163358
   31   0.0000041   0.0031367   0.0003308  -0.0000005   0.0032734   0.0224465
   32  -0.0000001  -0.0000585  -0.0000013   0.0000274   0.0000619  -0.0001250
   33   0.0000023  -0.0005601  -0.0002756  -0.0001384   0.0002917   0.0058481
   34   0.0000006   0.0000329   0.0000001   0.0000432  -0.0002208   0.0000256
   35   0.0000298   0.0093178   0.0002871   0.0030282   0.0037276   0.0234265
   36  -0.0000003   0.0003135   0.0001374  -0.0000157   0.0000938   0.0001263
   37   0.0000534   0.0025636  -0.0000564   0.0004284  -0.0043593   0.0083279
   38  -0.0002286   0.0032742   0.0000151  -0.0047709  -0.0198295  -0.0393707
           25          26          27          28          29          30
    1   0.0035792  -0.0095533   0.0000697   0.0109498   0.0002723  -0.0114905
    2   0.0016897  -0.0013715  -0.0000478   0.0248591   0.0004806   0.0135359
    3   0.0243202   0.0305372   0.0004840   0.0430178   0.0001248   0.0232960
    4   0.0014521  -0.0002071   0.0000370   0.0001228   0.0000027  -0.0000017
    5  -0.0526481  -0.0043552   0.0061060   0.0209052   0.0004999  -0.0689786
    6  -0.0003546   0.0028714  -0.0000964  -0.0004668   0.0000654   0.0027939
    7   0.0000267  -0.0000405  -0.0000126   0.0000937   0.0000000   0.0001396
    8   0.0001645   0.0019728   0.0000760   0.0034647  -0.0000626   0.0035959
    9  -0.0000752   0.0006153   0.0000256   0.0012549   0.0000278  -0.0001880
   10   0.0000009   0.0000588   0.0000005  -0.0000602  -0.0000005   0.0002004
   11   0.0000527   0.0002350  -0.0000050   0.0008044   0.0000126   0.0006993
   12   0.0000005  -0.0000051  -0.0000001   0.0000108   0.0000008   0.0000522
   13  -0.0000535   0.0007758   0.0000100   0.0013724  -0.0000072  -0.0004769
   14  -0.0000001   0.0000133   0.0000008  -0.0000093   0.0000001   0.0000697
   15   0.0001756   0.0007043   0.0000560  -0.0004350   0.0000676   0.0038482
   16  -0.0000338  -0.0006359  -0.0000464   0.0010241  -0.0000176  -0.0008994
   17  -0.0000020   0.0000321   0.0000001  -0.0000140  -0.0000002   0.0000169
   18   0.0000694   0.0007383   0.0000375  -0.0003995   0.0000500   0.0005548
   19   0.0000049   0.0001449   0.0000012  -0.0001422  -0.0000014   0.0001844
   20   0.0005094   0.0002323  -0.0000063   0.0005272  -0.0001077   0.0015329
   21   0.0000396   0.0000461   0.0000018  -0.0001470   0.0000037   0.0003385
   22  -0.0009625   0.0004114   0.0000430   0.0014897   0.0000075   0.0112036
   23  -0.0003391   0.0020863  -0.0000260  -0.0010631  -0.0001109  -0.0006523
   24   0.9983217   1.4457846  -0.0150914   0.1079505   0.0062868   0.0163358
   25   0.9745272  -0.0115502  -0.0006517   0.0068257   0.0006220   0.0001541
   26  -0.0115502   3.8767528   0.9907842   1.3801929  -0.0112932   0.0247375
   27  -0.0006517   0.9907842   0.9733530  -0.0157695  -0.0004119   0.0057966
   28   0.0068257   1.3801929  -0.0157695   3.8020308   0.9908784   1.2319227
   29   0.0006220  -0.0112932  -0.0004119   0.9908784   0.9724331  -0.0290957
   30   0.0001541   0.0247375   0.0057966   1.2319227  -0.0290957   3.8876440
   31  -0.0000028   0.0199520   0.0004643   0.0042590   0.0045690   1.3644770
   32   0.0000210   0.0003956   0.0000124   0.0034948   0.0024140  -0.0257962
   33   0.0001133  -0.0008157   0.0001657   0.0168767   0.0004921   0.0305747
   34   0.0000081   0.0001343   0.0000464   0.0004964   0.0000097   0.0059234
   35   0.0005748   0.0086732   0.0000678   0.0227840  -0.0000686   0.0499428
   36   0.0000105   0.0002577   0.0000076  -0.0002564   0.0000085   0.0003754
   37  -0.0007258  -0.0044469   0.0001733   0.0056415   0.0003108  -0.1081176
   38   0.0031898   0.0086402   0.0010504  -0.0604252   0.0064035   1.3410391
           31          32          33          34          35          36
    1   0.0097253   0.0000991  -0.0000903   0.0002021   0.0146703  -0.0022871
    2  -0.0020216   0.0000222   0.0128828   0.0005614  -0.1075144  -0.0234694
    3   0.0205290   0.0001596   0.0127173   0.0000632   0.0088534   0.0001250
    4  -0.0001772   0.0000358   0.0007538   0.0000116  -0.0012631  -0.0001179
    5   0.0157992   0.0006759  -0.0044440  -0.0001205   0.0079105   0.0008420
    6  -0.0009378  -0.0000408   0.0071365  -0.0001002   0.0085829   0.0169132
    7  -0.0008432  -0.0000120   0.0000866   0.0000153   0.0018330   0.0055012
    8   0.0010699  -0.0001393  -0.0001096   0.0001667   0.0076509   0.0043817
    9   0.0008050  -0.0000322  -0.0001148  -0.0001696   0.0003371  -0.0002227
   10  -0.0000425  -0.0000023   0.0000688   0.0000058   0.0005076   0.0000366
   11  -0.0006042   0.0000278   0.0007002   0.0001364   0.0002695   0.0000256
   12  -0.0000417   0.0000001   0.0000309   0.0000008   0.0000007   0.0000017
   13   0.0009774  -0.0000066  -0.0003922  -0.0001374   0.0004985  -0.0001271
   14  -0.0000143  -0.0000001   0.0000446  -0.0000014  -0.0001052   0.0000043
   15  -0.0011311   0.0000295   0.0007208   0.0001795   0.0012998   0.0002785
   16   0.0027197  -0.0000336   0.0000732   0.0000088   0.0030757   0.0003403
   17  -0.0000182   0.0000001   0.0000322  -0.0000002  -0.0000434  -0.0000009
   18  -0.0000013   0.0000424  -0.0002502   0.0000007  -0.0006215  -0.0002938
   19   0.0000041  -0.0000001   0.0000023   0.0000006   0.0000298  -0.0000003
   20   0.0031367  -0.0000585  -0.0005601   0.0000329   0.0093178   0.0003135
   21   0.0003308  -0.0000013  -0.0002756   0.0000001   0.0002871   0.0001374
   22  -0.0000005   0.0000274  -0.0001384   0.0000432   0.0030282  -0.0000157
   23   0.0032734   0.0000619   0.0002917  -0.0002208   0.0037276   0.0000938
   24   0.0224465  -0.0001250   0.0058481   0.0000256   0.0234265   0.0001263
   25  -0.0000028   0.0000210   0.0001133   0.0000081   0.0005748   0.0000105
   26   0.0199520   0.0003956  -0.0008157   0.0001343   0.0086732   0.0002577
   27   0.0004643   0.0000124   0.0001657   0.0000464   0.0000678   0.0000076
   28   0.0042590   0.0034948   0.0168767   0.0004964   0.0227840  -0.0002564
   29   0.0045690   0.0024140   0.0004921   0.0000097  -0.0000686   0.0000085
   30   1.3644770  -0.0257962   0.0305747   0.0059234   0.0499428   0.0003754
   31   3.8865495   0.9870051   1.3792474  -0.0167319   0.0660854   0.0073162
   32   0.9870051   0.9724756  -0.0098159  -0.0003078   0.0061671   0.0006095
   33   1.3792474  -0.0098159   3.8639278   0.9896207   1.4278757  -0.0154226
   34  -0.0167319  -0.0003078   0.9896207   0.9739170  -0.0127405  -0.0007076
   35   0.0660854   0.0061671   1.4278757  -0.0127405   3.8949581   0.9787721
   36   0.0073162   0.0006095  -0.0154226  -0.0007076   0.9787721   0.9806482
   37   0.0217845   0.0008503  -0.0066036   0.0062960   1.3751265  -0.0003908
   38  -0.0268592   0.0066957   0.0166047   0.0011648  -0.0140617   0.0074822
           37          38
    1  -0.0633841  -0.0078947
    2   1.1176405  -0.0368905
    3   0.0067084  -0.0550044
    4   0.0011690   0.0088588
    5  -0.0674194   1.2183018
    6  -0.0605321   0.0290804
    7   0.0006180   0.0005500
    8   0.0271502  -0.0059375
    9  -0.0048188   0.0016456
   10  -0.0009585  -0.0003551
   11   0.0004947   0.0020793
   12   0.0000396  -0.0000248
   13   0.0015125  -0.0010668
   14  -0.0000017  -0.0001044
   15   0.0116427  -0.0003472
   16  -0.0000500   0.0030193
   17   0.0000152   0.0000456
   18  -0.0000782   0.0006043
   19   0.0000534  -0.0002286
   20   0.0025636   0.0032742
   21  -0.0000564   0.0000151
   22   0.0004284  -0.0047709
   23  -0.0043593  -0.0198295
   24   0.0083279  -0.0393707
   25  -0.0007258   0.0031898
   26  -0.0044469   0.0086402
   27   0.0001733   0.0010504
   28   0.0056415  -0.0604252
   29   0.0003108   0.0064035
   30  -0.1081176   1.3410391
   31   0.0217845  -0.0268592
   32   0.0008503   0.0066957
   33  -0.0066036   0.0166047
   34   0.0062960   0.0011648
   35   1.3751265  -0.0140617
   36  -0.0003908   0.0074822
   37   3.6152351   1.3486313
   38   1.3486313   3.7352047


 Total job time:  258176.24s(wall), 236840.95s(cpu) 
 Mon Oct 16 09:20:03 2023

        *************************************************************
        *                                                           *
        *  Thank you very much for using Q-Chem.  Have a nice day.  *
        *                                                           *
        *************************************************************


