                  Welcome to Q-Chem
     A Quantum Leap Into The Future Of Chemistry


 Q-Chem 6.0 (devel), Q-Chem, Inc., Pleasanton, CA (2022)

 E. Epifanovsky,  A. T. B. Gilbert,  Xintian Feng,  Joonho Lee,  Yuezhi Mao,  
 N. Mardirossian,  P. Pokhilko,  A. White,  M. Wormit,  M. P. Coons,  
 A. L. Dempwolff,  Zhengting Gan,  D. Hait,  P. R. Horn,  L. D. Jacobson,  
 I. Kaliman,  J. Kussmann,  A. W. Lange,  Ka Un Lao,  D. S. Levine,  Jie Liu,  
 S. C. McKenzie,  A. F. Morrison,  K. Nanda,  F. Plasser,  D. R. Rehn,  
 M. L. Vidal,  Zhi-Qiang You,  Ying Zhu,  B. Alam,  B. Albrecht,  
 A. Aldossary,  E. Alguire,  J. H. Andersen,  V. Athavale,  D. Barton,  
 K. Begam,  A. Behn,  N. Bellonzi,  Y. A. Bernard,  E. J. Berquist,  
 H. Burton,  A. Carreras,  K. Carter-Fenk,  Romit Chakraborty,  
 Chandrima Chakravarty,  Junhan Chen,  A. D. Chien,  K. D. Closser,  
 V. Cofer-Shabica,  L. Cunha,  S. Dasgupta,  Jia Deng,  M. de Wergifosse,  
 M. Diedenhofen,  Hainam Do,  S. Ehlert,  Po-Tung Fang,  S. Fatehi,  
 Qingguo Feng,  T. Friedhoff,  B. Ganoe,  J. Gayvert,  Qinghui Ge,  
 G. Gidofalvi,  M. Goldey,  J. Gomes,  C. Gonzalez-Espinoza,  S. Gulania,  
 A. Gunina,  J. A. Gyamfi,  M. W. D. Hanson-Heine,  P. H. P. Harbach,  
 A. W. Hauser,  M. F. Herbst,  M. Hernandez Vera,  M. Hodecker,  
 Z. C. Holden,  S. Houck,  Xunkun Huang,  Kerwin Hui,  B. C. Huynh,  
 K. Ikeda,  M. Ivanov,  Hyunjun Ji,  Zuxin Jin,  Hanjie Jiang,  B. Kaduk,  
 S. Kaehler,  R. Kang,  K. Khistyaev,  Jaehoon Kim,  Yongbin Kim,  
 P. Klunzinger,  Z. Koczor-Benda,  Joong Hoon Koh,  D. Kosenkov,  
 Saikiran Kotaru,  L. Koulias,  T. Kowalczyk,  C. M. Krauter,  K. Kue,  
 A. Kunitsa,  T. Kus,  A. Landau,  K. V. Lawler,  D. Lefrancois,  S. Lehtola,  
 Rain Li,  Shaozhi Li,  Yi-Pei Li,  Jiashu Liang,  M. Liebenthal,  
 Hung-Hsuan Lin,  You-Sheng Lin,  Fenglai Liu,  Kuan-Yu Liu,  
 M. Loipersberger,  A. Luenser,  C. Malbon,  A. Manjanath,  P. Manohar,  
 E. Mansoor,  S. F. Manzer,  Shan-Ping Mao,  A. V. Marenich,  T. Markovich,  
 S. Mason,  F. Matz,  S. A. Maurer,  P. F. McLaughlin,  M. F. S. J. Menger,  
 J.-M. Mewes,  S. A. Mewes,  P. Morgante,  Mohammad Mostafanejad,  
 J. W. Mullinax,  K. J. Oosterbaan,  G. Paran,  V. Parravicini,  
 Alexander C. Paul,  Suranjan K. Paul,  F. Pavosevic,  Zheng Pei,  S. Prager,  
 E. I. Proynov,  E. Ramos,  B. Rana,  A. E. Rask,  A. Rettig,  R. M. Richard,  
 F. Rob,  E. Rossomme,  T. Scheele,  M. Scheurer,  M. Schneider,  
 P. E. Schneider,  N. Sergueev,  S. M. Sharada,  Hengyuan Shen,  
 W. Skomorowski,  D. W. Small,  C. J. Stein,  Yingli Su,  Yu-Chuan Su,  
 E. J. Sundstrom,  Zhen Tao,  J. Thirman,  Hung-Yi Tsai,  T. Tsuchimochi,  
 N. M. Tubman,  C. Utku,  S. P. Veccham,  O. Vydrov,  J. Wenzel,  
 Jonathan Wong,  J. Witte,  A. Yamada,  Chou-Hsun Yang,  Kun Yao,  
 S. Yeganeh,  S. R. Yost,  A. Zech,  F. Zeller,  Igor Ying Zhang,  
 Xing Zhang,  Yu Zhang,  D. Zuev,  A. Aspuru-Guzik,  A. T. Bell,  
 N. A. Besley,  K. B. Bravaya,  B. R. Brooks,  D. Casanova,  Jeng-Da Chai,  
 Hsing-Ta Chen,  S. Coriani,  C. J. Cramer,  A. E. DePrince, III,  
 R. A. DiStasio Jr.,  A. Dreuw,  B. D. Dunietz,  T. R. Furlani,  
 W. A. Goddard III,  S. Grimme,  S. Hammes-Schiffer,  T. Head-Gordon,  
 W. J. Hehre,  Chao-Ping Hsu,  T.-C. Jagau,  Yousung Jung,  A. Klamt,  
 Jing Kong,  D. S. Lambrecht,  Xiangyuan Li,  WanZhen Liang,  N. J. Mayhall,  
 C. W. McCurdy,  J. B. Neaton,  T. Neudecker,  C. Ochsenfeld,  
 J. A. Parkhill,  R. Peverati,  V. A. Rassolov,  Haisheng Ren,  Yihan Shao,  
 L. V. Slipchenko,  R. P. Steele,  J. E. Subotnik,  A. J. W. Thom,  
 A. Tkatchenko,  D. G. Truhlar,  T. Van Voorhis,  Fan Wang,  
 T. A. Wesolowski,  K. B. Whaley,  H. L. Woodcock III,  P. M. Zimmerman,  
 S. Faraji,  P. M. W. Gill,  M. Head-Gordon,  J. M. Herbert,  A. I. Krylov

 Contributors to earlier versions of Q-Chem not listed above: 
 R. D. Adamson,  B. Austin,  R. Baer,  J. Baker,  G. J. O. Beran,  
 K. Brandhorst,  S. T. Brown,  E. F. C. Byrd,  Arup K. Chakraborty,  
 G. K. L. Chan,  Chun-Min Chang,  Yunqing Chen,  C.-L. Cheng,  
 Siu Hung Chien,  D. M. Chipman,  D. L. Crittenden,  H. Dachsel,  
 R. J. Doerksen,  A. D. Dutoi,  R. G. Edgar,  J. Fosso-Tande,  
 L. Fusti-Molnar,  D. Ghosh,  A. Ghysels,  A. Golubeva-Zadorozhnaya,  
 J. Gonthier,  M. S. Gordon,  S. R. Gwaltney,  G. Hawkins,  J. E. Herr,  
 A. Heyden,  S. Hirata,  E. G. Hohenstein,  G. Kedziora,  F. J. Keil,  
 C. Kelley,  Jihan Kim,  R. A. King,  R. Z. Khaliullin,  P. P. Korambath,  
 W. Kurlancheek,  A. Laurent,  A. M. Lee,  M. S. Lee,  S. V. Levchenko,  
 Ching Yeh Lin,  D. Liotard,  E. Livshits,  R. C. Lochan,  I. Lotan,  
 L. A. Martinez-Martinez,  P. E. Maslen,  N. Nair,  D. P. O'Neill,  
 D. Neuhauser,  E. Neuscamman,  C. M. Oana,  R. Olivares-Amaya,  R. Olson,  
 T. M. Perrine,  B. Peters,  P. A. Pieniazek,  A. Prociuk,  Y. M. Rhee,  
 J. Ritchie,  M. A. Rohrdanz,  E. Rosta,  N. J. Russ,  H. F. Schaefer III,  
 M. W. Schmidt,  N. E. Schultz,  S. Sharma,  N. Shenvi,  C. D. Sherrill,  
 A. C. Simmonett,  A. Sodt,  T. Stein,  D. Stuck,  K. S. Thanthiriwatte,  
 V. Vanovschi,  L. Vogt,  Tao Wang,  A. Warshel,  M. A. Watson,  
 C. F. Williams,  Q. Wu,  X. Xu,  Jun Yang,  W. Zhang,  Yan Zhao

   Please cite Q-Chem as follows:
  "Software for the frontiers of quantum chemistry:
   An overview of developments in the Q-Chem 5 package"
   J. Chem. Phys. 155, 084801 (2021)
   https://doi.org/10.1063/5.0055522 (open access)

 Q-Chem 6.0.1 for Intel X86 EM64T Linux

 Parts of Q-Chem use Armadillo 9.900.5 (Nocturnal Misbehaviour).
 http://arma.sourceforge.net/

 Q-Chem begins on Tue Oct 24 15:13:02 2023  

 Host: atlas-186
0

     Scratch files written to ./qchem19598//
 Processing $rem in /scratch/abel/SOFTWARE/qchem/config/preferences:
 Processing $rem in /dipc/acebg/.qchemrc:

 Checking the input file for inconsistencies... 	...done.

--------------------------------------------------------------
User input:
--------------------------------------------------------------
$comment
 RAS-SF CALCULATION
$end

$molecule
 READ tetracene_opt.molecule
$end

$rem
!**CALCULATION TYPE***     
JOBTYPE            sp    
EXCHANGE           HF
CORRELATION        RASCI    !RASCI=Casanova; RASCI2=Zimmerman
BASIS              def2-TZVP

!***SCF REFERENCE***
!SKIP_SCFMAN        FALSE
UNRESTRICTED       FALSE
!SCF_GUESS          core
!SCF_GUESS_MIX      FALSE
!SCF_GUESS_ALWAYS   FALSE
MAX_SCF_CYCLES     999
!SCF_CONVERGENCE    8
SCF_ALGORITHM      DIIS_GDM !DIIS,DM,DIIS_DM,GDM,DIIS_GDM,GD

!SYMMETRY           TRUE   !use of symmetry for calculating integrals
!SYM_IGNORE         FALSE  !turn off using symmetry
!SYM_TOL            5      !tolerance for determining point group
!USE_ABELIAN_SUBGROUP      !define to use abelian group

!THRESH             14
SCF_FINAL_PRINT     1 !0,1,2,3

!****RAS-SF****
RAS_ROOTS          20       !number of RAS-CI roots to be computed
SET_ITER           150     !number of iterations in RASCI
RAS_ELEC           14       !number of electrons in RAS2
RAS_ELEC_ALPHA     8       !spin-α electrons in RAS2 
RAS_ELEC_BETA      6       !spin-β electrons in RAS2

RAS_ACT            12       !number of orbitals in RAS2 
RAS_ACT_ORB  [54,55,56,57,58,59,60,61,62,63,64,66]  !user-selected RAS2 orbitals
RAS_OCC            53       !number of orbitals in RAS1
N_FROZEN_CORE      48     !Number of frozen core orbitals
N_FROZEN_VIRTUAL   560      !Number of frozen virtual orbitals

RAS_DO_HOLE        TRUE   !presence of hole excitations in RAS-CI wave function
RAS_DO_PART        TRUE   !presence of particle excitations
!RAS_AMPL_PRINT     10     !threshold (×10 2 ) for the CI amplitudes

!RAS_GUESS_CS       0      !number of closed shell guess conﬁgurations
!RAS_SPIN_MULT      0      !spin multiplicity. Only for Ms = 0 
!RAS_SRDFT          FALSE  !short-range density functional RAS-CI
!RAS_NFRAG          0     !fragments of excitation analysis in RASCI

RAS_PRINT          2      !level of information
RAS_NATORB         TRUE   !computation of the natural orbital occupancies
!RAS_NATORB_STATE  0      !Saves NO of i RAS computed state in .fchk ﬁle
!RAS_FOD            TRUE

!****RAS-SOC****
CALC_SOC           TRUE   !calculate SOC for EOM-CC, RAS-CI, ADC, TDDFT/TDA and TDDFT
!RAS_SOC_2E        TRUE   !two-electron mean-ﬁeld contribution, default=true
RAS_SOC_SYM_DENS   TRUE   !averaging of α and β densities

!****MEMORY****
MEM_TOTAL          100000 !Default 2000 MB
MEM_STATIC         30000  !Default 64 MB

!**Molecular Properties and Analysis **                                                                                          
POP_MULLIKEN       TRUE   !Run Mulliken population analysis
LOWDIN_POPULATION  TRUE   !Run Löwdin population analysis
GUI                2       !Checkpoints generation
STATE_ANALYSIS     TRUE

!**Wave function analysis of RAS-CI states: MOLDEN**
!PLOTS = 0     ! Note: This can be omitted, default is 0
!NTO_PAIRS = 2 ! Note: This can be omitted, default is 2
!GUI 0
!MOLDEN_FORMAT      TRUE
!PRINT_ORBITALS     15

!**Wave function analysis of RAS-CI state: CUBE**
!NTO_PAIRS = 2 ! Note: This can be omitted, default is 2
!PLOTS = 1
!GUI 0

!**SR-DFT**
!RAS_SRDFT           TRUE !Perform short-range density functional RAS-CI
!RAS_SRDFT_EXC       0 !EX functional. 0=HF. 
!RAS_SRDFT_ONLY_COR  TRUE !No use of EXC functional
!RAS_SRDFT_COR       srPBE !short-range correlation functional
!ras_srdft_0         TRUE !true: no iteration (one-shot); false: iteration
!RAS_OMEGA           400 !Coulomb range-separation parameter. def=400
!RAS_SRDFT_DAMP     0.5 !dumping factor. def=0.5
$end

!$plots
!   grid_points 100 100 100
!   grid_range  (-10,10) (-10,10) (-10,10)
!$end

--------------------------------------------------------------
 ----------------------------------------------------------------
             Standard Nuclear Orientation (Angstroms)
    I     Atom           X                Y                Z
 ----------------------------------------------------------------
    1      C       0.0000002188    -0.7282540188     0.0008017092
    2      C      -1.2207052746    -1.3992280118    -0.0018011386
    3      H      -1.2261427012    -2.4836772361    -0.0033764159
    4      C       1.2207081982    -1.3992259422     0.0033054321
    5      H       1.2261474362    -2.4836746482     0.0051990930
    6      C       2.4728705352    -0.7109288954     0.0026585214
    7      C       3.6933843145    -1.3895468780     0.0054990200
    8      H       3.6912698368    -2.4735216295     0.0101982845
    9      C       4.8951625276    -0.6951136790     0.0022317856
   10      H       5.8317025073    -1.2370466889     0.0045873165
   11      C       4.8951698125     0.6950863412    -0.0042218962
   12      H       5.8317157882     1.2370045515    -0.0077605937
   13      C       3.6933986099     1.3895408935    -0.0060711048
   14      H       3.6912882173     2.4735158387    -0.0107273443
   15      C       2.4728749790     0.7109408505    -0.0019787702
   16      C      -2.4728683323    -0.7109320216    -0.0020626534
   17      C      -3.6933779290    -1.3895491796    -0.0061374954
   18      H      -3.6912592123    -2.4735238608    -0.0108510748
   19      C      -4.8951593786    -0.6951146350    -0.0041874034
   20      H      -5.8316964398    -1.2370465250    -0.0076843755
   21      C      -4.8951727029     0.6950851007     0.0023272769
   22      H      -5.8317217130     1.2370039111     0.0048148574
   23      C      -3.6934038059     1.3895388116     0.0055099792
   24      H      -3.6912977184     2.4735134779     0.0102326338
   25      C      -2.4728768497     0.7109387678     0.0025725219
   26      C      -1.2207179048     1.3992461788     0.0031737596
   27      H      -1.2261589783     2.4836960370     0.0049726451
   28      C      -0.0000008258     0.7282779777     0.0007731087
   29      C       1.2207137816     1.3992480899    -0.0017660019
   30      H       1.2261531349     2.4836982700    -0.0033649292
 ----------------------------------------------------------------
 Molecular Point Group                 C1    NOp =  1
 Largest Abelian Subgroup              C1    NOp =  1
 Nuclear Repulsion Energy =        1116.85311862 hartrees
 There are       61 alpha and       59 beta electrons
 Requested basis set is def2-TZVP
 There are 246 shells and 630 basis functions

 Q-Chem warning in module libmdc/get_mega.C, line 167:

 Allowed MEM_STATIC has been capped at MEM_STATIC=8191.
 Reduce the value of MEM_STATIC to silence this warning.


 Total QAlloc Memory Limit 100000 MB
 Mega-Array Size      8007 MB
 MEM_STATIC part      8191 MB

 A cutoff of  1.0D-09 yielded  19900 shell pairs
 There are    128244 function pairs (    165257 Cartesian)
 Smallest overlap matrix eigenvalue = 5.12E-06

 Q-Chem warning in module stvman/mkSTV.C, line 313:

 Overlap eigenvalue is smaller than square root of threshold
 Use THRESH >= 12 to get rid of this warning


 Scale SEOQF with 1.000000e-02/1.000000e-01/1.000000e+00

 Standard Electronic Orientation quadrupole field applied
 Nucleus-field energy     =     0.0000000173 hartrees
 Guess from superposition of atomic densities
 Warning:  Energy on first SCF cycle will be non-variational
 SAD guess density has 120.000001 electrons

 -----------------------------------------------------------------------
  General SCF calculation program by
  Eric Jon Sundstrom, Paul Horn, Yuezhi Mao, Dmitri Zuev, Alec White,
  David Stuck, Shaama M.S., Shane Yost, Joonho Lee, David Small,
  Daniel Levine, Susi Lehtola, Hugh Burton, Evgeny Epifanovsky,
  Bang C. Huynh
 -----------------------------------------------------------------------
 Hartree-Fock
 Orthonormalizing orbitals
 A restricted open-shell SCF calculation will be
 performed using DIIS, GDM
 SCF converges when RMS gradient is below 1.0e-05
 ---------------------------------------
  Cycle       Energy         DIIS error
 ---------------------------------------
    1    -685.8608859782      1.91e-02  
    2    -686.0494228468      1.74e-02  
    3    -688.3056248184      4.57e-03  Done DIIS. Switching to GDM
 ---------------------------------------
  Cycle       Energy        RMS Gradient
 ---------------------------------------
    1    -688.3056248184      1.23e-01   Descent step
    2    -688.5049702682      2.15e-01   Descent step
    3    -688.6307210378      4.83e-01   Descent step
    4    -688.7837550706      1.52e-01   Dog-leg BFGS step
    5    -688.8054388910      5.72e-02   Dog-leg BFGS step
    6    -688.7675395629      6.03e-02  Line search: overstep
    7    -688.8103732479      5.41e-02   Normal BFGS step
    8    -688.8125969295      3.57e-02   Normal BFGS step
    9    -688.8138877681      5.27e-03   Normal BFGS step
   10    -688.8139410512      3.38e-03   Normal BFGS step
   11    -688.8139673880      5.12e-04   Normal BFGS step
   12    -688.8139695198      2.37e-04   Normal BFGS step
   13    -688.8139711734      1.15e-04   Normal BFGS step
   14    -688.8139724415      5.03e-05   Normal BFGS step
   15    -688.8139725274      1.15e-05   Normal BFGS step
   16    -688.8139744837      9.07e-06  Convergence criterion met
The disked orbital energies are calculated using alpha and beta Focks
 ---------------------------------------
 Alpha HF Exchange    Energy = -49.35509841502083
 Beta HF Exchange     Energy = -48.47302031555913
 Nuclear Attraction   Energy =   0.00000000000000
 One-Electron (alpha) Energy = -1596.31342183751076
 One-Electron (beta)  Energy = -1552.80602470872464
 Total Coulomb        Energy = 1441.28047215335027
 Final Alpha MO Eigenvalues
            1           2           3           4           5           6
    1 -11.2465248 -11.2456901 -11.2440892 -11.2440953 -11.2430746 -11.2430767
            7           8           9          10          11          12
    1 -11.2436630 -11.2436245 -11.2434745 -11.2434066 -11.2354287 -11.2354312
           13          14          15          16          17          18
    1 -11.2352736 -11.2352768 -11.2340039 -11.2340063 -11.2329276 -11.2329293
           19          20          21          22          23          24
    1  -1.1998630  -1.1731259  -1.1325778  -1.0805238  -1.0725353  -1.0467337
           25          26          27          28          29          30
    1  -1.0139996  -1.0072309  -0.9488187  -0.9164400  -0.8463942  -0.8334531
           31          32          33          34          35          36
    1  -0.8259222  -0.8138461  -0.7796447  -0.7161620  -0.6929214  -0.6894675
           37          38          39          40          41          42
    1  -0.6790041  -0.6308785  -0.6331427  -0.6286483  -0.6151468  -0.5883370
           43          44          45          46          47          48
    1  -0.5844161  -0.5816431  -0.5777745  -0.5654962  -0.5721643  -0.5216454
           49          50          51          52          53          54
    1  -0.5208041  -0.5311782  -0.4903358  -0.4868443  -0.4749186  -0.4854981
           55          56          57          58          59          60
    1  -0.4418279  -0.3964329  -0.3757558  -0.3334366  -0.3364689  -0.2861955
           61          62          63          64          65          66
    1  -0.2086642   0.0829499   0.1025762   0.1337281   0.1490106   0.1408824
           67          68          69          70          71          72
    1   0.1575259   0.1578265   0.1687038   0.1695187   0.1622382   0.1868666
           73          74          75          76          77          78
    1   0.1918674   0.2006797   0.2117264   0.2198503   0.2265578   0.2373584
           79          80          81          82          83          84
    1   0.2504003   0.2646111   0.2641662   0.2688929   0.2725129   0.2789071
           85          86          87          88          89          90
    1   0.2994722   0.3004426   0.3082721   0.3107553   0.3180304   0.3152103
           91          92          93          94          95          96
    1   0.3308944   0.3400418   0.3510945   0.3558017   0.3669144   0.3698291
           97          98          99         100         101         102
    1   0.3890143   0.3909924   0.3941815   0.4022881   0.4035587   0.4068493
          103         104         105         106         107         108
    1   0.4098446   0.4184225   0.4293255   0.4346154   0.4370010   0.4427936
          109         110         111         112         113         114
    1   0.4516588   0.4531504   0.4507230   0.4496702   0.4656066   0.4687942
          115         116         117         118         119         120
    1   0.4717350   0.4817093   0.4868472   0.4894088   0.4963230   0.5040346
          121         122         123         124         125         126
    1   0.5082326   0.5124012   0.5181607   0.5281056   0.5354103   0.5375763
          127         128         129         130         131         132
    1   0.5419453   0.5434677   0.5622528   0.5666459   0.5658289   0.5698363
          133         134         135         136         137         138
    1   0.5853119   0.5853801   0.5936084   0.5944079   0.6077948   0.6210129
          139         140         141         142         143         144
    1   0.6268457   0.6328690   0.6391951   0.6472521   0.6480661   0.6488682
          145         146         147         148         149         150
    1   0.6494725   0.6501740   0.6515006   0.6550201   0.6579831   0.6812549
          151         152         153         154         155         156
    1   0.6813498   0.6889930   0.7142335   0.7143411   0.7228918   0.7375618
          157         158         159         160         161         162
    1   0.7474122   0.7549335   0.7662273   0.7944994   0.8074673   0.8165816
          163         164         165         166         167         168
    1   0.8222417   0.8217962   0.8232611   0.8383793   0.8390768   0.8442027
          169         170         171         172         173         174
    1   0.8456754   0.8586526   0.8807825   0.8886624   0.8913438   0.8954700
          175         176         177         178         179         180
    1   0.8948765   0.9091542   0.9181108   0.9180727   0.9180641   0.9273471
          181         182         183         184         185         186
    1   0.9313967   0.9322998   0.9392410   0.9485706   0.9486786   0.9483108
          187         188         189         190         191         192
    1   0.9639142   0.9755330   0.9857477   0.9870608   0.9912975   0.9932026
          193         194         195         196         197         198
    1   0.9946490   1.0100331   1.0386374   1.0500295   1.0550458   1.0656909
          199         200         201         202         203         204
    1   1.0668925   1.0793696   1.0888796   1.1018136   1.1016925   1.1052575
          205         206         207         208         209         210
    1   1.1038166   1.1073379   1.1173141   1.1322474   1.1498601   1.1737103
          211         212         213         214         215         216
    1   1.1793522   1.1880531   1.1895873   1.2008797   1.2116059   1.2257198
          217         218         219         220         221         222
    1   1.2314779   1.2325113   1.2483659   1.2683151   1.3163680   1.3219369
          223         224         225         226         227         228
    1   1.3526249   1.3547304   1.3594157   1.3653054   1.3673138   1.3717348
          229         230         231         232         233         234
    1   1.3778057   1.3792480   1.4138874   1.4250363   1.4297383   1.4397709
          235         236         237         238         239         240
    1   1.4379800   1.4530015   1.4551765   1.4678609   1.4754879   1.4908350
          241         242         243         244         245         246
    1   1.4913699   1.5002971   1.5068309   1.5083939   1.5294454   1.5378637
          247         248         249         250         251         252
    1   1.5483329   1.5529535   1.5619985   1.5946846   1.5953716   1.5927696
          253         254         255         256         257         258
    1   1.6092329   1.6448508   1.6562876   1.6605071   1.6731144   1.6735928
          259         260         261         262         263         264
    1   1.6875165   1.7040887   1.7100193   1.7215039   1.7260482   1.7340574
          265         266         267         268         269         270
    1   1.7491995   1.7642523   1.7639761   1.7683389   1.7770744   1.7818257
          271         272         273         274         275         276
    1   1.7958350   1.7995014   1.8087046   1.8151526   1.8118499   1.8278241
          277         278         279         280         281         282
    1   1.8455703   1.8507940   1.8655386   1.8729158   1.8786783   1.8825577
          283         284         285         286         287         288
    1   1.9080488   1.9357529   1.9364188   1.9427096   1.9436398   1.9450944
          289         290         291         292         293         294
    1   1.9571899   1.9671455   1.9746500   1.9746935   1.9840698   1.9887129
          295         296         297         298         299         300
    1   2.0043456   2.0074808   2.0342119   2.0444157   2.0454455   2.0530028
          301         302         303         304         305         306
    1   2.0706515   2.0850852   2.1138204   2.1340605   2.1542827   2.1560733
          307         308         309         310         311         312
    1   2.1697440   2.1857340   2.1857366   2.1936828   2.1988230   2.2226369
          313         314         315         316         317         318
    1   2.2286189   2.2306690   2.2363213   2.2694845   2.2729935   2.2855512
          319         320         321         322         323         324
    1   2.2982646   2.3017078   2.3425190   2.3497395   2.3638388   2.3709598
          325         326         327         328         329         330
    1   2.4206407   2.4326988   2.4341880   2.4474492   2.4660129   2.4709990
          331         332         333         334         335         336
    1   2.4743537   2.4959059   2.4978509   2.5037775   2.5090230   2.5112551
          337         338         339         340         341         342
    1   2.5204528   2.5283017   2.5344409   2.5531332   2.5555800   2.6032500
          343         344         345         346         347         348
    1   2.6109252   2.6141839   2.6309627   2.6325010   2.6425114   2.6500609
          349         350         351         352         353         354
    1   2.6648365   2.6982143   2.7318313   2.7341062   2.7536468   2.7623963
          355         356         357         358         359         360
    1   2.7671453   2.7732008   2.7829990   2.8002248   2.8377778   2.8373986
          361         362         363         364         365         366
    1   2.8379918   2.8646588   2.8675950   2.8704711   2.8718027   2.9106459
          367         368         369         370         371         372
    1   2.9249859   2.9285981   2.9425902   2.9615317   2.9604397   2.9720507
          373         374         375         376         377         378
    1   2.9752749   2.9755672   2.9798433   2.9882015   2.9933093   2.9953266
          379         380         381         382         383         384
    1   3.0445801   3.0502182   3.0529116   3.0558914   3.0634411   3.0678009
          385         386         387         388         389         390
    1   3.0741459   3.0748034   3.1011749   3.1060450   3.1052371   3.1081846
          391         392         393         394         395         396
    1   3.1091839   3.1231223   3.1255733   3.1397382   3.1443255   3.1586415
          397         398         399         400         401         402
    1   3.1589382   3.1714741   3.1822793   3.1806562   3.1849018   3.1912697
          403         404         405         406         407         408
    1   3.1909228   3.1964524   3.2082503   3.2123643   3.2189360   3.2268568
          409         410         411         412         413         414
    1   3.2475966   3.2535783   3.2589072   3.2615309   3.2665453   3.2670862
          415         416         417         418         419         420
    1   3.2797254   3.2922885   3.2914990   3.3043383   3.3125406   3.3156854
          421         422         423         424         425         426
    1   3.3183610   3.3548725   3.3555131   3.3639431   3.3677775   3.3755415
          427         428         429         430         431         432
    1   3.3831013   3.3839746   3.3875361   3.3958330   3.3964884   3.4063271
          433         434         435         436         437         438
    1   3.4175114   3.4274894   3.4309777   3.4589826   3.4575032   3.4646114
          439         440         441         442         443         444
    1   3.4672911   3.4907140   3.5066957   3.5080170   3.5086257   3.5132869
          445         446         447         448         449         450
    1   3.5153739   3.5247924   3.5510637   3.5531419   3.5619687   3.5711717
          451         452         453         454         455         456
    1   3.5768953   3.5744888   3.5847775   3.5986088   3.6049139   3.6153027
          457         458         459         460         461         462
    1   3.6210032   3.6386008   3.6402908   3.6519006   3.6604383   3.6653693
          463         464         465         466         467         468
    1   3.6650701   3.6672905   3.6706364   3.7006703   3.7027311   3.7102994
          469         470         471         472         473         474
    1   3.7142047   3.7174343   3.7219836   3.7337201   3.7551843   3.7596458
          475         476         477         478         479         480
    1   3.7766447   3.7785480   3.7906826   3.7967403   3.7999509   3.8006419
          481         482         483         484         485         486
    1   3.8095015   3.8216925   3.8258312   3.8341525   3.8378735   3.8522728
          487         488         489         490         491         492
    1   3.8537379   3.8791101   3.8804798   3.8852826   3.8976414   3.9000741
          493         494         495         496         497         498
    1   3.9054100   3.9129340   3.9201400   3.9237338   3.9419508   3.9592380
          499         500         501         502         503         504
    1   3.9736874   3.9982103   4.0056753   4.0271628   4.0260694   4.0366617
          505         506         507         508         509         510
    1   4.0362808   4.0631084   4.1032619   4.1154714   4.1203386   4.1421494
          511         512         513         514         515         516
    1   4.1533332   4.1778937   4.1952872   4.2282282   4.2338528   4.2496416
          517         518         519         520         521         522
    1   4.2509614   4.2579901   4.2700616   4.2885609   4.3016167   4.3140236
          523         524         525         526         527         528
    1   4.3267995   4.3597659   4.3617661   4.3624671   4.3658471   4.3944153
          529         530         531         532         533         534
    1   4.4023292   4.4316721   4.4375539   4.4404938   4.4409310   4.4496756
          535         536         537         538         539         540
    1   4.4813049   4.5023661   4.5311533   4.5313421   4.5382896   4.5387297
          541         542         543         544         545         546
    1   4.5399207   4.5432344   4.5426097   4.5680644   4.5740799   4.5938246
          547         548         549         550         551         552
    1   4.5961831   4.6106683   4.6125197   4.6380436   4.6484777   4.6771609
          553         554         555         556         557         558
    1   4.7075682   4.7276548   4.7341816   4.7378515   4.7470641   4.7604695
          559         560         561         562         563         564
    1   4.7799696   4.7795605   4.8196110   4.8260364   4.8444387   4.8674027
          565         566         567         568         569         570
    1   4.8853431   4.9045073   4.9265142   4.9626727   5.0065442   5.0109562
          571         572         573         574         575         576
    1   5.0404957   5.0660465   5.0834150   5.0872538   5.1024868   5.1616906
          577         578         579         580         581         582
    1   5.1760174   5.1779362   5.1972752   5.2172272   5.2304294   5.2421170
          583         584         585         586         587         588
    1   5.2511579   5.2865488   5.3044796   5.3189132   5.3364882   5.3814918
          589         590         591         592         593         594
    1   5.3986473   5.4805573   5.5094597   5.5122077   5.5478457   5.5722635
          595         596         597         598         599         600
    1   5.5978280   5.6131333   5.6750677   5.6901719   5.7248490   5.7876486
          601         602         603         604         605         606
    1   5.8728141   5.8730364   5.9073316   5.9330748   5.9639045   6.0117138
          607         608         609         610         611         612
    1   6.0613177   6.0716551   6.1537730   6.1660953   6.3294801   6.6133453
          613         614         615         616         617         618
    1  22.9509013  23.5059804  23.7020652  23.7277761  23.8143415  23.8164667
          619         620         621         622         623         624
    1  23.8190165  23.8917843  23.9625530  23.9698738  23.9732957  24.0038083
          625         626         627         628         629         630
    1  24.0599068  24.1216013  24.3593795  24.3899399  24.7220232  24.9934394
 Final Beta MO Eigenvalues
            1           2           3           4           5           6
    1 -11.2464168 -11.2455506 -11.2434487 -11.2434559 -11.2423910 -11.2423983
            7           8           9          10          11          12
    1 -11.2364413 -11.2364512 -11.2363845 -11.2363884 -11.2346303 -11.2346332
           13          14          15          16          17          18
    1 -11.2344050 -11.2344082 -11.2333251 -11.2333270 -11.2323245 -11.2323261
           19          20          21          22          23          24
    1  -1.1861013  -1.1650226  -1.1238176  -1.0597934  -1.0601866  -1.0357423
           25          26          27          28          29          30
    1  -1.0090599  -0.9968892  -0.9257606  -0.8988032  -0.8410180  -0.8291756
           31          32          33          34          35          36
    1  -0.8126309  -0.8064027  -0.7692229  -0.7124039  -0.6871543  -0.6821835
           37          38          39          40          41          42
    1  -0.6743049  -0.6287366  -0.6268899  -0.6243616  -0.6109982  -0.5847330
           43          44          45          46          47          48
    1  -0.5768296  -0.5768650  -0.5727631  -0.5600293  -0.5315779  -0.5189183
           49          50          51          52          53          54
    1  -0.5159149  -0.5100675  -0.4876771  -0.4813129  -0.4707828  -0.4510082
           55          56          57          58          59          60
    1  -0.3757280  -0.3608315  -0.3473701  -0.3119270  -0.2827229   0.0049572
           61          62          63          64          65          66
    1   0.0742800   0.1279504   0.1217378   0.1548015   0.1504257   0.1743196
           67          68          69          70          71          72
    1   0.1582698   0.1583195   0.1693905   0.1709300   0.1926694   0.1878603
           73          74          75          76          77          78
    1   0.1923720   0.2012269   0.2126253   0.2203944   0.2321940   0.2405118
           79          80          81          82          83          84
    1   0.2530262   0.2696173   0.2709443   0.2703164   0.2754589   0.3027560
           85          86          87          88          89          90
    1   0.3005576   0.3040412   0.3091117   0.3172697   0.3241806   0.3330871
           91          92          93          94          95          96
    1   0.3368531   0.3421983   0.3545066   0.3635517   0.3680924   0.3709381
           97          98          99         100         101         102
    1   0.3913665   0.4017708   0.4099832   0.4068426   0.4132294   0.4082277
          103         104         105         106         107         108
    1   0.4109804   0.4263874   0.4319920   0.4388295   0.4465988   0.4538838
          109         110         111         112         113         114
    1   0.4570066   0.4553209   0.4695562   0.4913506   0.4826740   0.4764725
          115         116         117         118         119         120
    1   0.4764152   0.4841073   0.4913009   0.4910546   0.5050884   0.5064492
          121         122         123         124         125         126
    1   0.5109494   0.5277911   0.5217165   0.5354622   0.5386436   0.5393032
          127         128         129         130         131         132
    1   0.5466180   0.5475823   0.5648224   0.5679490   0.5739151   0.5714620
          133         134         135         136         137         138
    1   0.5905814   0.5943211   0.5956379   0.6014106   0.6150536   0.6245447
          139         140         141         142         143         144
    1   0.6308271   0.6343117   0.6438138   0.6506591   0.6503133   0.6520559
          145         146         147         148         149         150
    1   0.6546890   0.6555882   0.6601664   0.6576351   0.6762010   0.6834887
          151         152         153         154         155         156
    1   0.6839792   0.6905428   0.7202867   0.7208384   0.7269020   0.7462716
          157         158         159         160         161         162
    1   0.7495850   0.7570247   0.7698418   0.8025246   0.8184641   0.8222487
          163         164         165         166         167         168
    1   0.8256528   0.8282631   0.8257037   0.8407738   0.8482692   0.8475168
          169         170         171         172         173         174
    1   0.8478224   0.8624681   0.8833835   0.8908769   0.8948118   0.8988196
          175         176         177         178         179         180
    1   0.9028895   0.9124288   0.9230837   0.9287724   0.9350293   0.9301756
          181         182         183         184         185         186
    1   0.9351224   0.9345021   0.9424617   0.9511585   0.9521840   0.9606485
          187         188         189         190         191         192
    1   0.9795136   0.9786621   0.9873862   0.9964354   0.9997993   0.9960455
          193         194         195         196         197         198
    1   0.9980327   1.0120342   1.0488710   1.0530771   1.0600151   1.0684966
          199         200         201         202         203         204
    1   1.0699038   1.0810478   1.0947664   1.1077499   1.1154296   1.1085281
          205         206         207         208         209         210
    1   1.1136894   1.1122432   1.1199220   1.1364593   1.1605326   1.1754171
          211         212         213         214         215         216
    1   1.1811160   1.1951626   1.1955252   1.2050289   1.2260699   1.2301345
          217         218         219         220         221         222
    1   1.2346238   1.2352264   1.2585683   1.2771720   1.3211595   1.3250496
          223         224         225         226         227         228
    1   1.3552329   1.3592294   1.3682654   1.3726354   1.3691473   1.3742241
          229         230         231         232         233         234
    1   1.3805492   1.3922696   1.4195555   1.4308200   1.4322324   1.4417476
          235         236         237         238         239         240
    1   1.4492189   1.4548369   1.4573794   1.4703247   1.4770342   1.4930122
          241         242         243         244         245         246
    1   1.4967991   1.5066045   1.5102256   1.5131035   1.5319906   1.5414050
          247         248         249         250         251         252
    1   1.5558316   1.5558537   1.5683369   1.5975271   1.5999044   1.6053602
          253         254         255         256         257         258
    1   1.6137490   1.6478221   1.6591525   1.6670280   1.6749376   1.6973764
          259         260         261         262         263         264
    1   1.7005351   1.7058865   1.7137377   1.7228715   1.7324184   1.7358256
          265         266         267         268         269         270
    1   1.7522568   1.7703273   1.7763072   1.7786583   1.7811408   1.7835279
          271         272         273         274         275         276
    1   1.7986899   1.8014834   1.8158260   1.8165632   1.8235780   1.8290574
          277         278         279         280         281         282
    1   1.8517208   1.8522446   1.8705458   1.8788296   1.8907902   1.8859715
          283         284         285         286         287         288
    1   1.9105664   1.9391244   1.9422382   1.9450864   1.9449164   1.9535794
          289         290         291         292         293         294
    1   1.9728154   1.9700295   1.9806071   1.9806300   1.9856562   1.9928431
          295         296         297         298         299         300
    1   2.0056358   2.0088779   2.0379365   2.0484469   2.0494769   2.0611018
          301         302         303         304         305         306
    1   2.0736074   2.0867298   2.1242168   2.1429032   2.1584286   2.1574801
          307         308         309         310         311         312
    1   2.1757036   2.1877802   2.1958772   2.1972612   2.2066562   2.2270913
          313         314         315         316         317         318
    1   2.2306268   2.2341528   2.2397872   2.2724766   2.2751686   2.2875566
          319         320         321         322         323         324
    1   2.3006454   2.3036254   2.3469705   2.3532017   2.3707142   2.3730738
          325         326         327         328         329         330
    1   2.4223738   2.4381685   2.4370528   2.4522239   2.4727958   2.4766125
          331         332         333         334         335         336
    1   2.4795736   2.5010924   2.5017126   2.5078267   2.5141619   2.5148755
          337         338         339         340         341         342
    1   2.5259808   2.5318746   2.5370367   2.5576434   2.5568970   2.6051460
          343         344         345         346         347         348
    1   2.6147390   2.6165128   2.6340002   2.6363370   2.6452884   2.6533252
          349         350         351         352         353         354
    1   2.6718457   2.7050605   2.7335447   2.7409110   2.7557716   2.7651586
          355         356         357         358         359         360
    1   2.7695763   2.7801276   2.7855852   2.8040914   2.8410452   2.8451437
          361         362         363         364         365         366
    1   2.8471629   2.8668694   2.8699790   2.8753767   2.8738758   2.9134597
          367         368         369         370         371         372
    1   2.9264371   2.9300530   2.9456340   2.9624734   2.9661897   2.9735053
          373         374         375         376         377         378
    1   2.9792519   2.9829382   2.9835987   2.9905911   2.9953378   2.9984687
          379         380         381         382         383         384
    1   3.0462589   3.0553986   3.0569431   3.0606749   3.0653002   3.0698120
          385         386         387         388         389         390
    1   3.0757577   3.0773562   3.1067999   3.1082841   3.1162845   3.1118430
          391         392         393         394         395         396
    1   3.1143294   3.1258787   3.1289978   3.1443454   3.1465810   3.1607166
          397         398         399         400         401         402
    1   3.1622383   3.1759479   3.1840141   3.1902627   3.1877451   3.1981476
          403         404         405         406         407         408
    1   3.1998199   3.1994033   3.2174162   3.2156883   3.2282139   3.2297775
          409         410         411         412         413         414
    1   3.2508089   3.2617317   3.2623565   3.2652322   3.2749406   3.2744186
          415         416         417         418         419         420
    1   3.2843355   3.2952020   3.3018026   3.3080332   3.3157244   3.3213257
          421         422         423         424         425         426
    1   3.3211242   3.3572134   3.3613317   3.3693538   3.3701878   3.3796280
          427         428         429         430         431         432
    1   3.3851805   3.3902125   3.3915163   3.4012515   3.4036498   3.4119155
          433         434         435         436         437         438
    1   3.4209515   3.4335481   3.4341093   3.4619011   3.4649897   3.4672283
          439         440         441         442         443         444
    1   3.4702102   3.4925833   3.5109309   3.5111102   3.5113092   3.5182076
          445         446         447         448         449         450
    1   3.5174260   3.5290479   3.5545412   3.5577161   3.5660739   3.5748191
          451         452         453         454         455         456
    1   3.5790677   3.5869969   3.5880367   3.6043176   3.6066857   3.6281746
          457         458         459         460         461         462
    1   3.6306457   3.6398583   3.6417330   3.6593878   3.6663321   3.6685090
          463         464         465         466         467         468
    1   3.6728398   3.6686764   3.6743324   3.7016662   3.7041790   3.7134374
          469         470         471         472         473         474
    1   3.7197783   3.7189792   3.7292728   3.7357215   3.7580186   3.7624944
          475         476         477         478         479         480
    1   3.7801448   3.7809428   3.7938278   3.8056562   3.8033438   3.8049050
          481         482         483         484         485         486
    1   3.8118566   3.8265570   3.8279996   3.8395034   3.8395921   3.8552247
          487         488         489         490         491         492
    1   3.8554531   3.8848525   3.8823279   3.8873845   3.9012200   3.9035000
          493         494         495         496         497         498
    1   3.9107799   3.9145215   3.9245890   3.9284931   3.9444070   3.9607147
          499         500         501         502         503         504
    1   3.9752495   3.9997755   4.0097882   4.0283854   4.0314150   4.0383102
          505         506         507         508         509         510
    1   4.0410621   4.0670988   4.1049761   4.1219184   4.1253772   4.1451282
          511         512         513         514         515         516
    1   4.1565779   4.1788966   4.1983708   4.2298230   4.2364523   4.2518764
          517         518         519         520         521         522
    1   4.2535325   4.2603419   4.2745048   4.2919762   4.3024456   4.3149629
          523         524         525         526         527         528
    1   4.3287181   4.3630284   4.3636873   4.3663271   4.3706670   4.3976905
          529         530         531         532         533         534
    1   4.4073125   4.4383485   4.4392593   4.4424574   4.4464803   4.4511729
          535         536         537         538         539         540
    1   4.4835198   4.5059950   4.5350143   4.5350324   4.5397973   4.5420557
          541         542         543         544         545         546
    1   4.5434594   4.5442880   4.5457772   4.5696359   4.5762878   4.5957300
          547         548         549         550         551         552
    1   4.5983968   4.6121175   4.6157646   4.6403222   4.6520958   4.6799170
          553         554         555         556         557         558
    1   4.7084108   4.7289743   4.7366839   4.7431830   4.7483301   4.7665996
          559         560         561         562         563         564
    1   4.7818911   4.7845903   4.8235508   4.8316615   4.8467326   4.8712203
          565         566         567         568         569         570
    1   4.8868635   4.9064705   4.9296642   4.9648171   5.0094629   5.0131770
          571         572         573         574         575         576
    1   5.0429766   5.0687572   5.0862870   5.0898147   5.1040340   5.1639206
          577         578         579         580         581         582
    1   5.1775115   5.1789375   5.1986474   5.2185584   5.2322619   5.2467074
          583         584         585         586         587         588
    1   5.2556176   5.2880625   5.3061357   5.3214472   5.3377305   5.3832709
          589         590         591         592         593         594
    1   5.4000783   5.4838869   5.5106944   5.5143134   5.5487328   5.5734224
          595         596         597         598         599         600
    1   5.6007427   5.6147872   5.6767477   5.6910022   5.7258887   5.7887398
          601         602         603         604         605         606
    1   5.8738496   5.8748298   5.9087717   5.9348690   5.9648674   6.0129691
          607         608         609         610         611         612
    1   6.0636189   6.0734552   6.1556886   6.1686372   6.3307696   6.6147658
          613         614         615         616         617         618
    1  22.9519479  23.5064183  23.7040384  23.7281912  23.8150051  23.8189446
          619         620         621         622         623         624
    1  23.8197663  23.8944743  23.9629193  23.9705276  23.9743947  24.0064921
          625         626         627         628         629         630
    1  24.0615098  24.1232197  24.3610688  24.3917848  24.7225892  24.9939232
 SCF time:   CPU 2255.37s  wall 2274.00s 
<S^2> =          2.000000000
 SCF   energy in the final basis set =     -688.8139744837
 Total energy in the final basis set =     -688.8139744837
  
     ##========================================##
     ||                                        ||
     ||              R A S M A N 2             ||
     ||________________________________________||
     ||                                        ||
     ||  Author:                               ||
     ||                                        ||
     ||        David Casanova (2010)           ||
     ||                                        ||
     ##========================================##
  
Setting single-point xc-functionals (if necessary)

  ***************************************************
  *  RAS-CI Dimensions:                             *
  *                                                 *
  *  Active Elec.:  14 ( 8, 6)   Active Orb.:  12   *
  *  Doubly Occ. :  53           Doubly Vir.: 565   *
  *  Frozen Occ. :  48           Frozen Vir.: 560   *
  *                                                 *
  *  Total CI configurations:   9053220             * 
  *    Active configurations:    457380             * 
  *      Hole configurations:   2976600             * 
  *  Particle configurations:   5619240             * 
  *                                                 *
  *   Requested states:       20                    *
  *  Spin multiplicity: Any multiplicity            *
  *                                                 *
  ***************************************************
-----------------------------------------
    Memory requirements of RASCI

 Each CI-vector requires     69.07 MiB 
 Max. subspace vectors           3000      

 Reduced Lists                0.03 MiB 
 Excitation Lists             0.06 MiB 
 Excitation Lists Sign        0.06 MiB 
 CI-space (Max)          208661.86 MiB 
 Integrals                  813.78 MiB 
 Memory required (Max)   208662.00 MiB 
 Memory available          7811.55 MiB 

 Q-Chem warning in module rasman2/ras_mem_check.C, line 162:

 Static memory may be insufficient to store the subspace vectors


    Disk requirements of RASCI

 Fock matrix                  6.06 MiB 
 2-electron integrals         0.85 MiB 
 CI-space                414423.52 MiB 
 Disk required           414430.43 MiB 
-----------------------------------------
  
RAS1 HF-like energy:           -669.2584829240
 Computing integrals
 Computing J and K matrices
 Computing addressing
 Making amplitude guesses
 
Direct CI diagonalization
 ---------------------------------------------------
 Iter    Rts Conv    Rts Left    Ttl Dev     Max Dev
 ---------------------------------------------------
   1         0          20      0.001417    0.000084
   2         0          20      0.000785    0.000056
   3         0          20      0.000569    0.000045
   4         0          20      0.000541    0.000051
   5         0          20      0.000646    0.000072
   6         0          20      0.000601    0.000059
   7         0          20      0.000550    0.000051
   8         0          20      0.000500    0.000043
   9         0          20      0.000427    0.000036
  10         1          19      0.000369    0.000033
  11         1          19      0.000347    0.000034
  12         1          19      0.000328    0.000037
  13         1          19      0.000300    0.000037
  14         1          19      0.000256    0.000032
  15         2          18      0.000220    0.000018
  16         2          18      0.000181    0.000020
  17         4          16      0.000150    0.000018
  18         4          16      0.000122    0.000016
  19         5          15      0.000101    0.000018
  20         6          14      0.000084    0.000020
  21         7          13      0.000071    0.000019
  22         7          13      0.000060    0.000017
  23         8          12      0.000050    0.000014
  24        10          10      0.000041    0.000011
  25        10          10      0.000034    0.000010
  26        15           5      0.000030    0.000010
  27        15           5      0.000026    0.000010
  28        16           4      0.000023    0.000009
  29        17           3      0.000020    0.000008
  30        17           3      0.000017    0.000006
  31        18           2      0.000014    0.000005
  32        18           2      0.000013    0.000004
  33        18           2      0.000012    0.000003
  34        19           1      0.000011    0.000003
  35        19           1      0.000010    0.000002
  36        19           1      0.000010    0.000002
  37        19           1      0.000010    0.000002
  38        19           1      0.000009    0.000001
  39        19           1      0.000009    0.000001
  40        20           0      0.000009    0.000001    Roots Converged
 ---------------------------------------------------
   
**************************************************
 RAS-CI total energy for state   1:   -688.878692596127
  Excitation energy (eV) =  0.000000000000
  State symmetry: A1  (C1       )
  <S^2>      :  2.0000
  Dipole Moment:   -0.0000 X     0.0000 Y     0.0005 Z
 NATURAL OCCUPATION NUMBERS (higher than 1.0E-05)
            1           2           3           4           5           6
    1   2.0000000   2.0000000   2.0000000   2.0000000   2.0000000   2.0000000
            7           8           9          10          11          12
    1   2.0000000   2.0000000   2.0000000   2.0000000   2.0000000   2.0000000
           13          14          15          16          17          18
    1   2.0000000   2.0000000   2.0000000   2.0000000   2.0000000   2.0000000
           19          20          21          22          23          24
    1   2.0000000   2.0000000   2.0000000   2.0000000   2.0000000   2.0000000
           25          26          27          28          29          30
    1   2.0000000   2.0000000   2.0000000   2.0000000   2.0000000   2.0000000
           31          32          33          34          35          36
    1   2.0000000   2.0000000   2.0000000   2.0000000   2.0000000   2.0000000
           37          38          39          40          41          42
    1   2.0000000   2.0000000   2.0000000   2.0000000   2.0000000   2.0000000
           43          44          45          46          47          48
    1   2.0000000   2.0000000   2.0000000   2.0000000   2.0000000   2.0000000
           49          50          51          52          53          54
    1   2.0000000   2.0000000   2.0000000   2.0000000   1.9976556   1.9904154
           55          56          57          58          59          60
    1   1.9788807   1.9724437   1.9663944   1.9656040   1.9312952   1.0329976
           61          62          63          64          65          66
    1   0.9792386   0.0793789   0.0397011   0.0366737   0.0292909   0.0000299
Natural Orbitals stored in FCHK

  Amplitudes : 
  
 | HOLE  | ALPHA        | BETA         | PART  |    AMPLITUDE 
--------------------------------------------------
 |       | 111111110000 | 111111000000 |       |     9.3148695672407E-01
 |       | 111111101000 | 111110100000 |       |    -1.4227991663204E-01
--------------------------------------------------
*** Contributions RASCI wfn    Active:  99.66
                                 Hole:   0.34
                                 Part:   0.00

      Mulliken population analysis 
 ---------------------------------------------------
   Atom    Charge (a.u.)   Spin (a.u.)  
 ---------------------------------------------------
   1  C    0.236065       -0.005513 
   2  C   -0.374022        0.360543 
   3  H    0.122178        0.002088 
   4  C   -0.374290        0.360407 
   5  H    0.122133        0.002088 
   6  C    0.230865        0.022307 
   7  C   -0.227853        0.068458 
   8  H    0.123781        0.000378 
   9  C   -0.116844        0.048699 
  10  H    0.123660        0.000348 
  11  C   -0.116614        0.048696 
  12  H    0.123662        0.000348 
  13  C   -0.227942        0.068463 
  14  H    0.123761        0.000378 
  15  C    0.230962        0.022312 
  16  C    0.230805        0.022307 
  17  C   -0.227420        0.068467 
  18  H    0.123801        0.000378 
  19  C   -0.116989        0.048696 
  20  H    0.123686        0.000348 
  21  C   -0.116602        0.048698 
  22  H    0.123733        0.000348 
  23  C   -0.228205        0.068463 
  24  H    0.123786        0.000378 
  25  C    0.231148        0.022302 
  26  C   -0.374084        0.360439 
  27  H    0.122154        0.002088 
  28  C    0.236065       -0.005514 
  29  C   -0.373665        0.360513 
  30  H    0.122286        0.002088 
 ---------------------------------------------------
   Sum:    0.000000        2.000000 
 ---------------------------------------------------
 
  
 NATURAL OCCUPATION NUMBERS (higher than 1.0E-05)
            1           2           3           4           5           6
    1   2.0000000   2.0000000   2.0000000   2.0000000   2.0000000   2.0000000
            7           8           9          10          11          12
    1   2.0000000   2.0000000   2.0000000   2.0000000   2.0000000   2.0000000
           13          14          15          16          17          18
    1   2.0000000   2.0000000   2.0000000   2.0000000   2.0000000   2.0000000
           19          20          21          22          23          24
    1   2.0000000   2.0000000   2.0000000   2.0000000   2.0000000   2.0000000
           25          26          27          28          29          30
    1   2.0000000   2.0000000   2.0000000   2.0000000   2.0000000   2.0000000
           31          32          33          34          35          36
    1   2.0000000   2.0000000   2.0000000   2.0000000   2.0000000   2.0000000
           37          38          39          40          41          42
    1   2.0000000   2.0000000   2.0000000   2.0000000   2.0000000   2.0000000
           43          44          45          46          47          48
    1   2.0000000   2.0000000   2.0000000   2.0000000   2.0000000   2.0000000
           49          50          51          52          53          54
    1   2.0000000   2.0000000   2.0000000   2.0000000   1.9976556   1.9904154
           55          56          57          58          59          60
    1   1.9788807   1.9724437   1.9663944   1.9656040   1.9312952   1.0329976
           61          62          63          64          65          66
    1   0.9792386   0.0793789   0.0397011   0.0366737   0.0292909   0.0000299
  
*** Unpaired Electrons
 Yamaguchi Nd:         2.74
 Head-Gordon Nu:       2.33
 Head-Gordon Nu_nl:    2.07
  
**************************************************
 RAS-CI total energy for state   2:   -688.801700943745
  Excitation energy (eV) =  2.095049454086
  State symmetry: A1  (C1       )
  <S^2>      :  2.0000
  Dipole Moment:    0.0000 X     0.0000 Y     0.0005 Z
  Trans. Moment:   -0.2126 X    -0.0001 Y     0.0000 Z
  Strength   :  0.002319
  Natural transition orbitals ( 1 -> 2 ):
   e-/hole pair  1 alpha:  ampl =  0.644024 ( 41.5%)   [12 : 13]
   e-/hole pair  2 alpha:  ampl =  0.114147 (  1.3%)   [11 : 14]
   e-/hole pair  1 beta :  ampl =  0.595150 ( 35.4%)   [12 : 13]
   e-/hole pair  2 beta :  ampl =  0.114599 (  1.3%)   [11 : 14]
   Sum of square amplitudes: 0.81

 NATURAL OCCUPATION NUMBERS (higher than 1.0E-05)
            1           2           3           4           5           6
    1   2.0000000   2.0000000   2.0000000   2.0000000   2.0000000   2.0000000
            7           8           9          10          11          12
    1   2.0000000   2.0000000   2.0000000   2.0000000   2.0000000   2.0000000
           13          14          15          16          17          18
    1   2.0000000   2.0000000   2.0000000   2.0000000   2.0000000   2.0000000
           19          20          21          22          23          24
    1   2.0000000   2.0000000   2.0000000   2.0000000   2.0000000   2.0000000
           25          26          27          28          29          30
    1   2.0000000   2.0000000   2.0000000   2.0000000   2.0000000   2.0000000
           31          32          33          34          35          36
    1   2.0000000   2.0000000   2.0000000   2.0000000   2.0000000   2.0000000
           37          38          39          40          41          42
    1   2.0000000   2.0000000   2.0000000   2.0000000   2.0000000   2.0000000
           43          44          45          46          47          48
    1   2.0000000   2.0000000   2.0000000   2.0000000   2.0000000   2.0000000
           49          50          51          52          53          54
    1   2.0000000   2.0000000   2.0000000   1.9999999   1.9957898   1.9884806
           55          56          57          58          59          60
    1   1.9748293   1.9558498   1.9515401   1.9439566   1.5311703   1.4308063
           61          62          63          64          65          66
    1   0.5433460   0.5303356   0.0610761   0.0491171   0.0436692   0.0000329
Natural Orbitals stored in FCHK

  Amplitudes : 
  
 | HOLE  | ALPHA        | BETA         | PART  |    AMPLITUDE 
--------------------------------------------------
 |       | 111111110000 | 111110100000 |       |     5.7707541886051E-01
 |       | 111111110000 | 101111100000 |       |     1.5024070020011E-01
 |       | 111111101000 | 111111000000 |       |    -6.1823157858628E-01
 |       | 111111101000 | 111011100000 |       |     1.8685119558838E-01
 |       | 111111100010 | 111110100000 |       |    -1.8942777227285E-01
 |       | 111111100001 | 111111000000 |       |     1.6795786628012E-01
--------------------------------------------------
*** Contributions RASCI wfn    Active:  99.22
                                 Hole:   0.78
                                 Part:   0.00

      Mulliken population analysis 
 ---------------------------------------------------
   Atom    Charge (a.u.)   Spin (a.u.)  
 ---------------------------------------------------
   1  C    0.226643        0.108903 
   2  C   -0.381849        0.229411 
   3  H    0.121995        0.001447 
   4  C   -0.382120        0.229362 
   5  H    0.121950        0.001447 
   6  C    0.238397       -0.000194 
   7  C   -0.221279        0.150905 
   8  H    0.123568        0.001024 
   9  C   -0.117937        0.062521 
  10  H    0.123582        0.000465 
  11  C   -0.117707        0.062536 
  12  H    0.123585        0.000465 
  13  C   -0.221371        0.150901 
  14  H    0.123548        0.001024 
  15  C    0.238493       -0.000200 
  16  C    0.238337       -0.000204 
  17  C   -0.220847        0.150896 
  18  H    0.123588        0.001024 
  19  C   -0.118081        0.062531 
  20  H    0.123608        0.000465 
  21  C   -0.117693        0.062514 
  22  H    0.123655        0.000465 
  23  C   -0.221629        0.150900 
  24  H    0.123574        0.001024 
  25  C    0.238681       -0.000197 
  26  C   -0.381919        0.229355 
  27  H    0.121970        0.001447 
  28  C    0.226643        0.108910 
  29  C   -0.381488        0.229407 
  30  H    0.122103        0.001447 
 ---------------------------------------------------
   Sum:    0.000000        2.000000 
 ---------------------------------------------------
 
  
 NATURAL OCCUPATION NUMBERS (higher than 1.0E-05)
            1           2           3           4           5           6
    1   2.0000000   2.0000000   2.0000000   2.0000000   2.0000000   2.0000000
            7           8           9          10          11          12
    1   2.0000000   2.0000000   2.0000000   2.0000000   2.0000000   2.0000000
           13          14          15          16          17          18
    1   2.0000000   2.0000000   2.0000000   2.0000000   2.0000000   2.0000000
           19          20          21          22          23          24
    1   2.0000000   2.0000000   2.0000000   2.0000000   2.0000000   2.0000000
           25          26          27          28          29          30
    1   2.0000000   2.0000000   2.0000000   2.0000000   2.0000000   2.0000000
           31          32          33          34          35          36
    1   2.0000000   2.0000000   2.0000000   2.0000000   2.0000000   2.0000000
           37          38          39          40          41          42
    1   2.0000000   2.0000000   2.0000000   2.0000000   2.0000000   2.0000000
           43          44          45          46          47          48
    1   2.0000000   2.0000000   2.0000000   2.0000000   2.0000000   2.0000000
           49          50          51          52          53          54
    1   2.0000000   2.0000000   2.0000000   1.9999999   1.9957898   1.9884806
           55          56          57          58          59          60
    1   1.9748293   1.9558498   1.9515401   1.9439566   1.5311703   1.4308063
           61          62          63          64          65          66
    1   0.5433460   0.5303356   0.0610761   0.0491171   0.0436692   0.0000329
  
*** Unpaired Electrons
 Yamaguchi Nd:         3.77
 Head-Gordon Nu:       2.46
 Head-Gordon Nu_nl:    2.47
  
**************************************************
 RAS-CI total energy for state   3:   -688.764591734261
  Excitation energy (eV) =  3.104842420820
  State symmetry: A1  (C1       )
  <S^2>      :  2.0000
  Dipole Moment:    0.0000 X     0.0000 Y     0.0006 Z
  Trans. Moment:    0.0000 X     0.0000 Y     0.0000 Z
  Strength   :  0.000000
  Natural transition orbitals ( 1 -> 3 ):
   e-/hole pair  1 alpha:  ampl =  0.438171 ( 19.2%)   [12 : 13]
   e-/hole pair  2 alpha:  ampl =  0.339461 ( 11.5%)   [11 : 14]
   e-/hole pair  1 beta :  ampl =  0.607376 ( 36.9%)   [12 : 13]
   e-/hole pair  2 beta :  ampl =  0.349993 ( 12.2%)   [11 : 14]
   Sum of square amplitudes: 0.84

 NATURAL OCCUPATION NUMBERS (higher than 1.0E-05)
            1           2           3           4           5           6
    1   2.0000000   2.0000000   2.0000000   2.0000000   2.0000000   2.0000000
            7           8           9          10          11          12
    1   2.0000000   2.0000000   2.0000000   2.0000000   2.0000000   2.0000000
           13          14          15          16          17          18
    1   2.0000000   2.0000000   2.0000000   2.0000000   2.0000000   2.0000000
           19          20          21          22          23          24
    1   2.0000000   2.0000000   2.0000000   2.0000000   2.0000000   2.0000000
           25          26          27          28          29          30
    1   2.0000000   2.0000000   2.0000000   2.0000000   2.0000000   2.0000000
           31          32          33          34          35          36
    1   2.0000000   2.0000000   2.0000000   2.0000000   2.0000000   2.0000000
           37          38          39          40          41          42
    1   2.0000000   2.0000000   2.0000000   2.0000000   2.0000000   2.0000000
           43          44          45          46          47          48
    1   2.0000000   2.0000000   2.0000000   2.0000000   2.0000000   2.0000000
           49          50          51          52          53          54
    1   2.0000000   2.0000000   2.0000000   1.9999999   1.9942769   1.9823605
           55          56          57          58          59          60
    1   1.9624434   1.9490715   1.9400368   1.7968447   1.5583981   1.3155177
           61          62          63          64          65          66
    1   0.9138620   0.2656763   0.2273371   0.0577055   0.0364089   0.0000598
Natural Orbitals stored in FCHK

  Amplitudes : 
  
 | HOLE  | ALPHA        | BETA         | PART  |    AMPLITUDE 
--------------------------------------------------
 |       | 111111110000 | 111110010000 |       |    -3.3287703477479E-01
 |       | 111111110000 | 111101100000 |       |     5.9116555112173E-01
 |       | 111111110000 | 011111100000 |       |    -1.2651177153029E-01
 |       | 111111101000 | 110111100000 |       |     1.4018790790000E-01
 |       | 111111100100 | 111111000000 |       |     4.2228846832751E-01
 |       | 111111100010 | 111101100000 |       |    -1.1723052820894E-01
 |       | 111111011000 | 111111000000 |       |    -3.2040739917173E-01
--------------------------------------------------
*** Contributions RASCI wfn    Active:  99.08
                                 Hole:   0.91
                                 Part:   0.01

      Mulliken population analysis 
 ---------------------------------------------------
   Atom    Charge (a.u.)   Spin (a.u.)  
 ---------------------------------------------------
   1  C    0.273534        0.123311 
   2  C   -0.423178        0.184242 
   3  H    0.121898        0.001083 
   4  C   -0.423464        0.184181 
   5  H    0.121852        0.001083 
   6  C    0.263527        0.087843 
   7  C   -0.240851        0.070613 
   8  H    0.123579        0.000462 
   9  C   -0.105484        0.093451 
  10  H    0.123550        0.000692 
  11  C   -0.105243        0.093483 
  12  H    0.123552        0.000692 
  13  C   -0.240946        0.070607 
  14  H    0.123559        0.000462 
  15  C    0.263614        0.087812 
  16  C    0.263458        0.087806 
  17  C   -0.240421        0.070603 
  18  H    0.123598        0.000462 
  19  C   -0.105620        0.093474 
  20  H    0.123576        0.000692 
  21  C   -0.105241        0.093444 
  22  H    0.123623        0.000692 
  23  C   -0.241201        0.070610 
  24  H    0.123584        0.000462 
  25  C    0.263812        0.087834 
  26  C   -0.423262        0.184189 
  27  H    0.121873        0.001083 
  28  C    0.273534        0.123308 
  29  C   -0.422818        0.184243 
  30  H    0.122006        0.001083 
 ---------------------------------------------------
   Sum:    0.000000        2.000000 
 ---------------------------------------------------
 
  
 NATURAL OCCUPATION NUMBERS (higher than 1.0E-05)
            1           2           3           4           5           6
    1   2.0000000   2.0000000   2.0000000   2.0000000   2.0000000   2.0000000
            7           8           9          10          11          12
    1   2.0000000   2.0000000   2.0000000   2.0000000   2.0000000   2.0000000
           13          14          15          16          17          18
    1   2.0000000   2.0000000   2.0000000   2.0000000   2.0000000   2.0000000
           19          20          21          22          23          24
    1   2.0000000   2.0000000   2.0000000   2.0000000   2.0000000   2.0000000
           25          26          27          28          29          30
    1   2.0000000   2.0000000   2.0000000   2.0000000   2.0000000   2.0000000
           31          32          33          34          35          36
    1   2.0000000   2.0000000   2.0000000   2.0000000   2.0000000   2.0000000
           37          38          39          40          41          42
    1   2.0000000   2.0000000   2.0000000   2.0000000   2.0000000   2.0000000
           43          44          45          46          47          48
    1   2.0000000   2.0000000   2.0000000   2.0000000   2.0000000   2.0000000
           49          50          51          52          53          54
    1   2.0000000   2.0000000   2.0000000   1.9999999   1.9942769   1.9823605
           55          56          57          58          59          60
    1   1.9624434   1.9490715   1.9400368   1.7968447   1.5583981   1.3155177
           61          62          63          64          65          66
    1   0.9138620   0.2656763   0.2273371   0.0577055   0.0364089   0.0000598
  
*** Unpaired Electrons
 Yamaguchi Nd:         4.33
 Head-Gordon Nu:       3.00
 Head-Gordon Nu_nl:    2.83
  
**************************************************
 RAS-CI total energy for state   4:   -688.760299373487
  Excitation energy (eV) =  3.221643500112
  State symmetry: A1  (C1       )
  <S^2>      :  2.0000
  Dipole Moment:   -0.0001 X     0.0000 Y     0.0004 Z
  Trans. Moment:    0.0001 X     0.0000 Y     0.0001 Z
  Strength   :  0.000000
  Natural transition orbitals ( 1 -> 4 ):
   e-/hole pair  1 alpha:  ampl =  0.605673 ( 36.7%)   [12 : 13]
   e-/hole pair  2 alpha:  ampl =  0.108965 (  1.2%)   [11 : 14]
   e-/hole pair  1 beta :  ampl =  0.418138 ( 17.5%)   [12 : 13]
   e-/hole pair  2 beta :  ampl =  0.082498 (  0.7%)   [11 : 14]
   Sum of square amplitudes: 0.57

 NATURAL OCCUPATION NUMBERS (higher than 1.0E-05)
            1           2           3           4           5           6
    1   2.0000000   2.0000000   2.0000000   2.0000000   2.0000000   2.0000000
            7           8           9          10          11          12
    1   2.0000000   2.0000000   2.0000000   2.0000000   2.0000000   2.0000000
           13          14          15          16          17          18
    1   2.0000000   2.0000000   2.0000000   2.0000000   2.0000000   2.0000000
           19          20          21          22          23          24
    1   2.0000000   2.0000000   2.0000000   2.0000000   2.0000000   2.0000000
           25          26          27          28          29          30
    1   2.0000000   2.0000000   2.0000000   2.0000000   2.0000000   2.0000000
           31          32          33          34          35          36
    1   2.0000000   2.0000000   2.0000000   2.0000000   2.0000000   2.0000000
           37          38          39          40          41          42
    1   2.0000000   2.0000000   2.0000000   2.0000000   2.0000000   2.0000000
           43          44          45          46          47          48
    1   2.0000000   2.0000000   2.0000000   2.0000000   2.0000000   2.0000000
           49          50          51          52          53          54
    1   2.0000000   2.0000000   2.0000000   1.9999999   1.9939822   1.9872113
           55          56          57          58          59          60
    1   1.9672805   1.9545043   1.9513196   1.7512845   1.7158327   1.3962328
           61          62          63          64          65          66
    1   0.5616989   0.3286017   0.3017992   0.0470703   0.0431518   0.0000297
Natural Orbitals stored in FCHK

  Amplitudes : 
  
 | HOLE  | ALPHA        | BETA         | PART  |    AMPLITUDE 
--------------------------------------------------
 |       | 111111110000 | 111111000000 |       |     1.2192651888736E-01
 |       | 111111110000 | 111011100000 |       |     4.0031279072558E-01
 |       | 111111101000 | 111110100000 |       |     3.6833751002768E-01
 |       | 111111101000 | 101111100000 |       |    -1.7071510119328E-01
 |       | 111111100010 | 111111000000 |       |     5.7551721617788E-01
 |       | 111111100010 | 111011100000 |       |    -3.1737255350492E-01
 |       | 111111100001 | 111110100000 |       |     2.1367950371405E-01
 |       | 111111010010 | 111011010000 |       |     1.0656588429458E-01
 |       | 110111110010 | 111111000000 |       |    -1.0890263101966E-01
--------------------------------------------------
*** Contributions RASCI wfn    Active:  98.70
                                 Hole:   1.30
                                 Part:   0.01

      Mulliken population analysis 
 ---------------------------------------------------
   Atom    Charge (a.u.)   Spin (a.u.)  
 ---------------------------------------------------
   1  C    0.237363        0.007475 
   2  C   -0.376622        0.121941 
   3  H    0.122167        0.000770 
   4  C   -0.376897        0.121895 
   5  H    0.122122        0.000770 
   6  C    0.230150        0.051264 
   7  C   -0.228212        0.258712 
   8  H    0.122995        0.002057 
   9  C   -0.112943        0.061037 
  10  H    0.123588        0.000466 
  11  C   -0.112712        0.061000 
  12  H    0.123591        0.000466 
  13  C   -0.228300        0.258707 
  14  H    0.122975        0.002057 
  15  C    0.230243        0.051311 
  16  C    0.230083        0.051317 
  17  C   -0.227778        0.258764 
  18  H    0.123015        0.002057 
  19  C   -0.113090        0.061009 
  20  H    0.123614        0.000466 
  21  C   -0.112702        0.061043 
  22  H    0.123661        0.000466 
  23  C   -0.228564        0.258769 
  24  H    0.123000        0.002057 
  25  C    0.230430        0.051276 
  26  C   -0.376694        0.121922 
  27  H    0.122142        0.000770 
  28  C    0.237363        0.007476 
  29  C   -0.376264        0.121909 
  30  H    0.122275        0.000770 
 ---------------------------------------------------
   Sum:    0.000000        2.000000 
 ---------------------------------------------------
 
  
 NATURAL OCCUPATION NUMBERS (higher than 1.0E-05)
            1           2           3           4           5           6
    1   2.0000000   2.0000000   2.0000000   2.0000000   2.0000000   2.0000000
            7           8           9          10          11          12
    1   2.0000000   2.0000000   2.0000000   2.0000000   2.0000000   2.0000000
           13          14          15          16          17          18
    1   2.0000000   2.0000000   2.0000000   2.0000000   2.0000000   2.0000000
           19          20          21          22          23          24
    1   2.0000000   2.0000000   2.0000000   2.0000000   2.0000000   2.0000000
           25          26          27          28          29          30
    1   2.0000000   2.0000000   2.0000000   2.0000000   2.0000000   2.0000000
           31          32          33          34          35          36
    1   2.0000000   2.0000000   2.0000000   2.0000000   2.0000000   2.0000000
           37          38          39          40          41          42
    1   2.0000000   2.0000000   2.0000000   2.0000000   2.0000000   2.0000000
           43          44          45          46          47          48
    1   2.0000000   2.0000000   2.0000000   2.0000000   2.0000000   2.0000000
           49          50          51          52          53          54
    1   2.0000000   2.0000000   2.0000000   1.9999999   1.9939822   1.9872113
           55          56          57          58          59          60
    1   1.9672805   1.9545043   1.9513196   1.7512845   1.7158327   1.3962328
           61          62          63          64          65          66
    1   0.5616989   0.3286017   0.3017992   0.0470703   0.0431518   0.0000297
  
*** Unpaired Electrons
 Yamaguchi Nd:         4.10
 Head-Gordon Nu:       2.56
 Head-Gordon Nu_nl:    2.39
  
**************************************************
 RAS-CI total energy for state   5:   -688.750576163404
  Excitation energy (eV) =  3.486225507984
  State symmetry: A1  (C1       )
  <S^2>      :  2.0000
  Dipole Moment:    0.0001 X     0.0000 Y     0.0004 Z
  Trans. Moment:    0.6044 X    -0.0000 Y    -0.0000 Z
  Strength   :  0.031202
  Natural transition orbitals ( 1 -> 5 ):
   e-/hole pair  1 alpha:  ampl =  0.705725 ( 49.8%)   [12 : 13]
   e-/hole pair  2 alpha:  ampl =  0.106888 (  1.1%)   [11 : 14]
   e-/hole pair  1 beta :  ampl =  0.394633 ( 15.6%)   [12 : 13]
   e-/hole pair  2 beta :  ampl =  0.066023 (  0.4%)   [11 : 14]
   Sum of square amplitudes: 0.68

 NATURAL OCCUPATION NUMBERS (higher than 1.0E-05)
            1           2           3           4           5           6
    1   2.0000000   2.0000000   2.0000000   2.0000000   2.0000000   2.0000000
            7           8           9          10          11          12
    1   2.0000000   2.0000000   2.0000000   2.0000000   2.0000000   2.0000000
           13          14          15          16          17          18
    1   2.0000000   2.0000000   2.0000000   2.0000000   2.0000000   2.0000000
           19          20          21          22          23          24
    1   2.0000000   2.0000000   2.0000000   2.0000000   2.0000000   2.0000000
           25          26          27          28          29          30
    1   2.0000000   2.0000000   2.0000000   2.0000000   2.0000000   2.0000000
           31          32          33          34          35          36
    1   2.0000000   2.0000000   2.0000000   2.0000000   2.0000000   2.0000000
           37          38          39          40          41          42
    1   2.0000000   2.0000000   2.0000000   2.0000000   2.0000000   2.0000000
           43          44          45          46          47          48
    1   2.0000000   2.0000000   2.0000000   2.0000000   2.0000000   2.0000000
           49          50          51          52          53          54
[...]
  0.4817   0.4868   0.4894   0.4963   0.5040   0.5082   0.5124   0.5182
  0.5281   0.5354   0.5376   0.5419   0.5435   0.5623   0.5666   0.5658
  0.5698   0.5853   0.5854   0.5936   0.5944   0.6078   0.6210   0.6268
  0.6329   0.6392   0.6473   0.6481   0.6489   0.6495   0.6502   0.6515
  0.6550   0.6580   0.6813   0.6813   0.6890   0.7142   0.7143   0.7229
  0.7376   0.7474   0.7549   0.7662   0.7945   0.8075   0.8166   0.8222
  0.8218   0.8233   0.8384   0.8391   0.8442   0.8457   0.8587   0.8808
  0.8887   0.8913   0.8955   0.8949   0.9092   0.9181   0.9181   0.9181
  0.9273   0.9314   0.9323   0.9392   0.9486   0.9487   0.9483   0.9639
  0.9755   0.9857   0.9871   0.9913   0.9932   0.9946   1.0100   1.0386
  1.0500   1.0550   1.0657   1.0669   1.0794   1.0889   1.1018   1.1017
  1.1053   1.1038   1.1073   1.1173   1.1322   1.1499   1.1737   1.1794
  1.1881   1.1896   1.2009   1.2116   1.2257   1.2315   1.2325   1.2484
  1.2683   1.3164   1.3219   1.3526   1.3547   1.3594   1.3653   1.3673
  1.3717   1.3778   1.3792   1.4139   1.4250   1.4297   1.4398   1.4380
  1.4530   1.4552   1.4679   1.4755   1.4908   1.4914   1.5003   1.5068
  1.5084   1.5294   1.5379   1.5483   1.5530   1.5620   1.5947   1.5954
  1.5928   1.6092   1.6449   1.6563   1.6605   1.6731   1.6736   1.6875
  1.7041   1.7100   1.7215   1.7260   1.7341   1.7492   1.7643   1.7640
  1.7683   1.7771   1.7818   1.7958   1.7995   1.8087   1.8152   1.8118
  1.8278   1.8456   1.8508   1.8655   1.8729   1.8787   1.8826   1.9080
  1.9358   1.9364   1.9427   1.9436   1.9451   1.9572   1.9671   1.9746
  1.9747   1.9841   1.9887   2.0043   2.0075   2.0342   2.0444   2.0454
  2.0530   2.0707   2.0851   2.1138   2.1341   2.1543   2.1561   2.1697
  2.1857   2.1857   2.1937   2.1988   2.2226   2.2286   2.2307   2.2363
  2.2695   2.2730   2.2856   2.2983   2.3017   2.3425   2.3497   2.3638
  2.3710   2.4206   2.4327   2.4342   2.4474   2.4660   2.4710   2.4744
  2.4959   2.4979   2.5038   2.5090   2.5113   2.5205   2.5283   2.5344
  2.5531   2.5556   2.6033   2.6109   2.6142   2.6310   2.6325   2.6425
  2.6501   2.6648   2.6982   2.7318   2.7341   2.7536   2.7624   2.7671
  2.7732   2.7830   2.8002   2.8378   2.8374   2.8380   2.8647   2.8676
  2.8705   2.8718   2.9106   2.9250   2.9286   2.9426   2.9615   2.9604
  2.9721   2.9753   2.9756   2.9798   2.9882   2.9933   2.9953   3.0446
  3.0502   3.0529   3.0559   3.0634   3.0678   3.0741   3.0748   3.1012
  3.1060   3.1052   3.1082   3.1092   3.1231   3.1256   3.1397   3.1443
  3.1586   3.1589   3.1715   3.1823   3.1807   3.1849   3.1913   3.1909
  3.1965   3.2083   3.2124   3.2189   3.2269   3.2476   3.2536   3.2589
  3.2615   3.2665   3.2671   3.2797   3.2923   3.2915   3.3043   3.3125
  3.3157   3.3184   3.3549   3.3555   3.3639   3.3678   3.3755   3.3831
  3.3840   3.3875   3.3958   3.3965   3.4063   3.4175   3.4275   3.4310
  3.4590   3.4575   3.4646   3.4673   3.4907   3.5067   3.5080   3.5086
  3.5133   3.5154   3.5248   3.5511   3.5531   3.5620   3.5712   3.5769
  3.5745   3.5848   3.5986   3.6049   3.6153   3.6210   3.6386   3.6403
  3.6519   3.6604   3.6654   3.6651   3.6673   3.6706   3.7007   3.7027
  3.7103   3.7142   3.7174   3.7220   3.7337   3.7552   3.7596   3.7766
  3.7785   3.7907   3.7967   3.8000   3.8006   3.8095   3.8217   3.8258
  3.8342   3.8379   3.8523   3.8537   3.8791   3.8805   3.8853   3.8976
  3.9001   3.9054   3.9129   3.9201   3.9237   3.9420   3.9592   3.9737
  3.9982   4.0057   4.0272   4.0261   4.0367   4.0363   4.0631   4.1033
  4.1155   4.1203   4.1421   4.1533   4.1779   4.1953   4.2282   4.2339
  4.2496   4.2510   4.2580   4.2701   4.2886   4.3016   4.3140   4.3268
  4.3598   4.3618   4.3625   4.3658   4.3944   4.4023   4.4317   4.4376
  4.4405   4.4409   4.4497   4.4813   4.5024   4.5312   4.5313   4.5383
  4.5387   4.5399   4.5432   4.5426   4.5681   4.5741   4.5938   4.5962
  4.6107   4.6125   4.6380   4.6485   4.6772   4.7076   4.7277   4.7342
  4.7379   4.7471   4.7605   4.7800   4.7796   4.8196   4.8260   4.8444
  4.8674   4.8853   4.9045   4.9265   4.9627   5.0065   5.0110   5.0405
  5.0660   5.0834   5.0873   5.1025   5.1617   5.1760   5.1779   5.1973
  5.2172   5.2304   5.2421   5.2512   5.2865   5.3045   5.3189   5.3365
  5.3815   5.3986   5.4806   5.5095   5.5122   5.5478   5.5723   5.5978
  5.6131   5.6751   5.6902   5.7248   5.7876   5.8728   5.8730   5.9073
  5.9331   5.9639   6.0117   6.0613   6.0717   6.1538   6.1661   6.3295
  6.6133  22.9509  23.5060  23.7021  23.7278  23.8143  23.8165  23.8190
 23.8918  23.9626  23.9699  23.9733  24.0038  24.0599  24.1216  24.3594
 24.3899  24.7220  24.9934
 --------------------------------------------------------------
 
          Ground-State Mulliken Net Atomic Charges

     Atom                 Charge (a.u.)
  ----------------------------------------
      1 C                     0.239321
      2 C                    -0.370197
      3 H                     0.122250
      4 C                    -0.370492
      5 H                     0.122206
      6 C                     0.226693
      7 C                    -0.228802
      8 H                     0.123884
      9 C                    -0.117394
     10 H                     0.123713
     11 C                    -0.117162
     12 H                     0.123716
     13 C                    -0.228884
     14 H                     0.123864
     15 C                     0.226783
     16 C                     0.226629
     17 C                    -0.228362
     18 H                     0.123904
     19 C                    -0.117538
     20 H                     0.123740
     21 C                    -0.117153
     22 H                     0.123787
     23 C                    -0.229153
     24 H                     0.123890
     25 C                     0.226980
     26 C                    -0.370277
     27 H                     0.122226
     28 C                     0.239320
     29 C                    -0.369850
     30 H                     0.122358
  ----------------------------------------
  Sum of atomic charges =     0.000000

  Do orbital-by-orbital Lowdin population analysis
 
 
 Partial Mulliken analysis unavailable for frozen orbitals
 
 -----------------------------------------------------------------
                    Cartesian Multipole Moments
 -----------------------------------------------------------------
    Charge (ESU x 10^10)
                 0.0000
    Dipole Moment (Debye)
         X      -0.0002      Y      -0.0000      Z      -0.0011
       Tot       0.0011
    Quadrupole Moments (Debye-Ang)
        XX     -92.5336     XY       0.0001     YY     -90.7395
        XZ      -0.0007     YZ       0.0001     ZZ    -114.9360
    Octopole Moments (Debye-Ang^2)
       XXX       0.0012    XXY      -0.0005    XYY      -0.0001
       YYY      -0.0000    XXZ      -0.0777    XYZ      -0.3150
       YYZ       0.0012    XZZ      -0.0001    YZZ      -0.0001
       ZZZ       0.0002
    Hexadecapole Moments (Debye-Ang^3)
      XXXX   -5934.2938   XXXY      -0.0052   XXYY   -1137.9457
      XYYY       0.0004   YYYY    -881.4930   XXXZ      -0.0364
      XXYZ       0.0076   XYYZ       0.0001   YYYZ      -0.0003
      XXZZ   -1278.9634   XYZZ       0.0008   YYZZ    -209.9487
      XZZZ      -0.0008   YZZZ       0.0001   ZZZZ    -138.6103
 -----------------------------------------------------------------
 Mayer SCF Bond Order, atomic valence on the diagonal:

            1           2           3           4           5           6
    1   3.8293216   1.3808737  -0.0194158   1.3815106  -0.0194971  -0.0338259
    2   1.3808737   3.6244098   0.9905555   0.1133087   0.0082092   0.0165394
    3  -0.0194158   0.9905555   0.9766074   0.0082026   0.0027961   0.0008934
    4   1.3815106   0.1133087   0.0082026   3.6247574   0.9907828   1.0814669
    5  -0.0194971   0.0082092   0.0027961   0.9907828   0.9766148  -0.0274360
    6  -0.0338259   0.0165394   0.0008934   1.0814669  -0.0274360   3.7773525
    7   0.0226507   0.0158169   0.0000615  -0.0126628   0.0031183   1.4001912
    8   0.0010181  -0.0000394   0.0000545   0.0085669   0.0022884  -0.0285711
    9  -0.0017952   0.0019592   0.0000371   0.0136104   0.0001663  -0.0052435
   10   0.0001089   0.0000500   0.0000006   0.0005287   0.0000090   0.0057337
   11   0.0123644   0.0110777   0.0000656   0.0039227  -0.0001538   0.0437666
   12   0.0000437   0.0000826   0.0000010   0.0003427   0.0000179   0.0007620
   13  -0.0051157   0.0070838   0.0000506   0.0149179   0.0006414  -0.0185585
   14  -0.0004260   0.0000921  -0.0000067   0.0008865   0.0002872   0.0060785
   15   0.0158886   0.0006266  -0.0000078  -0.0198056   0.0062891   1.3271034
   16  -0.0339524   1.0820443  -0.0273295   0.0164927   0.0008952  -0.0007963
   17   0.0226200  -0.0125881   0.0031561   0.0158161   0.0000596   0.0007210
   18   0.0010202   0.0085845   0.0022977  -0.0000378   0.0000542   0.0001417
   19  -0.0017628   0.0135664   0.0001580   0.0019505   0.0000383   0.0007811
   20   0.0001138   0.0005235   0.0000085   0.0000493   0.0000006   0.0000225
   21   0.0122856   0.0040096  -0.0001482   0.0110868   0.0000647  -0.0000029
   22   0.0000442   0.0003417   0.0000172   0.0000826   0.0000009   0.0000091
   23  -0.0050060   0.0148830   0.0006339   0.0070402   0.0000496   0.0012499
   24  -0.0004156   0.0008829   0.0002857   0.0000881  -0.0000067  -0.0000209
   25   0.0156721  -0.0195302   0.0063042   0.0007023  -0.0000044   0.0035218
   26  -0.0263838  -0.0225718   0.0000930   0.0341078   0.0006495   0.0006962
   27   0.0068297   0.0000927   0.0001048   0.0006464   0.0002712  -0.0000072
   28   1.1241162  -0.0268617   0.0068176  -0.0265779   0.0068271   0.0155067
   29  -0.0270377   0.0341474   0.0006489  -0.0223658   0.0000902  -0.0196503
   30   0.0067952   0.0006495   0.0002713   0.0000971   0.0001059   0.0062799
            7           8           9          10          11          12
    1   0.0226507   0.0010181  -0.0017952   0.0001089   0.0123644   0.0000437
    2   0.0158169  -0.0000394   0.0019592   0.0000500   0.0110777   0.0000826
    3   0.0000615   0.0000545   0.0000371   0.0000006   0.0000656   0.0000010
    4  -0.0126628   0.0085669   0.0136104   0.0005287   0.0039227   0.0003427
    5   0.0031183   0.0022884   0.0001663   0.0000090  -0.0001538   0.0000179
    6   1.4001912  -0.0285711  -0.0052435   0.0057337   0.0437666   0.0007620
    7   3.9301316   0.9834019   1.4266275  -0.0139928   0.0457250   0.0057089
    8   0.9834019   0.9716912  -0.0093079  -0.0003519   0.0062327   0.0006593
    9   1.4266275  -0.0093079   3.9279450   0.9846244   1.4025283  -0.0121560
   10  -0.0139928  -0.0003519   0.9846244   0.9720373  -0.0121504  -0.0002058
   11   0.0457250   0.0062327   1.4025283  -0.0121504   3.9276627   0.9846535
   12   0.0057089   0.0006593  -0.0121560  -0.0002058   0.9846535   0.9720337
   13   0.0472973   0.0006329   0.0458571   0.0057106   1.4264611  -0.0140242
   14   0.0006338   0.0000228   0.0062330   0.0006598  -0.0092922  -0.0003515
   15  -0.0186502   0.0060829   0.0437055   0.0007693  -0.0053305   0.0057496
   16   0.0006932   0.0001428   0.0008048   0.0000228  -0.0000247   0.0000086
   17   0.0018812  -0.0000004   0.0003455   0.0000028   0.0014638   0.0000136
   18  -0.0000000   0.0000045   0.0000072   0.0000001   0.0000090   0.0000003
   19   0.0003496   0.0000074   0.0009800   0.0000076   0.0002225   0.0000020
   20   0.0000032   0.0000001   0.0000073   0.0000002   0.0000021   0.0000002
   21   0.0014636   0.0000089   0.0002211   0.0000019   0.0009799   0.0000074
   22   0.0000136   0.0000003   0.0000021   0.0000002   0.0000074   0.0000002
   23   0.0009061   0.0000233   0.0014645   0.0000139   0.0003468   0.0000030
   24   0.0000234   0.0000012   0.0000089   0.0000003   0.0000073   0.0000001
   25   0.0012471  -0.0000217  -0.0000172   0.0000089   0.0007898   0.0000229
   26   0.0070610   0.0000895   0.0110919   0.0000822   0.0019486   0.0000493
   27   0.0000511  -0.0000067   0.0000647   0.0000010   0.0000386   0.0000006
   28  -0.0050645  -0.0004194   0.0123074   0.0000478  -0.0018046   0.0001173
   29   0.0149401   0.0008851   0.0039589   0.0003371   0.0136434   0.0005171
   30   0.0006359   0.0002864  -0.0001482   0.0000166   0.0001620   0.0000076
           13          14          15          16          17          18
    1  -0.0051157  -0.0004260   0.0158886  -0.0339524   0.0226200   0.0010202
    2   0.0070838   0.0000921   0.0006266   1.0820443  -0.0125881   0.0085845
    3   0.0000506  -0.0000067  -0.0000078  -0.0273295   0.0031561   0.0022977
    4   0.0149179   0.0008865  -0.0198056   0.0164927   0.0158161  -0.0000378
    5   0.0006414   0.0002872   0.0062891   0.0008952   0.0000596   0.0000542
    6  -0.0185585   0.0060785   1.3271034  -0.0007963   0.0007210   0.0001417
    7   0.0472973   0.0006338  -0.0186502   0.0006932   0.0018812  -0.0000000
    8   0.0006329   0.0000228   0.0060829   0.0001428  -0.0000004   0.0000045
    9   0.0458571   0.0062330   0.0437055   0.0008048   0.0003455   0.0000072
   10   0.0057106   0.0006598   0.0007693   0.0000228   0.0000028   0.0000001
   11   1.4264611  -0.0092922  -0.0053305  -0.0000247   0.0014638   0.0000090
   12  -0.0140242  -0.0003515   0.0057496   0.0000086   0.0000136   0.0000003
   13   3.9299094   0.9833904   1.3999364   0.0012556   0.0009005   0.0000227
   14   0.9833904   0.9717220  -0.0285344  -0.0000203   0.0000226   0.0000012
   15   1.3999364  -0.0285344   3.7782101   0.0035446   0.0012497  -0.0000202
   16   0.0012556  -0.0000203   0.0035446   3.7779375   1.3998366  -0.0285031
   17   0.0009005   0.0000226   0.0012497   1.3998366   3.9299852   0.9832853
   18   0.0000227   0.0000012  -0.0000202  -0.0285031   0.9832853   0.9717093
   19   0.0014647   0.0000092  -0.0000216  -0.0051344   1.4268354  -0.0092612
   20   0.0000136   0.0000003   0.0000088   0.0057367  -0.0139550  -0.0003481
   21   0.0003445   0.0000071   0.0007966   0.0435847   0.0457259   0.0062299
   22   0.0000030   0.0000001   0.0000226   0.0007570   0.0056975   0.0006623
   23   0.0018844   0.0000001   0.0006772  -0.0183749   0.0473654   0.0006331
   24  -0.0000004   0.0000045   0.0001441   0.0060765   0.0006335   0.0000230
   25   0.0007076   0.0001398  -0.0007703   1.3271102  -0.0187505   0.0060726
   26   0.0158214  -0.0000351   0.0164438  -0.0197886   0.0149635   0.0008829
   27   0.0000589   0.0000542   0.0008911   0.0063068   0.0006335   0.0002855
   28   0.0227041   0.0010229  -0.0337762   0.0159578  -0.0051075  -0.0004251
   29  -0.0127090   0.0085521   1.0824480   0.0006020   0.0071050   0.0000937
   30   0.0031568   0.0022901  -0.0272506  -0.0000113   0.0000526  -0.0000066
           19          20          21          22          23          24
    1  -0.0017628   0.0001138   0.0122856   0.0000442  -0.0050060  -0.0004156
    2   0.0135664   0.0005235   0.0040096   0.0003417   0.0148830   0.0008829
    3   0.0001580   0.0000085  -0.0001482   0.0000172   0.0006339   0.0002857
    4   0.0019505   0.0000493   0.0110868   0.0000826   0.0070402   0.0000881
    5   0.0000383   0.0000006   0.0000647   0.0000009   0.0000496  -0.0000067
    6   0.0007811   0.0000225  -0.0000029   0.0000091   0.0012499  -0.0000209
    7   0.0003496   0.0000032   0.0014636   0.0000136   0.0009061   0.0000234
    8   0.0000074   0.0000001   0.0000089   0.0000003   0.0000233   0.0000012
    9   0.0009800   0.0000073   0.0002211   0.0000021   0.0014645   0.0000089
   10   0.0000076   0.0000002   0.0000019   0.0000002   0.0000139   0.0000003
   11   0.0002225   0.0000021   0.0009799   0.0000074   0.0003468   0.0000073
   12   0.0000020   0.0000002   0.0000074   0.0000002   0.0000030   0.0000001
   13   0.0014647   0.0000136   0.0003445   0.0000030   0.0018844  -0.0000004
   14   0.0000092   0.0000003   0.0000071   0.0000001   0.0000001   0.0000045
   15  -0.0000216   0.0000088   0.0007966   0.0000226   0.0006772   0.0001441
   16  -0.0051344   0.0057367   0.0435847   0.0007570  -0.0183749   0.0060765
   17   1.4268354  -0.0139550   0.0457259   0.0056975   0.0473654   0.0006335
   18  -0.0092612  -0.0003481   0.0062299   0.0006623   0.0006331   0.0000230
   19   3.9285025   0.9845407   1.4027527  -0.0120382   0.0457205   0.0062286
   20   0.9845407   0.9720488  -0.0120985  -0.0001989   0.0057055   0.0006606
   21   1.4027527  -0.0120985   3.9277987   0.9844151   1.4267095  -0.0092543
   22  -0.0120382  -0.0001989   0.9844151   0.9720300  -0.0138922  -0.0003456
   23   0.0457205   0.0057055   1.4267095  -0.0138922   3.9307764   0.9833111
   24   0.0062286   0.0006606  -0.0092543  -0.0003456   0.9833111   0.9717393
   25   0.0438729   0.0007664  -0.0054241   0.0057300   1.4004848  -0.0285260
   26   0.0039136   0.0003388   0.0136658   0.0005232  -0.0127395   0.0085969
   27  -0.0001467   0.0000173   0.0001548   0.0000085   0.0031590   0.0023024
   28   0.0123389   0.0000466  -0.0018076   0.0001152   0.0226450   0.0010179
   29   0.0110625   0.0000819   0.0019801   0.0000502   0.0158185  -0.0000420
   30   0.0000645   0.0000009   0.0000380   0.0000005   0.0000607   0.0000538
           25          26          27          28          29          30
    1   0.0156721  -0.0263838   0.0068297   1.1241162  -0.0270377   0.0067952
    2  -0.0195302  -0.0225718   0.0000927  -0.0268617   0.0341474   0.0006495
    3   0.0063042   0.0000930   0.0001048   0.0068176   0.0006489   0.0002713
    4   0.0007023   0.0341078   0.0006464  -0.0265779  -0.0223658   0.0000971
    5  -0.0000044   0.0006495   0.0002712   0.0068271   0.0000902   0.0001059
    6   0.0035218   0.0006962  -0.0000072   0.0155067  -0.0196503   0.0062799
    7   0.0012471   0.0070610   0.0000511  -0.0050645   0.0149401   0.0006359
    8  -0.0000217   0.0000895  -0.0000067  -0.0004194   0.0008851   0.0002864
    9  -0.0000172   0.0110919   0.0000647   0.0123074   0.0039589  -0.0001482
   10   0.0000089   0.0000822   0.0000010   0.0000478   0.0003371   0.0000166
   11   0.0007898   0.0019486   0.0000386  -0.0018046   0.0136434   0.0001620
   12   0.0000229   0.0000493   0.0000006   0.0001173   0.0005171   0.0000076
   13   0.0007076   0.0158214   0.0000589   0.0227041  -0.0127090   0.0031568
   14   0.0001398  -0.0000351   0.0000542   0.0010229   0.0085521   0.0022901
   15  -0.0007703   0.0164438   0.0008911  -0.0337762   1.0824480  -0.0272506
   16   1.3271102  -0.0197886   0.0063068   0.0159578   0.0006020  -0.0000113
   17  -0.0187505   0.0149635   0.0006335  -0.0051075   0.0071050   0.0000526
   18   0.0060726   0.0008829   0.0002855  -0.0004251   0.0000937  -0.0000066
   19   0.0438729   0.0039136  -0.0001467   0.0123389   0.0110625   0.0000645
   20   0.0007664   0.0003388   0.0000173   0.0000466   0.0000819   0.0000009
   21  -0.0054241   0.0136658   0.0001548  -0.0018076   0.0019801   0.0000380
   22   0.0057300   0.0005232   0.0000085   0.0001152   0.0000502   0.0000005
   23   1.4004848  -0.0127395   0.0031590   0.0226450   0.0158185   0.0000607
   24  -0.0285260   0.0085969   0.0023024   0.0010179  -0.0000420   0.0000538
   25   3.7776361   1.0815031  -0.0273964  -0.0340171   0.0165333   0.0009044
   26   1.0815031   3.6241991   0.9906412   1.3809729   0.1133648   0.0082169
   27  -0.0273964   0.9906412   0.9766098  -0.0194479   0.0082054   0.0027953
   28  -0.0340171   1.3809729  -0.0194479   3.8295017   1.3815494  -0.0192995
   29   0.0165333   0.1133648   0.0082054   1.3815494   3.6251540   0.9903439
   30   0.0009044   0.0082169   0.0027953  -0.0192995   0.9903439   0.9765697


 Total job time:  396611.36s(wall), 332425.59s(cpu) 
 Sun Oct 29 04:23:14 2023

        *************************************************************
        *                                                           *
        *  Thank you very much for using Q-Chem.  Have a nice day.  *
        *                                                           *
        *************************************************************


