                  Welcome to Q-Chem
     A Quantum Leap Into The Future Of Chemistry


 Q-Chem 6.0 (devel), Q-Chem, Inc., Pleasanton, CA (2022)

 E. Epifanovsky,  A. T. B. Gilbert,  Xintian Feng,  Joonho Lee,  Yuezhi Mao,  
 N. Mardirossian,  P. Pokhilko,  A. White,  M. Wormit,  M. P. Coons,  
 A. L. Dempwolff,  Zhengting Gan,  D. Hait,  P. R. Horn,  L. D. Jacobson,  
 I. Kaliman,  J. Kussmann,  A. W. Lange,  Ka Un Lao,  D. S. Levine,  Jie Liu,  
 S. C. McKenzie,  A. F. Morrison,  K. Nanda,  F. Plasser,  D. R. Rehn,  
 M. L. Vidal,  Zhi-Qiang You,  Ying Zhu,  B. Alam,  B. Albrecht,  
 A. Aldossary,  E. Alguire,  J. H. Andersen,  V. Athavale,  D. Barton,  
 K. Begam,  A. Behn,  N. Bellonzi,  Y. A. Bernard,  E. J. Berquist,  
 H. Burton,  A. Carreras,  K. Carter-Fenk,  Romit Chakraborty,  
 Chandrima Chakravarty,  Junhan Chen,  A. D. Chien,  K. D. Closser,  
 V. Cofer-Shabica,  L. Cunha,  S. Dasgupta,  Jia Deng,  M. de Wergifosse,  
 M. Diedenhofen,  Hainam Do,  S. Ehlert,  Po-Tung Fang,  S. Fatehi,  
 Qingguo Feng,  T. Friedhoff,  B. Ganoe,  J. Gayvert,  Qinghui Ge,  
 G. Gidofalvi,  M. Goldey,  J. Gomes,  C. Gonzalez-Espinoza,  S. Gulania,  
 A. Gunina,  J. A. Gyamfi,  M. W. D. Hanson-Heine,  P. H. P. Harbach,  
 A. W. Hauser,  M. F. Herbst,  M. Hernandez Vera,  M. Hodecker,  
 Z. C. Holden,  S. Houck,  Xunkun Huang,  Kerwin Hui,  B. C. Huynh,  
 K. Ikeda,  M. Ivanov,  Hyunjun Ji,  Zuxin Jin,  Hanjie Jiang,  B. Kaduk,  
 S. Kaehler,  R. Kang,  K. Khistyaev,  Jaehoon Kim,  Yongbin Kim,  
 P. Klunzinger,  Z. Koczor-Benda,  Joong Hoon Koh,  D. Kosenkov,  
 Saikiran Kotaru,  L. Koulias,  T. Kowalczyk,  C. M. Krauter,  K. Kue,  
 A. Kunitsa,  T. Kus,  A. Landau,  K. V. Lawler,  D. Lefrancois,  S. Lehtola,  
 Rain Li,  Shaozhi Li,  Yi-Pei Li,  Jiashu Liang,  M. Liebenthal,  
 Hung-Hsuan Lin,  You-Sheng Lin,  Fenglai Liu,  Kuan-Yu Liu,  
 M. Loipersberger,  A. Luenser,  C. Malbon,  A. Manjanath,  P. Manohar,  
 E. Mansoor,  S. F. Manzer,  Shan-Ping Mao,  A. V. Marenich,  T. Markovich,  
 S. Mason,  F. Matz,  S. A. Maurer,  P. F. McLaughlin,  M. F. S. J. Menger,  
 J.-M. Mewes,  S. A. Mewes,  P. Morgante,  Mohammad Mostafanejad,  
 J. W. Mullinax,  K. J. Oosterbaan,  G. Paran,  V. Parravicini,  
 Alexander C. Paul,  Suranjan K. Paul,  F. Pavosevic,  Zheng Pei,  S. Prager,  
 E. I. Proynov,  E. Ramos,  B. Rana,  A. E. Rask,  A. Rettig,  R. M. Richard,  
 F. Rob,  E. Rossomme,  T. Scheele,  M. Scheurer,  M. Schneider,  
 P. E. Schneider,  N. Sergueev,  S. M. Sharada,  Hengyuan Shen,  
 W. Skomorowski,  D. W. Small,  C. J. Stein,  Yingli Su,  Yu-Chuan Su,  
 E. J. Sundstrom,  Zhen Tao,  J. Thirman,  Hung-Yi Tsai,  T. Tsuchimochi,  
 N. M. Tubman,  C. Utku,  S. P. Veccham,  O. Vydrov,  J. Wenzel,  
 Jonathan Wong,  J. Witte,  A. Yamada,  Chou-Hsun Yang,  Kun Yao,  
 S. Yeganeh,  S. R. Yost,  A. Zech,  F. Zeller,  Igor Ying Zhang,  
 Xing Zhang,  Yu Zhang,  D. Zuev,  A. Aspuru-Guzik,  A. T. Bell,  
 N. A. Besley,  K. B. Bravaya,  B. R. Brooks,  D. Casanova,  Jeng-Da Chai,  
 Hsing-Ta Chen,  S. Coriani,  C. J. Cramer,  A. E. DePrince, III,  
 R. A. DiStasio Jr.,  A. Dreuw,  B. D. Dunietz,  T. R. Furlani,  
 W. A. Goddard III,  S. Grimme,  S. Hammes-Schiffer,  T. Head-Gordon,  
 W. J. Hehre,  Chao-Ping Hsu,  T.-C. Jagau,  Yousung Jung,  A. Klamt,  
 Jing Kong,  D. S. Lambrecht,  Xiangyuan Li,  WanZhen Liang,  N. J. Mayhall,  
 C. W. McCurdy,  J. B. Neaton,  T. Neudecker,  C. Ochsenfeld,  
 J. A. Parkhill,  R. Peverati,  V. A. Rassolov,  Haisheng Ren,  Yihan Shao,  
 L. V. Slipchenko,  R. P. Steele,  J. E. Subotnik,  A. J. W. Thom,  
 A. Tkatchenko,  D. G. Truhlar,  T. Van Voorhis,  Fan Wang,  
 T. A. Wesolowski,  K. B. Whaley,  H. L. Woodcock III,  P. M. Zimmerman,  
 S. Faraji,  P. M. W. Gill,  M. Head-Gordon,  J. M. Herbert,  A. I. Krylov

 Contributors to earlier versions of Q-Chem not listed above: 
 R. D. Adamson,  B. Austin,  R. Baer,  J. Baker,  G. J. O. Beran,  
 K. Brandhorst,  S. T. Brown,  E. F. C. Byrd,  Arup K. Chakraborty,  
 G. K. L. Chan,  Chun-Min Chang,  Yunqing Chen,  C.-L. Cheng,  
 Siu Hung Chien,  D. M. Chipman,  D. L. Crittenden,  H. Dachsel,  
 R. J. Doerksen,  A. D. Dutoi,  R. G. Edgar,  J. Fosso-Tande,  
 L. Fusti-Molnar,  D. Ghosh,  A. Ghysels,  A. Golubeva-Zadorozhnaya,  
 J. Gonthier,  M. S. Gordon,  S. R. Gwaltney,  G. Hawkins,  J. E. Herr,  
 A. Heyden,  S. Hirata,  E. G. Hohenstein,  G. Kedziora,  F. J. Keil,  
 C. Kelley,  Jihan Kim,  R. A. King,  R. Z. Khaliullin,  P. P. Korambath,  
 W. Kurlancheek,  A. Laurent,  A. M. Lee,  M. S. Lee,  S. V. Levchenko,  
 Ching Yeh Lin,  D. Liotard,  E. Livshits,  R. C. Lochan,  I. Lotan,  
 L. A. Martinez-Martinez,  P. E. Maslen,  N. Nair,  D. P. O'Neill,  
 D. Neuhauser,  E. Neuscamman,  C. M. Oana,  R. Olivares-Amaya,  R. Olson,  
 T. M. Perrine,  B. Peters,  P. A. Pieniazek,  A. Prociuk,  Y. M. Rhee,  
 J. Ritchie,  M. A. Rohrdanz,  E. Rosta,  N. J. Russ,  H. F. Schaefer III,  
 M. W. Schmidt,  N. E. Schultz,  S. Sharma,  N. Shenvi,  C. D. Sherrill,  
 A. C. Simmonett,  A. Sodt,  T. Stein,  D. Stuck,  K. S. Thanthiriwatte,  
 V. Vanovschi,  L. Vogt,  Tao Wang,  A. Warshel,  M. A. Watson,  
 C. F. Williams,  Q. Wu,  X. Xu,  Jun Yang,  W. Zhang,  Yan Zhao

   Please cite Q-Chem as follows:
  "Software for the frontiers of quantum chemistry:
   An overview of developments in the Q-Chem 5 package"
   J. Chem. Phys. 155, 084801 (2021)
   https://doi.org/10.1063/5.0055522 (open access)

 Q-Chem 6.0.1 for Intel X86 EM64T Linux

 Parts of Q-Chem use Armadillo 9.900.5 (Nocturnal Misbehaviour).
 http://arma.sourceforge.net/

 Q-Chem begins on Wed Sep  6 18:38:24 2023  

 Host: atlas-130
0

     Scratch files written to ./qchem14475//
 Processing $rem in /scratch/abel/SOFTWARE/qchem/config/preferences:
 Processing $rem in /dipc/acebg/.qchemrc:

 Checking the input file for inconsistencies... 	...done.

--------------------------------------------------------------
User input:
--------------------------------------------------------------
$comment
 RAS-SF CALCULATION
$end

$molecule
 READ triangulene.molecule
$end

$rem
!**CALCULATION TYPE***     
JOBTYPE            sp    
EXCHANGE           HF
CORRELATION        RASCI    !RASCI=Casanova; RASCI2=Zimmerman
BASIS              6-311G(d,p)

!***SCF REFERENCE***
!SKIP_SCFMAN        FALSE
UNRESTRICTED       FALSE
!SCF_GUESS          core
!SCF_GUESS_MIX      FALSE
!SCF_GUESS_ALWAYS   FALSE
MAX_SCF_CYCLES     500
!SCF_CONVERGENCE    8
!SCF_ALGORITHM      DIIS !DIIS,DM,DIIS_DM,GDM,DIIS_GDM,GD

!SYMMETRY           TRUE   !use of symmetry for calculating integrals
!SYM_IGNORE         FALSE  !turn off using symmetry
!SYM_TOL            5      !tolerance for determining point group
!USE_ABELIAN_SUBGROUP      !define to use abelian group

!THRESH             14
SCF_FINAL_PRINT     1 !0,1,2,3

!****RAS-SF****
RAS_ROOTS          20       !number of RAS-CI roots to be computed
SET_ITER           60     !number of iterations in RASCI
RAS_ELEC           10       !number of electrons in RAS2
!RAS_ELEC_ALPHA     5       !spin-α electrons in RAS2 
!RAS_ELEC_BETA      5       !spin-β electrons in RAS2

RAS_ACT            10       !number of orbitals in RAS2 
RAS_ACT_ORB  [68, 69, 70, 71, 72, 73, 74, 75, 76, 77]  !user-selected RAS2 orbitals
RAS_OCC            67       !number of orbitals in RAS1
N_FROZEN_CORE      47     !Number of frozen core orbitals
N_FROZEN_VIRTUAL   371      !Number of frozen virtual orbitals

RAS_DO_HOLE        TRUE   !presence of hole excitations in RAS-CI wave function
RAS_DO_PART        TRUE   !presence of particle excitations
!RAS_AMPL_PRINT     10     !threshold (×10 2 ) for the CI amplitudes

!RAS_GUESS_CS       0      !number of closed shell guess conﬁgurations
!RAS_SPIN_MULT      0      !spin multiplicity. Only for Ms = 0 
!RAS_SRDFT          FALSE  !short-range density functional RAS-CI
!RAS_NFRAG          0     !fragments of excitation analysis in RASCI

RAS_PRINT          2      !level of information
RAS_NATORB         TRUE   !computation of the natural orbital occupancies
!RAS_NATORB_STATE  0      !Saves NO of i RAS computed state in .fchk ﬁle
!RAS_FOD            TRUE

!****RAS-SOC****
CALC_SOC           TRUE   !calculate SOC for EOM-CC, RAS-CI, ADC, TDDFT/TDA and TDDFT
!RAS_SOC_2E        TRUE   !two-electron mean-ﬁeld contribution, default=true
RAS_SOC_SYM_DENS   TRUE   !averaging of α and β densities

!****MEMORY****
MEM_TOTAL          12000 !Default 2000 MB
MEM_STATIC         3000  !Default 64 MB

!**Molecular Properties and Analysis **                                                                                          
POP_MULLIKEN       TRUE   !Run Mulliken population analysis
LOWDIN_POPULATION  TRUE   !Run Löwdin population analysis
GUI                2       !Checkpoints generation
STATE_ANALYSIS     TRUE

!**Wave function analysis of RAS-CI states: MOLDEN**
!PLOTS = 0     ! Note: This can be omitted, default is 0
!NTO_PAIRS = 2 ! Note: This can be omitted, default is 2
!GUI 0
!MOLDEN_FORMAT      TRUE
!PRINT_ORBITALS     15

!**Wave function analysis of RAS-CI state: CUBE**
!NTO_PAIRS = 2 ! Note: This can be omitted, default is 2
!PLOTS = 1
!GUI 0

!**SR-DFT**
!RAS_SRDFT           TRUE !Perform short-range density functional RAS-CI
!RAS_SRDFT_EXC       0 !EX functional. 0=HF. 
!RAS_SRDFT_ONLY_COR  TRUE !No use of EXC functional
!RAS_SRDFT_COR       srPBE !short-range correlation functional
!ras_srdft_0         TRUE !true: no iteration (one-shot); false: iteration
!RAS_OMEGA           400 !Coulomb range-separation parameter. def=400
!RAS_SRDFT_DAMP     0.5 !dumping factor. def=0.5
$end

!$plots
!   grid_points 100 100 100
!   grid_range  (-10,10) (-10,10) (-10,10)
!$end

--------------------------------------------------------------
 ----------------------------------------------------------------
             Standard Nuclear Orientation (Angstroms)
    I     Atom           X                Y                Z
 ----------------------------------------------------------------
    1      C      -1.2066300005    -0.0000000000     3.5476002776
    2      C       1.2364999997     0.0000000000     2.1311702780
    3      C       1.2066299995     0.0000000000     3.5476002780
    4      C      -0.0000000006     0.0000000000     4.2323902778
    5      C      -0.0000000000     0.0000000000     0.0000002778
    6      C       2.4423599998     0.0000000000     1.4101002781
    7      C       2.4639000000     0.0000000000     0.0052602781
    8      C       2.4689900004     0.0000000000    -2.8187697219
    9      C       3.6653600003     0.0000000000    -2.1161997217
   10      C       3.6756300001     0.0000000000    -0.7288297217
   11      H      -2.1452600006    -0.0000000000     4.0900102775
   12      H       2.1452599994     0.0000000000     4.0900102781
   13      H      -0.0000000008     0.0000000000     5.3160102778
   14      H       3.3822099997     0.0000000000     1.9527202783
   15      H       2.4694200006     0.0000000000    -3.9028597219
   16      H       4.6038000004     0.0000000000    -2.6579997215
   17      H       4.6146800000     0.0000000000    -0.1871497215
   18      C      -2.4423600002    -0.0000000000     1.4101002774
   19      C      -0.0000000002     0.0000000000     1.4186802778
   20      C      -1.2365000003    -0.0000000000     2.1311702776
   21      H      -3.3822100003    -0.0000000000     1.9527202773
   22      C       1.2286100001     0.0000000000    -0.7093397220
   23      C       1.2273900003     0.0000000000    -2.1364297220
   24      C       0.0000000004    -0.0000000000    -2.8201997222
   25      H       0.0000000006    -0.0000000000    -3.9054297222
   26      C      -3.6756299999    -0.0000000000    -0.7288297228
   27      C      -3.6653599997    -0.0000000000    -2.1161997228
   28      C      -2.4689899996    -0.0000000000    -2.8187697226
   29      C      -1.2273899997    -0.0000000000    -2.1364297224
   30      C      -1.2286099999    -0.0000000000    -0.7093397224
   31      C      -2.4639000000    -0.0000000000     0.0052602774
   32      H      -4.6146800000    -0.0000000000    -0.1871497229
   33      H      -4.6037999996    -0.0000000000    -2.6579997229
   34      H      -2.4694199994    -0.0000000000    -3.9028597226
 ----------------------------------------------------------------
 Molecular Point Group                 C2v   NOp =  4
 Largest Abelian Subgroup              C2v   NOp =  4
 Nuclear Repulsion Energy =        1589.09947594 hartrees
 There are       73 alpha and       71 beta electrons
 Requested basis set is 6-311G(d,p)
 There are 158 shells and 468 basis functions

 Total QAlloc Memory Limit  12000 MB
 Mega-Array Size      2933 MB
 MEM_STATIC part      3000 MB

 A cutoff of  1.0D-09 yielded   7074 shell pairs
 There are     68605 function pairs (     74947 Cartesian)
 Smallest overlap matrix eigenvalue = 2.90E-05

 Q-Chem warning in module stvman/mkSTV.C, line 313:

 Overlap eigenvalue is smaller than square root of threshold
 Use THRESH >= 12 to get rid of this warning


 Scale SEOQF with 1.000000e-01/1.000000e+00/1.000000e-02

 Standard Electronic Orientation quadrupole field applied
 Nucleus-field energy     =     0.0000000186 hartrees
 Guess from superposition of atomic densities
 Warning:  Energy on first SCF cycle will be non-variational
 SAD guess density has 144.000000 electrons

 -----------------------------------------------------------------------
  General SCF calculation program by
  Eric Jon Sundstrom, Paul Horn, Yuezhi Mao, Dmitri Zuev, Alec White,
  David Stuck, Shaama M.S., Shane Yost, Joonho Lee, David Small,
  Daniel Levine, Susi Lehtola, Hugh Burton, Evgeny Epifanovsky,
  Bang C. Huynh
 -----------------------------------------------------------------------
 Hartree-Fock
 Orthonormalizing orbitals
 A restricted open-shell SCF calculation will be
 performed using GDM
 SCF converges when RMS gradient is below 1.0e-05
 ---------------------------------------
  Cycle       Energy        RMS Gradient
 ---------------------------------------
    1    -837.2012332129      3.01e-01   Descent step
    2    -837.9653553204      2.41e-01   Descent step
    3    -838.6093704088      1.97e-01   Descent step
    4    -839.1395180298      1.58e-01   Descent step
    5    -839.5613780240      1.21e-01   Descent step
    6    -839.8801887441      8.71e-02   Descent step
    7    -840.1010408908      5.58e-02   Descent step
    8    -840.2291164246      2.97e-02   Normal BFGS step
    9    -840.2709343163      4.89e-03   Normal BFGS step
   10    -840.2712085339      1.62e-03   Normal BFGS step
   11    -840.2712310621      1.37e-03   Normal BFGS step
   12    -840.2712407447      2.27e-04   Normal BFGS step
   13    -840.2712406035      1.01e-04  Line search: overstep
   14    -840.2712408626      1.52e-04   Normal BFGS step
   15    -840.2712410335      4.68e-05   Normal BFGS step
   16    -840.2712411785      1.72e-05   Normal BFGS step
   17    -840.2712412133      5.46e-06  Convergence criterion met
The disked orbital energies are calculated using alpha and beta Focks
 ---------------------------------------
 Alpha HF Exchange    Energy = -59.74055330707841
 Beta HF Exchange     Energy = -58.85401058548058
 Nuclear Attraction   Energy =   0.00000000000000
 One-Electron (alpha) Energy = -2171.12329457187752
 One-Electron (beta)  Energy = -2123.83300864390276
 Total Coulomb        Energy = 1984.18014993614725
 Final Alpha MO Eigenvalues
            1           2           3           4           5           6
    1 -11.2497144 -11.2492887 -11.2492883 -11.2492036 -11.2491179 -11.2491175
            7           8           9          10          11          12
    1 -11.2490572 -11.2467057 -11.2467053 -11.2464280 -11.2434872 -11.2434939
           13          14          15          16          17          18
    1 -11.2434887 -11.2413119 -11.2413113 -11.2413142 -11.2416177 -11.2416164
           19          20          21          22          23          24
    1 -11.2416156 -11.2397110 -11.2397110 -11.2397108  -1.2162655  -1.1686889
           25          26          27          28          29          30
    1  -1.1686870  -1.1002009  -1.1010760  -1.1010753  -1.0268957  -1.0183342
           31          32          33          34          35          36
    1  -1.0183340  -1.0140029  -0.9266024  -0.9266015  -0.8639171  -0.8618521
           37          38          39          40          41          42
    1  -0.8618518  -0.8224072  -0.7613985  -0.7554138  -0.7554132  -0.7179583
           43          44          45          46          47          48
    1  -0.7179583  -0.6629620  -0.6629619  -0.6502303  -0.6365501  -0.6365500
           49          50          51          52          53          54
    1  -0.6247200  -0.6017123  -0.5874441  -0.5874440  -0.5755259  -0.5830521
           55          56          57          58          59          60
    1  -0.5586493  -0.5586488  -0.5380437  -0.5211231  -0.5211222  -0.5272088
           61          62          63          64          65          66
    1  -0.5272073  -0.5091869  -0.4679109  -0.4679106  -0.4411636  -0.4476861
           67          68          69          70          71          72
    1  -0.4476857  -0.3400320  -0.3400317  -0.3538421  -0.3413488  -0.2163206
           73          74          75          76          77          78
    1  -0.2163199   0.0795355   0.1034984   0.1034991   0.0995671   0.1519783
           79          80          81          82          83          84
    1   0.1589533   0.1589547   0.1734801   0.1734836   0.1903713   0.1983950
           85          86          87          88          89          90
    1   0.2176446   0.2176511   0.2146143   0.2132141   0.2132146   0.2603316
           91          92          93          94          95          96
    1   0.2603354   0.2761689   0.3444495   0.3444506   0.3668461   0.3668561
           97          98          99         100         101         102
    1   0.3901099   0.4120844   0.4120883   0.4261656   0.4360067   0.4375231
          103         104         105         106         107         108
    1   0.4375234   0.4496921   0.4558732   0.4692158   0.4727210   0.4727252
          109         110         111         112         113         114
    1   0.4830413   0.4830516   0.5123029   0.5123033   0.5469185   0.5501412
          115         116         117         118         119         120
    1   0.5537098   0.5564710   0.5564858   0.5619655   0.5619659   0.5771537
          121         122         123         124         125         126
    1   0.5883528   0.5883534   0.5959205   0.5959206   0.6032216   0.6072061
          127         128         129         130         131         132
    1   0.6085808   0.6086030   0.6193877   0.6193969   0.6343762   0.6405781
          133         134         135         136         137         138
    1   0.6462883   0.6468987   0.6469208   0.6594215   0.6594255   0.6614100
          139         140         141         142         143         144
    1   0.6614102   0.6591983   0.6722745   0.6723057   0.6754506   0.6853669
          145         146         147         148         149         150
    1   0.6959520   0.7126603   0.7126689   0.7246244   0.7246243   0.7289974
          151         152         153         154         155         156
    1   0.7289975   0.7454093   0.7454540   0.7686087   0.7716252   0.7798784
          157         158         159         160         161         162
    1   0.8091792   0.8091822   0.8100633   0.8150622   0.8368896   0.8400169
          163         164         165         166         167         168
    1   0.8400547   0.8410739   0.8410741   0.8498664   0.8642170   0.8737135
          169         170         171         172         173         174
    1   0.8737222   0.8778575   0.8778795   0.9321992   0.9321993   0.9344817
          175         176         177         178         179         180
    1   0.9411318   0.9411333   0.9420836   0.9746974   0.9747035   0.9828957
          181         182         183         184         185         186
    1   1.0170978   1.0226313   1.0226386   1.0309559   1.0393484   1.0393872
          187         188         189         190         191         192
    1   1.0766490   1.0817044   1.0817110   1.0849007   1.0985174   1.1037167
          193         194         195         196         197         198
    1   1.1037428   1.1277914   1.1277927   1.1486784   1.1486789   1.1559377
          199         200         201         202         203         204
    1   1.1559516   1.1667225   1.1780167   1.1932460   1.1933192   1.2258602
          205         206         207         208         209         210
    1   1.2321965   1.2339962   1.2353711   1.2353724   1.2525064   1.2525201
          211         212         213         214         215         216
    1   1.2765552   1.2765553   1.2992684   1.3102824   1.3103525   1.3129303
          217         218         219         220         221         222
    1   1.3109443   1.3109445   1.3206342   1.3442216   1.3631037   1.3712091
          223         224         225         226         227         228
    1   1.3712091   1.3758984   1.3924846   1.3925075   1.4171213   1.4171218
          229         230         231         232         233         234
    1   1.4283151   1.4283300   1.4541276   1.4541848   1.5140850   1.5272463
          235         236         237         238         239         240
    1   1.5277654   1.5662330   1.5961456   1.5964666   1.6001131   1.6161691
          241         242         243         244         245         246
    1   1.6507167   1.6508685   1.6980326   1.7055807   1.7055866   1.7151796
          247         248         249         250         251         252
    1   1.7129131   1.7129132   1.7229862   1.7326177   1.7327161   1.7350848
          253         254         255         256         257         258
    1   1.7407789   1.7407791   1.7697656   1.8038890   1.8116448   1.8116462
          259         260         261         262         263         264
    1   1.8141357   1.8141619   1.8155396   1.8238610   1.8389718   1.8390051
          265         266         267         268         269         270
    1   1.8791415   1.8818096   1.8818646   1.9213862   1.9214022   1.9331964
          271         272         273         274         275         276
    1   1.9331979   1.9517105   1.9526656   1.9527544   1.9598160   1.9867910
          277         278         279         280         281         282
    1   2.0066652   2.0158534   2.0158544   2.0510437   2.0510452   2.0680335
          283         284         285         286         287         288
    1   2.0934648   2.0934661   2.0996516   2.1038565   2.1038689   2.1085269
          289         290         291         292         293         294
    1   2.1145340   2.1652522   2.1653143   2.1814550   2.1823507   2.1823517
          295         296         297         298         299         300
    1   2.1863366   2.1863791   2.1989783   2.1989817   2.2087794   2.2087814
          301         302         303         304         305         306
    1   2.2132382   2.2138723   2.2279706   2.2280718   2.2413653   2.2413655
          307         308         309         310         311         312
    1   2.2443011   2.2444053   2.2932214   2.2932605   2.3336931   2.3597654
          313         314         315         316         317         318
    1   2.3598111   2.3774416   2.3774424   2.3823678   2.3851048   2.4354392
          319         320         321         322         323         324
    1   2.4465383   2.4735543   2.4790442   2.4790455   2.4941363   2.5089365
          325         326         327         328         329         330
    1   2.5089450   2.5454706   2.5454770   2.5669858   2.5669876   2.5912451
          331         332         333         334         335         336
    1   2.6319988   2.6319989   2.6509308   2.6509284   2.6514729   2.6748611
          337         338         339         340         341         342
    1   2.6853199   2.7351978   2.7352004   2.7510406   2.8182749   2.8182860
          343         344         345         346         347         348
    1   2.8265995   2.8265998   2.8731182   2.8892626   2.8892685   2.9020790
          349         350         351         352         353         354
    1   2.9020850   2.9094970   2.9175282   2.9165217   2.9251229   2.9251542
          355         356         357         358         359         360
    1   2.9538142   2.9538259   2.9554658   2.9550827   2.9550836   2.9671980
          361         362         363         364         365         366
    1   2.9851849   2.9851848   2.9909219   3.0248937   3.0250260   3.0307298
          367         368         369         370         371         372
    1   3.0307302   3.0350389   3.0738064   3.0854369   3.0854426   3.1155321
          373         374         375         376         377         378
    1   3.1201374   3.1425835   3.1425847   3.1490083   3.1565838   3.1620626
          379         380         381         382         383         384
    1   3.1620631   3.1819256   3.1819419   3.2281380   3.2281383   3.2457250
          385         386         387         388         389         390
    1   3.2457259   3.2783531   3.2784258   3.2806684   3.3230464   3.3450593
          391         392         393         394         395         396
    1   3.4089798   3.4123174   3.4123181   3.4845210   3.4845228   3.5310963
          397         398         399         400         401         402
    1   3.5622555   3.6023070   3.6023147   3.6426135   3.6616826   3.6616872
          403         404         405         406         407         408
    1   3.6944113   3.6944282   3.7361431   3.7719957   3.7955899   3.7956030
          409         410         411         412         413         414
    1   3.8003702   3.8199592   3.8199903   3.8393753   3.8468122   3.8468135
          415         416         417         418         419         420
    1   3.8485029   3.8964647   3.8965312   3.9211832   3.9249699   3.9249770
          421         422         423         424         425         426
    1   4.0010649   4.0010704   4.0092001   4.0364766   4.0364808   4.0903390
          427         428         429         430         431         432
    1   4.2216179   4.2216537   4.3578713   4.4486552   4.4486617   4.4539627
          433         434         435         436         437         438
    1   4.5088113   4.5088190   4.5090223   4.6752970   4.6753492   4.6814457
          439         440         441         442         443         444
    1   4.9175769   4.9175798   5.2363495   5.2718151   5.2718258   5.3006478
          445         446         447         448         449         450
    1   5.3114599   5.3114757  24.4857410  24.8016586  24.8016635  24.9789346
          451         452         453         454         455         456
    1  24.9917235  24.9917246  25.0822917  25.0968773  25.0968793  25.1079929
          457         458         459         460         461         462
    1  25.1675873  25.1675931  25.1927895  25.1927966  25.1994328  25.2044709
          463         464         465         466         467         468
    1  25.2791422  25.2827530  25.2827716  25.3421801  25.3421873  25.3427139
 Final Beta MO Eigenvalues
            1           2           3           4           5           6
    1 -11.2496100 -11.2492058 -11.2492055 -11.2491519 -11.2490753 -11.2490750
            7           8           9          10          11          12
    1 -11.2490407 -11.2458326 -11.2458322 -11.2456034 -11.2392378 -11.2392344
           13          14          15          16          17          18
    1 -11.2392339 -11.2397003 -11.2396999 -11.2396946 -11.2381220 -11.2381197
           19          20          21          22          23          24
    1 -11.2381190 -11.2378390 -11.2378385 -11.2378372  -1.2097339  -1.1596978
           25          26          27          28          29          30
    1  -1.1596958  -1.0917583  -1.0892184  -1.0892176  -1.0155998  -1.0113946
           31          32          33          34          35          36
    1  -1.0113943  -1.0020658  -0.9083469  -0.9083462  -0.8573751  -0.8569610
           37          38          39          40          41          42
    1  -0.8569608  -0.8133574  -0.7552471  -0.7486442  -0.7486436  -0.7140496
           43          44          45          46          47          48
    1  -0.7140496  -0.6576488  -0.6576487  -0.6459507  -0.6325352  -0.6325351
           49          50          51          52          53          54
    1  -0.6215317  -0.5972001  -0.5839174  -0.5839174  -0.5704502  -0.5633094
           55          56          57          58          59          60
    1  -0.5541479  -0.5541474  -0.5351033  -0.5176264  -0.5176256  -0.4974634
           61          62          63          64          65          66
    1  -0.4974616  -0.5050837  -0.4648751  -0.4648749  -0.4129726  -0.4023064
           67          68          69          70          71          72
    1  -0.4023057  -0.3150815  -0.3150808  -0.2931398  -0.2825782   0.0109025
           73          74          75          76          77          78
    1   0.0109022   0.1274549   0.1237298   0.1237301   0.1538270   0.1530685
           79          80          81          82          83          84
    1   0.1599151   0.1599165   0.1745149   0.1745185   0.1912424   0.1996143
           85          86          87          88          89          90
    1   0.2186086   0.2186153   0.2390927   0.2485113   0.2485116   0.2621093
           91          92          93          94          95          96
    1   0.2621133   0.2779692   0.3643494   0.3643501   0.3687428   0.3687524
           97          98          99         100         101         102
    1   0.3916482   0.4166736   0.4166779   0.4306907   0.4390607   0.4403832
          103         104         105         106         107         108
    1   0.4403833   0.4545602   0.4649207   0.4721933   0.4759878   0.4759909
          109         110         111         112         113         114
    1   0.4873523   0.4873628   0.5164948   0.5164950   0.5584414   0.5594601
          115         116         117         118         119         120
    1   0.5609464   0.5664235   0.5664398   0.5760246   0.5760251   0.5809530
          121         122         123         124         125         126
    1   0.5984905   0.5984917   0.6134257   0.6134260   0.6110528   0.6130339
          127         128         129         130         131         132
    1   0.6136178   0.6136390   0.6241948   0.6242068   0.6408509   0.6595008
          133         134         135         136         137         138
    1   0.6504171   0.6519494   0.6519703   0.6638117   0.6638157   0.6707335
          139         140         141         142         143         144
    1   0.6707336   0.6790613   0.6760064   0.6760363   0.6811775   0.6906664
          145         146         147         148         149         150
    1   0.6984723   0.7154802   0.7154905   0.7370333   0.7370339   0.7413905
          151         152         153         154         155         156
    1   0.7413912   0.7489958   0.7490399   0.7770621   0.7742568   0.7828011
          157         158         159         160         161         162
    1   0.8108523   0.8108560   0.8197278   0.8161889   0.8409603   0.8432275
          163         164         165         166         167         168
    1   0.8432630   0.8503364   0.8503365   0.8522329   0.8688744   0.8767690
          169         170         171         172         173         174
    1   0.8767779   0.8824593   0.8824821   0.9366824   0.9366825   0.9368545
          175         176         177         178         179         180
    1   0.9449765   0.9449779   0.9455322   0.9791514   0.9791573   0.9867322
          181         182         183         184         185         186
    1   1.0206189   1.0258391   1.0258465   1.0353387   1.0419250   1.0419638
          187         188         189         190         191         192
    1   1.0793341   1.0844756   1.0844823   1.0876067   1.1023459   1.1070565
          193         194         195         196         197         198
    1   1.1070816   1.1308757   1.1308769   1.1581536   1.1581541   1.1594880
          199         200         201         202         203         204
    1   1.1595017   1.1692865   1.1797927   1.1956403   1.1957154   1.2385508
          205         206         207         208         209         210
    1   1.2410349   1.2379688   1.2463562   1.2463575   1.2562908   1.2563043
          211         212         213         214         215         216
    1   1.2864490   1.2864491   1.3151047   1.3130530   1.3131211   1.3162880
          217         218         219         220         221         222
    1   1.3231562   1.3231564   1.3278836   1.3482140   1.3749189   1.3810596
          223         224         225         226         227         228
    1   1.3810597   1.3801196   1.3953704   1.3953931   1.4262324   1.4262328
          229         230         231         232         233         234
    1   1.4311432   1.4311599   1.4583205   1.4583762   1.5171687   1.5301368
          235         236         237         238         239         240
    1   1.5306531   1.5682108   1.5987507   1.5990731   1.6064460   1.6185232
          241         242         243         244         245         246
    1   1.6524758   1.6526316   1.7043796   1.7081262   1.7081329   1.7167498
          247         248         249         250         251         252
    1   1.7218447   1.7218448   1.7255167   1.7342986   1.7344002   1.7411413
          253         254         255         256         257         258
    1   1.7474815   1.7474817   1.7763502   1.8083175   1.8167104   1.8167117
          259         260         261         262         263         264
    1   1.8185162   1.8185345   1.8231259   1.8292382   1.8462085   1.8462414
          265         266         267         268         269         270
    1   1.8841103   1.8853946   1.8854513   1.9223594   1.9223748   1.9388432
          271         272         273         274         275         276
    1   1.9388447   1.9530038   1.9563518   1.9564395   1.9630176   1.9876844
          277         278         279         280         281         282
    1   2.0100310   2.0194622   2.0194634   2.0579351   2.0579365   2.0768630
          283         284         285         286         287         288
    1   2.0979540   2.0979580   2.1059068   2.1103433   2.1103560   2.1171654
          289         290         291         292         293         294
    1   2.1188605   2.1666508   2.1667121   2.1831736   2.1895120   2.1895131
          295         296         297         298         299         300
    1   2.1912666   2.1913097   2.2005237   2.2005349   2.2156720   2.2156740
          301         302         303         304         305         306
    1   2.2168718   2.2196788   2.2302061   2.2307369   2.2478242   2.2478242
          307         308         309         310         311         312
    1   2.2466932   2.2467911   2.2956271   2.2956674   2.3349942   2.3611587
          313         314         315         316         317         318
    1   2.3612047   2.3847672   2.3847681   2.3893016   2.3871138   2.4435161
          319         320         321         322         323         324
    1   2.4498980   2.4755550   2.4848411   2.4848423   2.4966964   2.5113803
          325         326         327         328         329         330
    1   2.5113893   2.5479072   2.5479132   2.5688161   2.5688178   2.5988599
          331         332         333         334         335         336
    1   2.6382962   2.6382963   2.6529397   2.6529373   2.6523742   2.6803055
          337         338         339         340         341         342
    1   2.6873953   2.7361574   2.7361600   2.7530564   2.8214662   2.8214765
          343         344         345         346         347         348
    1   2.8319009   2.8319011   2.8752270   2.8915675   2.8915734   2.9036762
          349         350         351         352         353         354
    1   2.9036819   2.9104858   2.9192115   2.9226022   2.9262041   2.9262345
          355         356         357         358         359         360
    1   2.9553679   2.9553801   2.9564867   2.9633176   2.9633185   2.9686351
          361         362         363         364         365         366
    1   2.9864516   2.9864516   2.9924675   3.0267207   3.0268534   3.0413285
          367         368         369         370         371         372
    1   3.0413289   3.0420525   3.0766304   3.0868171   3.0868228   3.1167437
          373         374         375         376         377         378
    1   3.1320738   3.1440513   3.1440525   3.1503154   3.1668303   3.1698273
          379         380         381         382         383         384
    1   3.1698276   3.1834457   3.1834621   3.2394157   3.2394164   3.2520120
          385         386         387         388         389         390
    1   3.2520133   3.2796944   3.2797668   3.2870522   3.3275672   3.3466154
          391         392         393         394         395         396
    1   3.4162926   3.4197393   3.4197400   3.4887486   3.4887504   3.5327099
          397         398         399         400         401         402
    1   3.5649832   3.6034629   3.6034707   3.6438809   3.6632179   3.6632225
          403         404         405         406         407         408
    1   3.6957491   3.6957661   3.7378146   3.7740819   3.7972932   3.7973064
          409         410         411         412         413         414
    1   3.8022952   3.8215783   3.8216092   3.8412587   3.8487216   3.8487229
          415         416         417         418         419         420
    1   3.8497523   3.8979875   3.8980538   3.9232050   3.9268134   3.9268206
          421         422         423         424         425         426
    1   4.0023586   4.0023642   4.0120185   4.0396582   4.0396626   4.0927276
          427         428         429         430         431         432
    1   4.2237385   4.2237743   4.3596535   4.4508231   4.4508296   4.4560426
          433         434         435         436         437         438
    1   4.5122315   4.5122392   4.5124120   4.6784917   4.6785438   4.6849158
          439         440         441         442         443         444
    1   4.9206235   4.9206263   5.2391421   5.2742683   5.2742790   5.3030876
          445         446         447         448         449         450
    1   5.3129941   5.3130099  24.4865670  24.8026913  24.8026963  24.9797690
          451         452         453         454         455         456
    1  24.9928068  24.9928078  25.0832133  25.0974998  25.0975018  25.1087289
          457         458         459         460         461         462
    1  25.1685625  25.1685683  25.1942710  25.1942781  25.2002048  25.2059654
          463         464         465         466         467         468
    1  25.2802749  25.2842423  25.2842608  25.3431762  25.3431834  25.3437321
 SCF time:   CPU 319.10s  wall 324.00s 
<S^2> =          2.000000000
 SCF   energy in the final basis set =     -840.2712412133
 Total energy in the final basis set =     -840.2712412133
  
     ##========================================##
     ||                                        ||
     ||              R A S M A N 2             ||
     ||________________________________________||
     ||                                        ||
     ||  Author:                               ||
     ||                                        ||
     ||        David Casanova (2010)           ||
     ||                                        ||
     ##========================================##
  
Setting single-point xc-functionals (if necessary)

  ***************************************************
  *  RAS-CI Dimensions:                             *
  *                                                 *
  *  Active Elec.:  10 ( 5, 5)   Active Orb.:  10   *
  *  Doubly Occ. :  67           Doubly Vir.: 391   *
  *  Frozen Occ. :  47           Frozen Vir.: 371   *
  *                                                 *
  *  Total CI configurations:   4297104             * 
  *    Active configurations:     63504             * 
  *      Hole configurations:   2116800             * 
  *  Particle configurations:   2116800             * 
  *                                                 *
  *   Requested states:       20                    *
  *  Spin multiplicity: Singlets                    *
  *                                                 *
  ***************************************************
-----------------------------------------
    Memory requirements of RASCI

 Each CI-vector requires     32.78 MiB 
 Max. subspace vectors           1200      

 Reduced Lists                0.01 MiB 
 Excitation Lists             0.02 MiB 
 Excitation Lists Sign        0.02 MiB 
 CI-space (Max)           40007.84 MiB 
 Integrals                  264.58 MiB 
 Memory required (Max)    40007.89 MiB 
 Memory available          2861.02 MiB 

 Q-Chem warning in module rasman2/ras_mem_check.C, line 162:

 Static memory may be insufficient to store the subspace vectors


    Disk requirements of RASCI

 Fock matrix                  3.34 MiB 
 2-electron integrals         3.81 MiB 
 CI-space                 78682.32 MiB 
 Disk required            78689.48 MiB 
-----------------------------------------
  
RAS1 HF-like energy:           -830.1061938448
 Computing integrals
 Computing J and K matrices
 Computing addressing
 Making amplitude guesses
   4 guesses with   0 unpaired electrons
  12 guesses with   2 unpaired electrons
   4 guesses with   4 unpaired electrons
 
Direct CI diagonalization
 ---------------------------------------------------
 Iter    Rts Conv    Rts Left    Ttl Dev     Max Dev
 ---------------------------------------------------
   1         0          20      0.002678    0.000145
   2         0          20      0.001392    0.000082
   3         0          20      0.000886    0.000058
   4         0          20      0.000729    0.000056
   5         0          20      0.000664    0.000070
   6         0          20      0.000734    0.000087
   7         0          20      0.000783    0.000091
   8         0          20      0.000680    0.000063
   9         0          20      0.000515    0.000043
  10         1          19      0.000386    0.000036
  11         2          18      0.000280    0.000028
  12         2          18      0.000203    0.000023
  13         3          17      0.000144    0.000019
  14         3          17      0.000103    0.000016
  15         4          16      0.000075    0.000013
  16         5          15      0.000056    0.000011
  17         8          12      0.000042    0.000009
  18         9          11      0.000031    0.000007
  19        13           7      0.000024    0.000005
  20        14           6      0.000020    0.000004
  21        14           6      0.000018    0.000004
  22        14           6      0.000016    0.000004
  23        17           3      0.000015    0.000004
  24        18           2      0.000013    0.000004
  25        18           2      0.000012    0.000003
  26        18           2      0.000040    0.000029
  27        18           2      0.000035    0.000025
  28        18           2      0.000030    0.000022
  29        18           2      0.000025    0.000017
  30        19           1      0.000020    0.000012
  31        19           1      0.000016    0.000009
  32        19           1      0.000014    0.000006
  33        19           1      0.000012    0.000004
  34        19           1      0.000011    0.000003
  35        19           1      0.000010    0.000002
  36        19           1      0.000009    0.000002
  37        19           1      0.000009    0.000001
  38        20           0      0.000008    0.000001    Roots Converged
 ---------------------------------------------------
   
**************************************************
 RAS-CI total energy for state   1:   -840.348322062226
  Excitation energy (eV) =  0.000000000000
  State symmetry: A1    (C2v      )
  <S^2>      :  0.0000
  Dipole Moment:    0.0000 X     0.0000 Y     0.0068 Z
 NATURAL OCCUPATION NUMBERS (higher than 1.0E-05)
            1           2           3           4           5           6
    1   2.0000000   2.0000000   2.0000000   2.0000000   2.0000000   2.0000000
            7           8           9          10          11          12
    1   2.0000000   2.0000000   2.0000000   2.0000000   2.0000000   2.0000000
           13          14          15          16          17          18
    1   2.0000000   2.0000000   2.0000000   2.0000000   2.0000000   2.0000000
           19          20          21          22          23          24
    1   2.0000000   2.0000000   2.0000000   2.0000000   2.0000000   2.0000000
           25          26          27          28          29          30
    1   2.0000000   2.0000000   2.0000000   2.0000000   2.0000000   2.0000000
           31          32          33          34          35          36
    1   2.0000000   2.0000000   2.0000000   2.0000000   2.0000000   2.0000000
           37          38          39          40          41          42
    1   2.0000000   2.0000000   2.0000000   2.0000000   2.0000000   2.0000000
           43          44          45          46          47          48
    1   2.0000000   2.0000000   2.0000000   2.0000000   2.0000000   2.0000000
           49          50          51          52          53          54
    1   2.0000000   2.0000000   2.0000000   2.0000000   2.0000000   2.0000000
           55          56          57          58          59          60
    1   2.0000000   2.0000000   2.0000000   2.0000000   2.0000000   2.0000000
           61          62          63          64          65          66
    1   2.0000000   1.9986188   1.9976590   1.9972447   1.9923274   1.9881731
           67          68          69          70          71          72
    1   1.9849356   1.9533693   1.9502516   1.9436228   1.9410724   1.0066810
           73          74          75          76          77          78
    1   0.9987478   0.0591986   0.0558983   0.0500248   0.0469189   0.0138502
           79          80          81          82
    1   0.0098230   0.0072359   0.0024647   0.0018819
Natural Orbitals stored in FCHK

  Amplitudes : 
  
 | HOLE  | ALPHA      | BETA       | PART  |    AMPLITUDE 
--------------------------------------------------
 |       | 1111100000 | 1111100000 |       |    -5.9653616880593E-01
 |       | 1111100000 | 1111000001 |       |     1.3784015393143E-01
 |       | 1111100000 | 1110110000 |       |     1.1584052618564E-01
 |       | 1111010000 | 1111010000 |       |     5.9654047458748E-01
 |       | 1111010000 | 1111001000 |       |     1.1694609386121E-01
 |       | 1111010000 | 1101110000 |       |    -1.4518251691032E-01
 |       | 1111001000 | 1111010000 |       |     1.1694609386120E-01
 |       | 1111000001 | 1111100000 |       |     1.3784015393143E-01
 |       | 1110110000 | 1111100000 |       |     1.1584052618565E-01
 |       | 1101110000 | 1111010000 |       |    -1.4518251691032E-01
--------------------------------------------------
*** Contributions RASCI wfn    Active:  91.88
                                 Hole:   4.38
                                 Part:   3.74

      Mulliken population analysis 
 ---------------------------------------------------
   Atom    Charge (a.u.)   Spin (a.u.)  
 ---------------------------------------------------
   1  C   -0.095732       -0.000000 
   2  C    0.003147       -0.000000 
   3  C   -0.095732       -0.000000 
   4  C   -0.059473       -0.000000 
   5  C   -0.010677       -0.000000 
   6  C   -0.026676       -0.000000 
   7  C    0.000804       -0.000000 
   8  C   -0.087842       -0.000000 
   9  C   -0.061613       -0.000000 
  10  C   -0.093321       -0.000000 
  11  H    0.087737       -0.000000 
  12  H    0.087737       -0.000000 
  13  H    0.098387       -0.000000 
  14  H    0.078753       -0.000000 
  15  H    0.087552       -0.000000 
  16  H    0.098412       -0.000000 
  17  H    0.087556       -0.000000 
  18  C   -0.026676       -0.000000 
  19  C   -0.078275       -0.000000 
  20  C    0.003147       -0.000000 
  21  H    0.078753       -0.000000 
  22  C   -0.074691       -0.000000 
  23  C   -0.001690       -0.000000 
  24  C   -0.033670        0.000000 
  25  H    0.078909        0.000000 
  26  C   -0.093321       -0.000000 
  27  C   -0.061613       -0.000000 
  28  C   -0.087842       -0.000000 
  29  C   -0.001689       -0.000000 
  30  C   -0.074690       -0.000000 
  31  C    0.000804       -0.000000 
  32  H    0.087556       -0.000000 
  33  H    0.098412       -0.000000 
  34  H    0.087552       -0.000000 
 ---------------------------------------------------
   Sum:   -0.000000       -0.000000 
 ---------------------------------------------------
 
  
 NATURAL OCCUPATION NUMBERS (higher than 1.0E-05)
            1           2           3           4           5           6
    1   2.0000000   2.0000000   2.0000000   2.0000000   2.0000000   2.0000000
            7           8           9          10          11          12
    1   2.0000000   2.0000000   2.0000000   2.0000000   2.0000000   2.0000000
           13          14          15          16          17          18
    1   2.0000000   2.0000000   2.0000000   2.0000000   2.0000000   2.0000000
           19          20          21          22          23          24
    1   2.0000000   2.0000000   2.0000000   2.0000000   2.0000000   2.0000000
           25          26          27          28          29          30
    1   2.0000000   2.0000000   2.0000000   2.0000000   2.0000000   2.0000000
           31          32          33          34          35          36
    1   2.0000000   2.0000000   2.0000000   2.0000000   2.0000000   2.0000000
           37          38          39          40          41          42
    1   2.0000000   2.0000000   2.0000000   2.0000000   2.0000000   2.0000000
           43          44          45          46          47          48
    1   2.0000000   2.0000000   2.0000000   2.0000000   2.0000000   2.0000000
           49          50          51          52          53          54
    1   2.0000000   2.0000000   2.0000000   2.0000000   2.0000000   2.0000000
           55          56          57          58          59          60
    1   2.0000000   2.0000000   2.0000000   2.0000000   2.0000000   2.0000000
           61          62          63          64          65          66
    1   2.0000000   1.9986188   1.9976590   1.9972447   1.9923274   1.9881731
           67          68          69          70          71          72
    1   1.9849356   1.9533693   1.9502516   1.9436228   1.9410724   1.0066810
           73          74          75          76          77          78
    1   0.9987478   0.0591986   0.0558983   0.0500248   0.0469189   0.0138502
           79          80          81          82
    1   0.0098230   0.0072359   0.0024647   0.0018819
  
*** Unpaired Electrons
 Yamaguchi Nd:         2.98
 Head-Gordon Nu:       2.49
 Head-Gordon Nu_nl:    2.09
  
**************************************************
 RAS-CI total energy for state   2:   -840.348321906616
  Excitation energy (eV) =  0.000004234371
  State symmetry: B1    (C2v      )
  <S^2>      :  0.0000
  Dipole Moment:   -0.0000 X     0.0000 Y    -0.0071 Z
  Trans. Moment:    0.0073 X    -0.0000 Y     0.0000 Z
  Strength   :  0.000000
  Natural transition orbitals ( 1 -> 2 ):
   e-/hole pair  1:  ampl =  0.545326 ( 29.7%)   [10 : 11]
   e-/hole pair  2:  ampl =  0.542802 ( 29.5%)   [9 : 12]
   Sum of square amplitudes: 0.60

 NATURAL OCCUPATION NUMBERS (higher than 1.0E-05)
            1           2           3           4           5           6
    1   2.0000000   2.0000000   2.0000000   2.0000000   2.0000000   2.0000000
            7           8           9          10          11          12
    1   2.0000000   2.0000000   2.0000000   2.0000000   2.0000000   2.0000000
           13          14          15          16          17          18
    1   2.0000000   2.0000000   2.0000000   2.0000000   2.0000000   2.0000000
           19          20          21          22          23          24
    1   2.0000000   2.0000000   2.0000000   2.0000000   2.0000000   2.0000000
           25          26          27          28          29          30
    1   2.0000000   2.0000000   2.0000000   2.0000000   2.0000000   2.0000000
           31          32          33          34          35          36
    1   2.0000000   2.0000000   2.0000000   2.0000000   2.0000000   2.0000000
           37          38          39          40          41          42
    1   2.0000000   2.0000000   2.0000000   2.0000000   2.0000000   2.0000000
           43          44          45          46          47          48
    1   2.0000000   2.0000000   2.0000000   2.0000000   2.0000000   2.0000000
           49          50          51          52          53          54
    1   2.0000000   2.0000000   2.0000000   2.0000000   2.0000000   2.0000000
           55          56          57          58          59          60
    1   2.0000000   2.0000000   2.0000000   2.0000000   2.0000000   2.0000000
           61          62          63          64          65          66
    1   2.0000000   1.9984689   1.9976480   1.9972890   1.9923559   1.9882743
           67          68          69          70          71          72
    1   1.9850579   1.9533323   1.9502719   1.9439731   1.9406621   1.0028666
           73          74          75          76          77          78
    1   1.0024635   0.0595778   0.0556937   0.0499575   0.0470006   0.0136914
           79          80          81          82
    1   0.0098438   0.0071978   0.0022643   0.0021098
Natural Orbitals stored in FCHK

  Amplitudes : 
  
 | HOLE  | ALPHA      | BETA       | PART  |    AMPLITUDE 
--------------------------------------------------
 |       | 1111100000 | 1111010000 |       |     5.9653547960629E-01
 |       | 1111100000 | 1111001000 |       |    -1.1696103549402E-01
 |       | 1111100000 | 1101110000 |       |     1.4518444476970E-01
 |       | 1111010000 | 1111100000 |       |     5.9653547960629E-01
 |       | 1111010000 | 1111000001 |       |     1.3782852375986E-01
 |       | 1111010000 | 1110110000 |       |     1.1583980419044E-01
 |       | 1111001000 | 1111100000 |       |    -1.1696103549402E-01
 |       | 1111000001 | 1111010000 |       |     1.3782852375986E-01
 |       | 1110110000 | 1111010000 |       |     1.1583980419044E-01
 |       | 1101110000 | 1111100000 |       |     1.4518444476970E-01
--------------------------------------------------
*** Contributions RASCI wfn    Active:  91.88
                                 Hole:   4.38
                                 Part:   3.74

      Mulliken population analysis 
 ---------------------------------------------------
   Atom    Charge (a.u.)   Spin (a.u.)  
 ---------------------------------------------------
   1  C   -0.088874       -0.000000 
   2  C   -0.001284       -0.000000 
   3  C   -0.088874       -0.000000 
   4  C   -0.062295       -0.000000 
   5  C   -0.010679       -0.000000 
   6  C   -0.031706       -0.000000 
   7  C    0.001147       -0.000000 
   8  C   -0.096810       -0.000000 
   9  C   -0.060222       -0.000000 
  10  C   -0.091104       -0.000000 
  11  H    0.087496       -0.000000 
  12  H    0.087495       -0.000000 
  13  H    0.098415       -0.000000 
  14  H    0.078849       -0.000000 
  15  H    0.087674       -0.000000 
  16  H    0.098398       -0.000000 
  17  H    0.087677       -0.000000 
  18  C   -0.031706       -0.000000 
  19  C   -0.073927       -0.000000 
  20  C   -0.001284       -0.000000 
  21  H    0.078849       -0.000000 
  22  C   -0.076843       -0.000000 
  23  C    0.002296       -0.000000 
  24  C   -0.023617       -0.000000 
  25  H    0.078717       -0.000000 
  26  C   -0.091104       -0.000000 
  27  C   -0.060222       -0.000000 
  28  C   -0.096810       -0.000000 
  29  C    0.002296       -0.000000 
  30  C   -0.076843       -0.000000 
  31  C    0.001146       -0.000000 
  32  H    0.087677       -0.000000 
  33  H    0.098398       -0.000000 
  34  H    0.087674       -0.000000 
 ---------------------------------------------------
   Sum:   -0.000000       -0.000000 
 ---------------------------------------------------
 
  
 NATURAL OCCUPATION NUMBERS (higher than 1.0E-05)
            1           2           3           4           5           6
    1   2.0000000   2.0000000   2.0000000   2.0000000   2.0000000   2.0000000
            7           8           9          10          11          12
    1   2.0000000   2.0000000   2.0000000   2.0000000   2.0000000   2.0000000
           13          14          15          16          17          18
    1   2.0000000   2.0000000   2.0000000   2.0000000   2.0000000   2.0000000
           19          20          21          22          23          24
    1   2.0000000   2.0000000   2.0000000   2.0000000   2.0000000   2.0000000
           25          26          27          28          29          30
    1   2.0000000   2.0000000   2.0000000   2.0000000   2.0000000   2.0000000
           31          32          33          34          35          36
    1   2.0000000   2.0000000   2.0000000   2.0000000   2.0000000   2.0000000
           37          38          39          40          41          42
    1   2.0000000   2.0000000   2.0000000   2.0000000   2.0000000   2.0000000
           43          44          45          46          47          48
    1   2.0000000   2.0000000   2.0000000   2.0000000   2.0000000   2.0000000
           49          50          51          52          53          54
    1   2.0000000   2.0000000   2.0000000   2.0000000   2.0000000   2.0000000
           55          56          57          58          59          60
    1   2.0000000   2.0000000   2.0000000   2.0000000   2.0000000   2.0000000
           61          62          63          64          65          66
    1   2.0000000   1.9984689   1.9976480   1.9972890   1.9923559   1.9882743
           67          68          69          70          71          72
    1   1.9850579   1.9533323   1.9502719   1.9439731   1.9406621   1.0028666
           73          74          75          76          77          78
    1   1.0024635   0.0595778   0.0556937   0.0499575   0.0470006   0.0136914
           79          80          81          82
    1   0.0098438   0.0071978   0.0022643   0.0021098
  
*** Unpaired Electrons
 Yamaguchi Nd:         2.98
 Head-Gordon Nu:       2.49
 Head-Gordon Nu_nl:    2.09
  
**************************************************
 RAS-CI total energy for state   3:   -840.291531988199
  Excitation energy (eV) =  1.545336538549
  State symmetry: A1    (C2v      )
  <S^2>      :  0.0000
  Dipole Moment:    0.0000 X     0.0000 Y     0.0000 Z
  Trans. Moment:    0.0000 X    -0.0000 Y    -2.1093 Z
  Strength   :  0.168451
  Natural transition orbitals ( 1 -> 3 ):
   e-/hole pair  1:  ampl =  0.594320 ( 35.3%)   [10 : 11]
   e-/hole pair  2:  ampl =  0.586482 ( 34.4%)   [9 : 12]
   Sum of square amplitudes: 0.72

 NATURAL OCCUPATION NUMBERS (higher than 1.0E-05)
            1           2           3           4           5           6
    1   2.0000000   2.0000000   2.0000000   2.0000000   2.0000000   2.0000000
            7           8           9          10          11          12
    1   2.0000000   2.0000000   2.0000000   2.0000000   2.0000000   2.0000000
           13          14          15          16          17          18
    1   2.0000000   2.0000000   2.0000000   2.0000000   2.0000000   2.0000000
           19          20          21          22          23          24
    1   2.0000000   2.0000000   2.0000000   2.0000000   2.0000000   2.0000000
           25          26          27          28          29          30
    1   2.0000000   2.0000000   2.0000000   2.0000000   2.0000000   2.0000000
           31          32          33          34          35          36
    1   2.0000000   2.0000000   2.0000000   2.0000000   2.0000000   2.0000000
           37          38          39          40          41          42
    1   2.0000000   2.0000000   2.0000000   2.0000000   2.0000000   2.0000000
           43          44          45          46          47          48
    1   2.0000000   2.0000000   2.0000000   2.0000000   2.0000000   2.0000000
           49          50          51          52          53          54
    1   2.0000000   2.0000000   2.0000000   2.0000000   2.0000000   2.0000000
           55          56          57          58          59          60
    1   2.0000000   2.0000000   2.0000000   2.0000000   2.0000000   2.0000000
           61          62          63          64          65          66
    1   2.0000000   1.9989125   1.9971026   1.9971025   1.9911767   1.9911762
           67          68          69          70          71          72
    1   1.9906507   1.9373528   1.9329673   1.9329664   1.9250348   1.0113210
           73          74          75          76          77          78
    1   1.0113133   0.0662203   0.0648614   0.0648384   0.0579801   0.0081522
           79          80          81          82
    1   0.0079696   0.0079691   0.0024662   0.0024660
Natural Orbitals stored in FCHK

  Amplitudes : 
  
 | HOLE  | ALPHA      | BETA       | PART  |    AMPLITUDE 
--------------------------------------------------
 |       | 1111100000 | 1111100000 |       |     5.9163499693380E-01
 |       | 1111100000 | 1111000010 |       |     1.1161877773493E-01
 |       | 1111100000 | 0111110000 |       |    -1.1895861336820E-01
 |       | 1111010000 | 1111010000 |       |     5.9163204894742E-01
 |       | 1111010000 | 1111000100 |       |    -1.1161302602217E-01
 |       | 1111010000 | 1011110000 |       |    -1.1895968612756E-01
 |       | 1111000100 | 1111010000 |       |    -1.1161302602217E-01
 |       | 1111000010 | 1111100000 |       |     1.1161877773493E-01
 |       | 1110110000 | 1110110000 |       |    -1.1351227568318E-01
 |       | 1101110000 | 1101110000 |       |    -1.0160006324675E-01
 |       | 1011110000 | 1111010000 |       |    -1.1895968612757E-01
 |       | 0111110000 | 1111100000 |       |    -1.1895861336818E-01
--------------------------------------------------
*** Contributions RASCI wfn    Active:  92.87
                                 Hole:   3.77
                                 Part:   3.36

      Mulliken population analysis 
 ---------------------------------------------------
   Atom    Charge (a.u.)   Spin (a.u.)  
 ---------------------------------------------------
   1  C   -0.096134       -0.000000 
   2  C    0.004630       -0.000000 
   3  C   -0.096134       -0.000000 
   4  C   -0.058641       -0.000000 
   5  C   -0.010662       -0.000000 
   6  C   -0.032778       -0.000000 
   7  C    0.004694       -0.000000 
   8  C   -0.096154       -0.000000 
   9  C   -0.058668       -0.000000 
  10  C   -0.096064       -0.000000 
  11  H    0.087608       -0.000000 
  12  H    0.087608       -0.000000 
  13  H    0.098420       -0.000000 
  14  H    0.078851       -0.000000 
  15  H    0.087604       -0.000000 
  16  H    0.098424       -0.000000 
  17  H    0.087608       -0.000000 
  18  C   -0.032778       -0.000000 
  19  C   -0.074557       -0.000000 
  20  C    0.004631       -0.000000 
  21  H    0.078851       -0.000000 
  22  C   -0.074236       -0.000000 
  23  C    0.004011       -0.000000 
  24  C   -0.032217       -0.000000 
  25  H    0.078863       -0.000000 
  26  C   -0.096063       -0.000000 
  27  C   -0.058668       -0.000000 
  28  C   -0.096155       -0.000000 
  29  C    0.004013       -0.000000 
  30  C   -0.074236       -0.000000 
  31  C    0.004692       -0.000000 
  32  H    0.087608       -0.000000 
  33  H    0.098424       -0.000000 
  34  H    0.087604       -0.000000 
 ---------------------------------------------------
   Sum:   -0.000000       -0.000000 
 ---------------------------------------------------
 
  
 NATURAL OCCUPATION NUMBERS (higher than 1.0E-05)
            1           2           3           4           5           6
    1   2.0000000   2.0000000   2.0000000   2.0000000   2.0000000   2.0000000
            7           8           9          10          11          12
    1   2.0000000   2.0000000   2.0000000   2.0000000   2.0000000   2.0000000
           13          14          15          16          17          18
    1   2.0000000   2.0000000   2.0000000   2.0000000   2.0000000   2.0000000
           19          20          21          22          23          24
    1   2.0000000   2.0000000   2.0000000   2.0000000   2.0000000   2.0000000
           25          26          27          28          29          30
    1   2.0000000   2.0000000   2.0000000   2.0000000   2.0000000   2.0000000
           31          32          33          34          35          36
    1   2.0000000   2.0000000   2.0000000   2.0000000   2.0000000   2.0000000
           37          38          39          40          41          42
    1   2.0000000   2.0000000   2.0000000   2.0000000   2.0000000   2.0000000
           43          44          45          46          47          48
    1   2.0000000   2.0000000   2.0000000   2.0000000   2.0000000   2.0000000
           49          50          51          52          53          54
    1   2.0000000   2.0000000   2.0000000   2.0000000   2.0000000   2.0000000
           55          56          57          58          59          60
    1   2.0000000   2.0000000   2.0000000   2.0000000   2.0000000   2.0000000
           61          62          63          64          65          66
    1   2.0000000   1.9989125   1.9971026   1.9971025   1.9911767   1.9911762
           67          68          69          70          71          72
    1   1.9906507   1.9373528   1.9329673   1.9329664   1.9250348   1.0113210
           73          74          75          76          77          78
    1   1.0113133   0.0662203   0.0648614   0.0648384   0.0579801   0.0081522
           79          80          81          82
    1   0.0079696   0.0079691   0.0024662   0.0024660
  
*** Unpaired Electrons
 Yamaguchi Nd:         3.14
 Head-Gordon Nu:       2.57
 Head-Gordon Nu_nl:    2.13
  
**************************************************
 RAS-CI total energy for state   4:   -840.247398917219
  Excitation energy (eV) =  2.746258500910
  State symmetry: A1    (C2v      )
  <S^2>      :  0.0000
  Dipole Moment:   -0.0001 X    -0.0000 Y    -0.1174 Z
  Trans. Moment:   -0.0000 X    -0.0000 Y    -0.0361 Z
  Strength   :  0.000088
  Natural transition orbitals ( 1 -> 4 ):
   e-/hole pair  1:  ampl =  0.377548 ( 14.3%)   [10 : 11]
   e-/hole pair  2:  ampl =  0.339631 ( 11.5%)   [9 : 12]
   Sum of square amplitudes: 0.37

 NATURAL OCCUPATION NUMBERS (higher than 1.0E-05)
            1           2           3           4           5           6
    1   2.0000000   2.0000000   2.0000000   2.0000000   2.0000000   2.0000000
            7           8           9          10          11          12
    1   2.0000000   2.0000000   2.0000000   2.0000000   2.0000000   2.0000000
           13          14          15          16          17          18
    1   2.0000000   2.0000000   2.0000000   2.0000000   2.0000000   2.0000000
           19          20          21          22          23          24
    1   2.0000000   2.0000000   2.0000000   2.0000000   2.0000000   2.0000000
           25          26          27          28          29          30
    1   2.0000000   2.0000000   2.0000000   2.0000000   2.0000000   2.0000000
           31          32          33          34          35          36
    1   2.0000000   2.0000000   2.0000000   2.0000000   2.0000000   2.0000000
           37          38          39          40          41          42
    1   2.0000000   2.0000000   2.0000000   2.0000000   2.0000000   2.0000000
           43          44          45          46          47          48
    1   2.0000000   2.0000000   2.0000000   2.0000000   2.0000000   2.0000000
           49          50          51          52          53          54
    1   2.0000000   2.0000000   2.0000000   2.0000000   2.0000000   2.0000000
           55          56          57          58          59          60
    1   2.0000000   2.0000000   2.0000000   2.0000000   2.0000000   2.0000000
           61          62          63          64          65          66
    1   2.0000000   1.9982660   1.9965382   1.9954158   1.9931813   1.9827569
           67          68          69          70          71          72
    1   1.9781639   1.9507119   1.9437490   1.7930163   1.6420105   1.0289058
           73          74          75          76          77          78
    1   0.9483482   0.4195832   0.1790719   0.0554484   0.0499699   0.0187145
           79          80          81          82
    1   0.0137941   0.0061703   0.0039131   0.0022707
Natural Orbitals stored in FCHK

  Amplitudes : 
  
 | HOLE  | ALPHA      | BETA       | PART  |    AMPLITUDE 
--------------------------------------------------
 |       | 1111100000 | 1111000001 |       |    -1.9415735473403E-01
 |       | 1111100000 | 1110110000 |       |     3.2948637410642E-01
 |       | 1111010000 | 1111001000 |       |     3.6739525883970E-01
 |       | 1111010000 | 1101110000 |       |     2.1799109749070E-01
 |       | 1111001000 | 1111010000 |       |     3.6739525883947E-01
 |       | 1111000001 | 1111100000 |       |    -1.9415735473402E-01
 |       | 1110110000 | 1111100000 |       |     3.2948637410664E-01
 |       | 1101110000 | 1111010000 |       |     2.1799109749071E-01
 |  66   | 1111110000 | 1111100000 |       |     1.2565664045302E-01
 |  66   | 1111100000 | 1111110000 |       |     1.2565664045300E-01
 |  67   | 1111110000 | 1111010000 |       |    -1.2565200035701E-01
 |  67   | 1111010000 | 1111110000 |       |    -1.2565200035698E-01
 |       | 1111000000 | 1111100000 |  89   |     1.0960285945656E-01
 |       | 1111100000 | 1111000000 |  89   |     1.0960285945658E-01
 |       | 1111000000 | 1111010000 |  88   |    -1.0954624606253E-01
 |       | 1111010000 | 1111000000 |  88   |    -1.0954624606256E-01
--------------------------------------------------
*** Contributions RASCI wfn    Active:  79.61
                                 Hole:  11.62
                                 Part:   8.76

      Mulliken population analysis 
 ---------------------------------------------------
   Atom    Charge (a.u.)   Spin (a.u.)  
 ---------------------------------------------------
   1  C   -0.086180       -0.000000 
   2  C   -0.001576       -0.000000 
   3  C   -0.086182       -0.000000 
   4  C   -0.058252       -0.000000 
   5  C   -0.021617       -0.000000 
   6  C   -0.024292       -0.000000 
   7  C   -0.002370       -0.000000 
   8  C   -0.086532        0.000000 
   9  C   -0.063540       -0.000000 
  10  C   -0.091707        0.000000 
  11  H    0.087751       -0.000000 
  12  H    0.087751       -0.000000 
  13  H    0.098208       -0.000000 
  14  H    0.078387       -0.000000 
  15  H    0.087457        0.000000 
  16  H    0.098271       -0.000000 
  17  H    0.087514        0.000000 
  18  C   -0.024307       -0.000000 
  19  C   -0.077495        0.000000 
  20  C   -0.001573       -0.000000 
  21  H    0.078387       -0.000000 
  22  C   -0.073174        0.000000 
  23  C    0.001057       -0.000000 
  24  C   -0.041825        0.000000 
  25  H    0.078875        0.000000 
  26  C   -0.091718        0.000000 
  27  C   -0.063535       -0.000000 
  28  C   -0.086545        0.000000 
  29  C    0.001058       -0.000000 
  30  C   -0.073174        0.000000 
  31  C   -0.002366       -0.000000 
  32  H    0.087514        0.000000 
  33  H    0.098271       -0.000000 
  34  H    0.087457        0.000000 
 ---------------------------------------------------
   Sum:   -0.000000       -0.000000 
 ---------------------------------------------------
 
  
 NATURAL OCCUPATION NUMBERS (higher than 1.0E-05)
            1           2           3           4           5           6
    1   2.0000000   2.0000000   2.0000000   2.0000000   2.0000000   2.0000000
            7           8           9          10          11          12
    1   2.0000000   2.0000000   2.0000000   2.0000000   2.0000000   2.0000000
           13          14          15          16          17          18
    1   2.0000000   2.0000000   2.0000000   2.0000000   2.0000000   2.0000000
           19          20          21          22          23          24
    1   2.0000000   2.0000000   2.0000000   2.0000000   2.0000000   2.0000000
           25          26          27          28          29          30
    1   2.0000000   2.0000000   2.0000000   2.0000000   2.0000000   2.0000000
           31          32          33          34          35          36
    1   2.0000000   2.0000000   2.0000000   2.0000000   2.0000000   2.0000000
           37          38          39          40          41          42
    1   2.0000000   2.0000000   2.0000000   2.0000000   2.0000000   2.0000000
           43          44          45          46          47          48
    1   2.0000000   2.0000000   2.0000000   2.0000000   2.0000000   2.0000000
           49          50          51          52          53          54
    1   2.0000000   2.0000000   2.0000000   2.0000000   2.0000000   2.0000000
           55          56          57          58          59          60
    1   2.0000000   2.0000000   2.0000000   2.0000000   2.0000000   2.0000000
           61          62          63          64          65          66
    1   2.0000000   1.9982660   1.9965382   1.9954158   1.9931813   1.9827569
           67          68          69          70          71          72
    1   1.9781639   1.9507119   1.9437490   1.7930163   1.6420105   1.0289058
           73          74          75          76          77          78
    1   0.9483482   0.4195832   0.1790719   0.0554484   0.0499699   0.0187145
           79          80          81          82
    1   0.0137941   0.0061703   0.0039131   0.0022707
  
*** Unpaired Electrons
 Yamaguchi Nd:         4.56
 Head-Gordon Nu:       3.39
 Head-Gordon Nu_nl:    3.07
  
**************************************************
 RAS-CI total energy for state   5:   -840.247398366971
  Excitation energy (eV) =  2.746273473932
  State symmetry: B1    (C2v      )
  <S^2>      :  0.0000
  Dipole Moment:    0.0000 X     0.0000 Y     0.1170 Z
  Trans. Moment:   -0.0358 X    -0.0000 Y    -0.0000 Z
  Strength   :  0.000086
  Natural transition orbitals ( 1 -> 5 ):
   e-/hole pair  1:  ampl =  0.392425 ( 15.4%)   [10 : 11]
   e-/hole pair  2:  ampl =  0.352036 ( 12.4%)   [9 : 12]
   Sum of square amplitudes: 0.37

 NATURAL OCCUPATION NUMBERS (higher than 1.0E-05)
            1           2           3           4           5           6
    1   2.0000000   2.0000000   2.0000000   2.0000000   2.0000000   2.0000000
            7           8           9          10          11          12
    1   2.0000000   2.0000000   2.0000000   2.0000000   2.0000000   2.0000000
           13          14          15          16          17          18
    1   2.0000000   2.0000000   2.0000000   2.0000000   2.0000000   2.0000000
           19          20          21          22          23          24
    1   2.0000000   2.0000000   2.0000000   2.0000000   2.0000000   2.0000000
           25          26          27          28          29          30
    1   2.0000000   2.0000000   2.0000000   2.0000000   2.0000000   2.0000000
           31          32          33          34          35          36
    1   2.0000000   2.0000000   2.0000000   2.0000000   2.0000000   2.0000000
           37          38          39          40          41          42
    1   2.0000000   2.0000000   2.0000000   2.0000000   2.0000000   2.0000000
           43          44          45          46          47          48
    1   2.0000000   2.0000000   2.0000000   2.0000000   2.0000000   2.0000000
           49          50          51          52          53          54
    1   2.0000000   2.0000000   2.0000000   2.0000000   2.0000000   2.0000000
           55          56          57          58          59          60
    1   2.0000000   2.0000000   2.0000000   2.0000000   2.0000000   2.0000000
           61          62          63          64          65          66
    1   2.0000000   1.9982218   1.9966832   1.9953758   1.9930822   1.9801854
           67          68          69          70          71          72
    1   1.9793586   1.9507247   1.9429677   1.7991382   1.6378336   1.0274552
           73          74          75          76          77          78
    1   0.9493882   0.4229390   0.1744493   0.0572502   0.0490592   0.0171031
           79          80          81          82
    1   0.0163852   0.0061628   0.0039247   0.0023120
Natural Orbitals stored in FCHK

  Amplitudes : 
  
 | HOLE  | ALPHA      | BETA       | PART  |    AMPLITUDE 
--------------------------------------------------
 |       | 1111100000 | 1111001000 |       |    -3.6739866187345E-01
 |       | 1111100000 | 1101110000 |       |    -2.1797630438503E-01
 |       | 1111010000 | 1111000001 |       |    -1.9414511400568E-01
 |       | 1111010000 | 1110110000 |       |     3.2949544325530E-01
 |       | 1111001000 | 1111100000 |       |    -3.6739866187345E-01
 |       | 1111000001 | 1111010000 |       |    -1.9414511400568E-01
 |       | 1110110000 | 1111010000 |       |     3.2949544325530E-01
 |       | 1101110000 | 1111100000 |       |    -2.1797630438503E-01
 |  67   | 1111110000 | 1111100000 |       |    -1.2563150414643E-01
 |  67   | 1111100000 | 1111110000 |       |    -1.2563150414643E-01
 |  66   | 1111110000 | 1111010000 |       |    -1.2562508677626E-01
 |  66   | 1111010000 | 1111110000 |       |    -1.2562508677626E-01
 |       | 1111000000 | 1111100000 |  88   |    -1.0964456410988E-01
 |       | 1111100000 | 1111000000 |  88   |    -1.0964456410988E-01
 |       | 1111000000 | 1111010000 |  89   |    -1.0965018161439E-01
 |       | 1111010000 | 1111000000 |  89   |    -1.0965018161439E-01
--------------------------------------------------
*** Contributions RASCI wfn    Active:  79.61
                                 Hole:  11.62
                                 Part:   8.77

      Mulliken population analysis 
 ---------------------------------------------------
   Atom    Charge (a.u.)   Spin (a.u.)  
 ---------------------------------------------------
   1  C   -0.090117       -0.000000 
   2  C    0.000009       -0.000000 
   3  C   -0.090116       -0.000000 
   4  C   -0.065264       -0.000000 
   5  C   -0.021669       -0.000000 
   6  C   -0.036378       -0.000000 
   7  C    0.000908       -0.000000 
   8  C   -0.089814       -0.000000 
   9  C   -0.060071       -0.000000 
  10  C   -0.084431       -0.000000 
  11  H    0.087399       -0.000000 
  12  H    0.087399       -0.000000 
  13  H    0.098286       -0.000000 
  14  H    0.078704       -0.000000 
  15  H    0.087687       -0.000000 
  16  H    0.098232       -0.000000 
  17  H    0.087637       -0.000000 
  18  C   -0.036374       -0.000000 
  19  C   -0.072088       -0.000000 
  20  C    0.000008       -0.000000 
  21  H    0.078704       -0.000000 
  22  C   -0.075822       -0.000000 
  23  C   -0.003832       -0.000000 
  24  C   -0.017733       -0.000000 
  25  H    0.078241       -0.000000 
  26  C   -0.084431       -0.000000 
  27  C   -0.060069       -0.000000 
  28  C   -0.089812       -0.000000 
  29  C   -0.003831       -0.000000 
  30  C   -0.075823       -0.000000 
[...]
135 B1  154 A1  155 A1  136 B1  156 A1  157 A1  137 B1  158 A1                 
  3.921   3.925   3.925   4.001   4.001   4.009   4.036   4.036
159 A1  160 A1  138 B1  161 A1  139 B1  140 B1  162 A1  141 B1                 
  4.090   4.222   4.222   4.358   4.449   4.449   4.454   4.509
163 A1  142 B1  164 A1  165 A1  166 A1  143 B1  167 A1  144 B1                 
  4.509   4.509   4.675   4.675   4.681   4.918   4.918   5.236
168 A1  145 B1  146 B1  169 A1  170 A1  147 B1  171 A1  148 B1                 
  5.272   5.272   5.301   5.311   5.311  24.486  24.802  24.802
172 A1  149 B1  150 B1  151 B1  173 A1  174 A1  175 A1  152 B1                 
 24.979  24.992  24.992  25.082  25.097  25.097  25.108  25.168
176 A1  177 A1  153 B1  178 A1  179 A1  154 B1  155 B1  156 B1                 
 25.168  25.193  25.193  25.199  25.204  25.279  25.283  25.283
180 A1  157 B1  181 A1  182 A1  158 B1  183 A1  159 B1  184 A1                 
 25.342  25.342  25.343
185 A1  160 B1  186 A1                                                         
 --------------------------------------------------------------
 
          Ground-State Mulliken Net Atomic Charges

     Atom                 Charge (a.u.)
  ----------------------------------------
      1 C                    -0.093227
      2 C                     0.003874
      3 C                    -0.093227
      4 C                    -0.059396
      5 C                    -0.004889
      6 C                    -0.032430
      7 C                     0.003929
      8 C                    -0.093250
      9 C                    -0.059421
     10 C                    -0.093155
     11 H                     0.087678
     12 H                     0.087678
     13 H                     0.098493
     14 H                     0.078852
     15 H                     0.087675
     16 H                     0.098497
     17 H                     0.087678
     18 C                    -0.032430
     19 C                    -0.080588
     20 C                     0.003874
     21 H                     0.078852
     22 C                    -0.080263
     23 C                     0.003259
     24 C                    -0.031876
     25 H                     0.078865
     26 C                    -0.093155
     27 C                    -0.059421
     28 C                    -0.093250
     29 C                     0.003259
     30 C                    -0.080263
     31 C                     0.003928
     32 H                     0.087678
     33 H                     0.098497
     34 H                     0.087675
  ----------------------------------------
  Sum of atomic charges =     0.000000

  Do orbital-by-orbital Lowdin population analysis
 
 
 Partial Mulliken analysis unavailable for frozen orbitals
 
 -----------------------------------------------------------------
                    Cartesian Multipole Moments
 -----------------------------------------------------------------
    Charge (ESU x 10^10)
                -0.0000
    Dipole Moment (Debye)
         X      -0.0000      Y      -0.0000      Z      -0.0000
       Tot       0.0000
    Quadrupole Moments (Debye-Ang)
        XX    -107.8048     XY       0.0000     YY    -137.8470
        XZ      -0.0000     YZ       0.0000     ZZ    -107.8049
    Octopole Moments (Debye-Ang^2)
       XXX      -0.0000    XXY      -0.0000    XYY       0.0000
       YYY      -0.0000    XXZ       1.3818    XYZ      -0.0000
       YYZ      -0.0000    XZZ       0.0000    YZZ       0.0000
       ZZZ      -1.3818
    Hexadecapole Moments (Debye-Ang^3)
      XXXX   -3426.3839   XXXY       0.0000   XXYY    -757.9277
      XYYY      -0.0000   YYYY    -160.2343   XXXZ      -0.0000
      XXYZ       0.0000   XYYZ      -0.0000   YYYZ      -0.0000
      XXZZ   -1142.1298   XYZZ       0.0000   YYZZ    -757.9278
      XZZZ      -0.0000   YZZZ       0.0000   ZZZZ   -3426.3935
 -----------------------------------------------------------------
 Mayer SCF Bond Order, atomic valence on the diagonal:

            1           2           3           4           5           6
    1   3.8002203   0.0323751   0.0073305   1.4308150   0.0096134   0.0287149
    2   0.0323751   3.8130191   1.2550071  -0.0357091  -0.0027491   1.2992876
    3   0.0073305   1.2550071   3.8002203   1.4308150   0.0096134  -0.0161710
    4   1.4308150  -0.0357091   1.4308150   3.8355435  -0.0012931   0.0153550
    5   0.0096134  -0.0027491   0.0096134  -0.0012931   4.1473970   0.0240529
    6   0.0287149   1.2992876  -0.0161710   0.0153550   0.0240529   3.7129260
    7   0.0064116  -0.0225938   0.0091600   0.0006749  -0.0029718   1.2993183
    8   0.0077130   0.0064053   0.0083472   0.0007028   0.0095939   0.0287262
    9   0.0007028   0.0006752   0.0006809   0.0001468  -0.0012855   0.0153483
   10   0.0083460   0.0091558   0.0098944   0.0006819   0.0095391  -0.0161837
   11   0.9921070   0.0004961   0.0033380  -0.0136973  -0.0011543   0.0004653
   12   0.0033380  -0.0033599   0.9921071  -0.0136973  -0.0011543  -0.0046654
   13  -0.0105491   0.0035351  -0.0105491   0.9902833   0.0006697   0.0006701
   14   0.0003638  -0.0053714  -0.0040648   0.0000072   0.0015086   0.9897473
   15   0.0000884  -0.0001412   0.0001124  -0.0000115  -0.0011544   0.0004673
   16   0.0000007   0.0000982   0.0000266  -0.0000019   0.0006662   0.0006705
   17   0.0000188   0.0002157  -0.0000600   0.0000215  -0.0011505  -0.0046669
   18  -0.0161709   0.0060939   0.0287149   0.0153550   0.0240529   0.0121611
   19   0.0089804   1.2821852   0.0089805   0.0275143   1.3466612  -0.0045642
   20   1.2550071  -0.0451583   0.0323752  -0.0357092  -0.0027491   0.0060939
   21  -0.0040648  -0.0001875   0.0003638   0.0000072   0.0015086   0.0003679
   22   0.0014726   0.0168572   0.0010369   0.0097056   1.3456088  -0.0043056
   23   0.0041834  -0.0058246   0.0052768  -0.0013399  -0.0022572   0.0060744
   24  -0.0012706   0.0074775  -0.0012706   0.0044106   0.0241222   0.0121790
   25   0.0002176  -0.0003575   0.0002176  -0.0000738   0.0015165   0.0003650
   26   0.0098944   0.0052691   0.0083460   0.0006819   0.0095392  -0.0012622
   27   0.0006809  -0.0013392   0.0007028   0.0001468  -0.0012855   0.0044081
   28   0.0083472   0.0041868   0.0077130   0.0007028   0.0095939  -0.0012711
   29   0.0052768  -0.0087393   0.0041834  -0.0013399  -0.0022572   0.0074375
   30   0.0010369   0.0208518   0.0014726   0.0097056   1.3456088   0.0066057
   31   0.0091601  -0.0058322   0.0064116   0.0006749  -0.0029717   0.0074875
   32  -0.0000600   0.0000682   0.0000188   0.0000215  -0.0011505   0.0000163
   33   0.0000266   0.0001114   0.0000007  -0.0000019   0.0006662  -0.0000200
   34   0.0001124   0.0000298   0.0000884  -0.0000115  -0.0011544   0.0000161
            7           8           9          10          11          12
    1   0.0064116   0.0077130   0.0007028   0.0083460   0.9921070   0.0033380
    2  -0.0225938   0.0064053   0.0006752   0.0091558   0.0004961  -0.0033599
    3   0.0091600   0.0083472   0.0006809   0.0098944   0.0033380   0.9921071
    4   0.0006749   0.0007028   0.0001468   0.0006819  -0.0136973  -0.0136973
    5  -0.0029718   0.0095939  -0.0012855   0.0095391  -0.0011543  -0.0011543
    6   1.2993183   0.0287262   0.0153483  -0.0161837   0.0004653  -0.0046654
    7   3.8126537   0.0323595  -0.0356687   1.2550146  -0.0001399   0.0002161
    8   0.0323595   3.8001927   1.4307930   0.0073280   0.0000880   0.0000185
    9  -0.0356687   1.4307930   3.8355568   1.4308236  -0.0000113   0.0000218
   10   1.2550146   0.0073280   1.4308236   3.8000864   0.0001122  -0.0000603
   11  -0.0001399   0.0000880  -0.0000113   0.0001122   0.9826830   0.0007030
   12   0.0002161   0.0000185   0.0000218  -0.0000603   0.0007030   0.9826830
   13   0.0000997   0.0000007  -0.0000019   0.0000267  -0.0022438  -0.0022438
   14  -0.0053866   0.0003630   0.0000079  -0.0040634   0.0000348   0.0031503
   15   0.0004928   0.9921066  -0.0136977   0.0033376   0.0000023   0.0000089
   16   0.0035361  -0.0105478   0.9902787  -0.0105476  -0.0000003  -0.0000010
   17  -0.0033547   0.0033367  -0.0136966   0.9921067   0.0000088   0.0000322
   18   0.0074876  -0.0012711   0.0044081  -0.0012622  -0.0046654   0.0004653
   19   0.0169529   0.0014854   0.0096968   0.0010789   0.0061849   0.0061849
   20  -0.0058323   0.0041868  -0.0013392   0.0052691  -0.0033599   0.0004961
   21  -0.0003593   0.0002183  -0.0000735   0.0002174   0.0031503   0.0000348
   22   1.2819315   0.0090035   0.0275130   0.0088738   0.0006648   0.0002562
   23  -0.0451238   1.2550016  -0.0357106   0.0323689   0.0000291   0.0000683
   24   0.0060811  -0.0161862   0.0153558   0.0287258   0.0000165   0.0000165
   25  -0.0001846  -0.0040633   0.0000071   0.0003645  -0.0000066  -0.0000066
   26   0.0041630   0.0083489   0.0007023   0.0077142  -0.0000603   0.0001122
   27  -0.0013331   0.0006800   0.0001474   0.0007023   0.0000218  -0.0000113
   28   0.0052705   0.0098977   0.0006800   0.0083489   0.0000185   0.0000880
   29  -0.0057735   0.0091547   0.0006752   0.0064038   0.0000683   0.0000291
   30   0.0207394   0.0010530   0.0097018   0.0014989   0.0002562   0.0006648
   31  -0.0087435   0.0052705  -0.0013331   0.0041630   0.0002161  -0.0001399
   32   0.0000298   0.0001118  -0.0000113   0.0000880   0.0000322   0.0000088
   33   0.0001117   0.0000267  -0.0000020   0.0000008  -0.0000010  -0.0000003
   34   0.0000681  -0.0000604   0.0000218   0.0000186   0.0000089   0.0000023
           13          14          15          16          17          18
    1  -0.0105491   0.0003638   0.0000884   0.0000007   0.0000188  -0.0161709
    2   0.0035351  -0.0053714  -0.0001412   0.0000982   0.0002157   0.0060939
    3  -0.0105491  -0.0040648   0.0001124   0.0000266  -0.0000600   0.0287149
    4   0.9902833   0.0000072  -0.0000115  -0.0000019   0.0000215   0.0153550
    5   0.0006697   0.0015086  -0.0011544   0.0006662  -0.0011505   0.0240529
    6   0.0006701   0.9897473   0.0004673   0.0006705  -0.0046669   0.0121611
    7   0.0000997  -0.0053866   0.0004928   0.0035361  -0.0033547   0.0074876
    8   0.0000007   0.0003630   0.9921066  -0.0105478   0.0033367  -0.0012711
    9  -0.0000019   0.0000079  -0.0136977   0.9902787  -0.0136966   0.0044081
   10   0.0000267  -0.0040634   0.0033376  -0.0105476   0.9921067  -0.0012622
   11  -0.0022438   0.0000348   0.0000023  -0.0000003   0.0000088  -0.0046654
   12  -0.0022438   0.0031503   0.0000089  -0.0000010   0.0000322   0.0004653
   13   0.9737791  -0.0000130  -0.0000003   0.0000041  -0.0000010   0.0006701
   14  -0.0000130   0.9885803   0.0000350  -0.0000128   0.0031500   0.0003679
   15  -0.0000003   0.0000350   0.9826855  -0.0022437   0.0007029   0.0000161
   16   0.0000041  -0.0000128  -0.0022437   0.9737779  -0.0022437  -0.0000200
   17  -0.0000010   0.0031500   0.0007029  -0.0022437   0.9826772   0.0000163
   18   0.0006701   0.0003679   0.0000161  -0.0000200   0.0000163   3.7129260
   19   0.0000431   0.0041864   0.0006645  -0.0002398   0.0002568  -0.0045642
   20   0.0035351  -0.0001875   0.0000298   0.0001114   0.0000682   1.2992875
   21  -0.0000130   0.0000903  -0.0000066   0.0000083  -0.0000066   0.9897473
   22  -0.0002424   0.0041874   0.0061854   0.0000448   0.0061725   0.0066057
   23   0.0001127  -0.0001802  -0.0033547   0.0035351   0.0004993   0.0074374
   24  -0.0000208   0.0003636  -0.0046662   0.0006703   0.0004630   0.0121790
   25   0.0000084   0.0000900   0.0031506  -0.0000129   0.0000349   0.0003650
   26   0.0000267   0.0002174   0.0000186   0.0000008   0.0000880  -0.0161837
   27  -0.0000019  -0.0000735   0.0000218  -0.0000020  -0.0000113   0.0153483
   28   0.0000007   0.0002183  -0.0000604   0.0000267   0.0001118   0.0287262
   29   0.0001127  -0.0003585   0.0002154   0.0000988  -0.0001386   0.0060743
   30  -0.0002424   0.0005671   0.0002575  -0.0002406   0.0006623  -0.0043056
   31   0.0000997  -0.0003593   0.0000681   0.0001117   0.0000298   1.2993183
   32  -0.0000010  -0.0000066   0.0000088  -0.0000003   0.0000023  -0.0046669
   33   0.0000041   0.0000083  -0.0000010   0.0000041  -0.0000003   0.0006705
   34  -0.0000003  -0.0000066   0.0000322  -0.0000010   0.0000088   0.0004673
           19          20          21          22          23          24
    1   0.0089804   1.2550071  -0.0040648   0.0014726   0.0041834  -0.0012706
    2   1.2821852  -0.0451583  -0.0001875   0.0168572  -0.0058246   0.0074775
    3   0.0089805   0.0323752   0.0003638   0.0010369   0.0052768  -0.0012706
    4   0.0275143  -0.0357092   0.0000072   0.0097056  -0.0013399   0.0044106
    5   1.3466612  -0.0027491   0.0015086   1.3456088  -0.0022572   0.0241222
    6  -0.0045642   0.0060939   0.0003679  -0.0043056   0.0060744   0.0121790
    7   0.0169529  -0.0058323  -0.0003593   1.2819315  -0.0451238   0.0060811
    8   0.0014854   0.0041868   0.0002183   0.0090035   1.2550016  -0.0161862
    9   0.0096968  -0.0013392  -0.0000735   0.0275130  -0.0357106   0.0153558
   10   0.0010789   0.0052691   0.0002174   0.0088738   0.0323689   0.0287258
   11   0.0061849  -0.0033599   0.0031503   0.0006648   0.0000291   0.0000165
   12   0.0061849   0.0004961   0.0000348   0.0002562   0.0000683   0.0000165
   13   0.0000431   0.0035351  -0.0000130  -0.0002424   0.0001127  -0.0000208
   14   0.0041864  -0.0001875   0.0000903   0.0041874  -0.0001802   0.0003636
   15   0.0006645   0.0000298  -0.0000066   0.0061854  -0.0033547  -0.0046662
   16  -0.0002398   0.0001114   0.0000083   0.0000448   0.0035351   0.0006703
   17   0.0002568   0.0000682  -0.0000066   0.0061725   0.0004993   0.0004630
   18  -0.0045642   1.2992875   0.9897473   0.0066057   0.0074374   0.0121790
   19   4.0199519   1.2821851   0.0041863  -0.0283497   0.0207521   0.0066296
   20   1.2821851   3.8130192  -0.0053715   0.0208519  -0.0087393   0.0074775
   21   0.0041863  -0.0053715   0.9885803   0.0005671  -0.0003585   0.0003636
   22  -0.0283497   0.0208519   0.0005671   4.0177842   1.2823552  -0.0047564
   23   0.0207521  -0.0087393  -0.0003585   1.2823552   3.8138942   1.2994215
   24   0.0066296   0.0074775   0.0003636  -0.0047564   1.2994215   3.7126228
   25   0.0005625  -0.0003575   0.0000900   0.0041779  -0.0053715   0.9897320
   26   0.0010789   0.0091558  -0.0040634   0.0014989   0.0064039   0.0287258
   27   0.0096968   0.0006752   0.0000079   0.0097018   0.0006752   0.0153558
   28   0.0014854   0.0064053   0.0003630   0.0010530   0.0091547  -0.0161862
   29   0.0207522  -0.0058246  -0.0001802   0.0168625  -0.0224598   1.2994215
   30  -0.0283497   0.0168573   0.0041874  -0.0291685   0.0168625  -0.0047565
   31   0.0169529  -0.0225938  -0.0053866   0.0207393  -0.0057734   0.0060811
   32   0.0002568   0.0002157   0.0031500   0.0006623  -0.0001386   0.0004630
   33  -0.0002398   0.0000982  -0.0000128  -0.0002406   0.0000988   0.0006703
   34   0.0006645  -0.0001412   0.0000350   0.0002575   0.0002154  -0.0046662
           25          26          27          28          29          30
    1   0.0002176   0.0098944   0.0006809   0.0083472   0.0052768   0.0010369
    2  -0.0003575   0.0052691  -0.0013392   0.0041868  -0.0087393   0.0208518
    3   0.0002176   0.0083460   0.0007028   0.0077130   0.0041834   0.0014726
    4  -0.0000738   0.0006819   0.0001468   0.0007028  -0.0013399   0.0097056
    5   0.0015165   0.0095392  -0.0012855   0.0095939  -0.0022572   1.3456088
    6   0.0003650  -0.0012622   0.0044081  -0.0012711   0.0074375   0.0066057
    7  -0.0001846   0.0041630  -0.0013331   0.0052705  -0.0057735   0.0207394
    8  -0.0040633   0.0083489   0.0006800   0.0098977   0.0091547   0.0010530
    9   0.0000071   0.0007023   0.0001474   0.0006800   0.0006752   0.0097018
   10   0.0003645   0.0077142   0.0007023   0.0083489   0.0064038   0.0014989
   11  -0.0000066  -0.0000603   0.0000218   0.0000185   0.0000683   0.0002562
   12  -0.0000066   0.0001122  -0.0000113   0.0000880   0.0000291   0.0006648
   13   0.0000084   0.0000267  -0.0000019   0.0000007   0.0001127  -0.0002424
   14   0.0000900   0.0002174  -0.0000735   0.0002183  -0.0003585   0.0005671
   15   0.0031506   0.0000186   0.0000218  -0.0000604   0.0002154   0.0002575
   16  -0.0000129   0.0000008  -0.0000020   0.0000267   0.0000988  -0.0002406
   17   0.0000349   0.0000880  -0.0000113   0.0001118  -0.0001386   0.0006623
   18   0.0003650  -0.0161837   0.0153483   0.0287262   0.0060743  -0.0043056
   19   0.0005625   0.0010789   0.0096968   0.0014854   0.0207522  -0.0283497
   20  -0.0003575   0.0091558   0.0006752   0.0064053  -0.0058246   0.0168573
   21   0.0000900  -0.0040634   0.0000079   0.0003630  -0.0001802   0.0041874
   22   0.0041779   0.0014989   0.0097018   0.0010530   0.0168625  -0.0291685
   23  -0.0053715   0.0064039   0.0006752   0.0091547  -0.0224598   0.0168625
   24   0.9897320   0.0287258   0.0153558  -0.0161862   1.2994215  -0.0047565
   25   0.9885675   0.0003645   0.0000071  -0.0040633  -0.0053715   0.0041779
   26   0.0003645   3.8000864   1.4308236   0.0073280   0.0323689   0.0088738
   27   0.0000071   1.4308236   3.8355568   1.4307930  -0.0357106   0.0275130
   28  -0.0040633   0.0073280   1.4307930   3.8001927   1.2550016   0.0090035
   29  -0.0053715   0.0323689  -0.0357106   1.2550016   3.8138943   1.2823552
   30   0.0041779   0.0088738   0.0275130   0.0090035   1.2823552   4.0177842
   31  -0.0001846   1.2550146  -0.0356687   0.0323595  -0.0451238   1.2819315
   32   0.0000349   0.9921068  -0.0136966   0.0033367   0.0004993   0.0061725
   33  -0.0000129  -0.0105476   0.9902787  -0.0105478   0.0035351   0.0000448
   34   0.0031506   0.0033376  -0.0136977   0.9921066  -0.0033547   0.0061854
           31          32          33          34
    1   0.0091601  -0.0000600   0.0000266   0.0001124
    2  -0.0058322   0.0000682   0.0001114   0.0000298
    3   0.0064116   0.0000188   0.0000007   0.0000884
    4   0.0006749   0.0000215  -0.0000019  -0.0000115
    5  -0.0029717  -0.0011505   0.0006662  -0.0011544
    6   0.0074875   0.0000163  -0.0000200   0.0000161
    7  -0.0087435   0.0000298   0.0001117   0.0000681
    8   0.0052705   0.0001118   0.0000267  -0.0000604
    9  -0.0013331  -0.0000113  -0.0000020   0.0000218
   10   0.0041630   0.0000880   0.0000008   0.0000186
   11   0.0002161   0.0000322  -0.0000010   0.0000089
   12  -0.0001399   0.0000088  -0.0000003   0.0000023
   13   0.0000997  -0.0000010   0.0000041  -0.0000003
   14  -0.0003593  -0.0000066   0.0000083  -0.0000066
   15   0.0000681   0.0000088  -0.0000010   0.0000322
   16   0.0001117  -0.0000003   0.0000041  -0.0000010
   17   0.0000298   0.0000023  -0.0000003   0.0000088
   18   1.2993183  -0.0046669   0.0006705   0.0004673
   19   0.0169529   0.0002568  -0.0002398   0.0006645
   20  -0.0225938   0.0002157   0.0000982  -0.0001412
   21  -0.0053866   0.0031500  -0.0000128   0.0000350
   22   0.0207393   0.0006623  -0.0002406   0.0002575
   23  -0.0057734  -0.0001386   0.0000988   0.0002154
   24   0.0060811   0.0004630   0.0006703  -0.0046662
   25  -0.0001846   0.0000349  -0.0000129   0.0031506
   26   1.2550146   0.9921068  -0.0105476   0.0033376
   27  -0.0356687  -0.0136966   0.9902787  -0.0136977
   28   0.0323595   0.0033367  -0.0105478   0.9921066
   29  -0.0451238   0.0004993   0.0035351  -0.0033547
   30   1.2819315   0.0061725   0.0000448   0.0061854
   31   3.8126537  -0.0033548   0.0035361   0.0004928
   32  -0.0033548   0.9826773  -0.0022437   0.0007029
   33   0.0035361  -0.0022437   0.9737779  -0.0022437
   34   0.0004928   0.0007029  -0.0022437   0.9826855


 Total job time:  122819.71s(wall), 110002.29s(cpu) 
 Fri Sep  8 04:45:23 2023

        *************************************************************
        *                                                           *
        *  Thank you very much for using Q-Chem.  Have a nice day.  *
        *                                                           *
        *************************************************************


