                  Welcome to Q-Chem
     A Quantum Leap Into The Future Of Chemistry


 Q-Chem 5.4 (devel), Q-Chem, Inc., Pleasanton, CA (2021)

 E. Epifanovsky,  A. T. B. Gilbert,  Xintian Feng,  Joonho Lee,  Yuezhi Mao,  
 N. Mardirossian,  P. Pokhilko,  A. White,  M. Wormit,  M. P. Coons,  
 A. L. Dempwolff,  Zhengting Gan,  D. Hait,  P. R. Horn,  L. D. Jacobson,  
 I. Kaliman,  J. Kussmann,  A. W. Lange,  Ka Un Lao,  D. S. Levine,  Jie Liu,  
 S. C. McKenzie,  A. F. Morrison,  K. Nanda,  F. Plasser,  D. R. Rehn,  
 M. L. Vidal,  Zhi-Qiang You,  Ying Zhu,  B. Alam,  B. Albrecht,  
 A. Aldossary,  E. Alguire,  J. H. Andersen,  D. Barton,  K. Begam,  A. Behn,  
 Y. A. Bernard,  E. J. Berquist,  H. Burton,  A. Carreras,  K. Carter-Fenk,  
 Romit Chakraborty,  A. D. Chien,  K. D. Closser,  V. Cofer-Shabica,  
 S. Dasgupta,  Jia Deng,  M. de Wergifosse,  M. Diedenhofen,  Hainam Do,  
 S. Ehlert,  Po-Tung Fang,  S. Fatehi,  Qingguo Feng,  T. Friedhoff,  
 J. Gayvert,  Qinghui Ge,  G. Gidofalvi,  M. Goldey,  J. Gomes,  
 C. Gonzalez-Espinoza,  S. Gulania,  A. Gunina,  M. W. D. Hanson-Heine,  
 P. H. P. Harbach,  A. W. Hauser,  M. F. Herbst,  M. Hernandez Vera,  
 M. Hodecker,  Z. C. Holden,  S. Houck,  Xunkun Huang,  Kerwin Hui,  
 B. C. Huynh,  M. Ivanov,  Hyunjun Ji,  Hanjie Jiang,  B. Kaduk,  S. Kaehler,  
 K. Khistyaev,  Jaehoon Kim,  P. Klunzinger,  Z. Koczor-Benda,  
 Joong Hoon Koh,  D. Kosenkov,  L. Koulias,  T. Kowalczyk,  C. M. Krauter,  
 K. Kue,  A. Kunitsa,  T. Kus,  A. Landau,  K. V. Lawler,  D. Lefrancois,  
 S. Lehtola,  Rain Li,  Yi-Pei Li,  Jiashu Liang,  M. Liebenthal,  
 Hung-Hsuan Lin,  You-Sheng Lin,  Fenglai Liu,  Kuan-Yu Liu,  
 M. Loipersberger,  A. Luenser,  A. Manjanath,  P. Manohar,  E. Mansoor,  
 S. F. Manzer,  Shan-Ping Mao,  A. V. Marenich,  T. Markovich,  S. Mason,  
 S. A. Maurer,  P. F. McLaughlin,  M. F. S. J. Menger,  J.-M. Mewes,  
 S. A. Mewes,  P. Morgante,  J. W. Mullinax,  K. J. Oosterbaan,  G. Paran,  
 Alexander C. Paul,  Suranjan K. Paul,  F. Pavosevic,  Zheng Pei,  S. Prager,  
 E. I. Proynov,  E. Ramos,  B. Rana,  A. E. Rask,  A. Rettig,  R. M. Richard,  
 F. Rob,  E. Rossomme,  T. Scheele,  M. Scheurer,  M. Schneider,  
 N. Sergueev,  S. M. Sharada,  W. Skomorowski,  D. W. Small,  C. J. Stein,  
 Yu-Chuan Su,  E. J. Sundstrom,  Zhen Tao,  J. Thirman,  T. Tsuchimochi,  
 N. M. Tubman,  S. P. Veccham,  O. Vydrov,  J. Wenzel,  J. Witte,  A. Yamada,  
 Kun Yao,  S. Yeganeh,  S. R. Yost,  A. Zech,  Igor Ying Zhang,  Xing Zhang,  
 Yu Zhang,  D. Zuev,  A. Aspuru-Guzik,  A. T. Bell,  N. A. Besley,  
 K. B. Bravaya,  B. R. Brooks,  D. Casanova,  Jeng-Da Chai,  S. Coriani,  
 C. J. Cramer,  A. E. DePrince, III,  R. A. DiStasio Jr.,  A. Dreuw,  
 B. D. Dunietz,  T. R. Furlani,  W. A. Goddard III,  S. Grimme,  
 S. Hammes-Schiffer,  T. Head-Gordon,  W. J. Hehre,  Chao-Ping Hsu,  
 T.-C. Jagau,  Yousung Jung,  A. Klamt,  Jing Kong,  D. S. Lambrecht,  
 WanZhen Liang,  N. J. Mayhall,  C. W. McCurdy,  J. B. Neaton,  T. Neudecker,  
 C. Ochsenfeld,  J. A. Parkhill,  R. Peverati,  V. A. Rassolov,  Yihan Shao,  
 L. V. Slipchenko,  R. P. Steele,  J. E. Subotnik,  A. J. W. Thom,  
 A. Tkatchenko,  D. G. Truhlar,  T. Van Voorhis,  T. A. Wesolowski,  
 K. B. Whaley,  H. L. Woodcock III,  P. M. Zimmerman,  S. Faraji,  
 P. M. W. Gill,  M. Head-Gordon,  J. M. Herbert,  A. I. Krylov

 Additional authors since Version 5.4.0: 
 Chandrima Chakravarty,  L. Cunha,  R. Kang,  Yongbin Kim,  S. Kotaru,  
 Shaozhi Li,  Xiangyuan Li,  F. Matz,  V. Parravicini,  Haisheng Ren,  
 Hengyuan Shen,  Yingli Su,  Hung-Yi Tsai,  C. Utku,  Fan Wang,  Jeff Yang,  
 F. Zeller

 Contributors to earlier versions of Q-Chem not listed above: 
 R. D. Adamson,  B. Austin,  R. Baer,  J. Baker,  G. J. O. Beran,  
 K. Brandhorst,  S. T. Brown,  E. F. C. Byrd,  Arup K. Chakraborty,  
 G. K. L. Chan,  Chun-Min Chang,  Yunqing Chen,  C.-L. Cheng,  
 Siu Hung Chien,  D. M. Chipman,  D. L. Crittenden,  H. Dachsel,  
 R. J. Doerksen,  A. D. Dutoi,  R. G. Edgar,  J. Fosso-Tande,  
 L. Fusti-Molnar,  D. Ghosh,  A. Ghysels,  A. Golubeva-Zadorozhnaya,  
 J. Gonthier,  M. S. Gordon,  S. R. Gwaltney,  G. Hawkins,  J. E. Herr,  
 A. Heyden,  S. Hirata,  E. G. Hohenstein,  G. Kedziora,  F. J. Keil,  
 C. Kelley,  Jihan Kim,  R. A. King,  R. Z. Khaliullin,  P. P. Korambath,  
 W. Kurlancheek,  A. Laurent,  A. M. Lee,  M. S. Lee,  S. V. Levchenko,  
 Ching Yeh Lin,  D. Liotard,  E. Livshits,  R. C. Lochan,  I. Lotan,  
 L. A. Martinez-Martinez,  P. E. Maslen,  N. Nair,  D. P. O'Neill,  
 D. Neuhauser,  E. Neuscamman,  C. M. Oana,  R. Olivares-Amaya,  R. Olson,  
 T. M. Perrine,  B. Peters,  P. A. Pieniazek,  A. Prociuk,  Y. M. Rhee,  
 J. Ritchie,  M. A. Rohrdanz,  E. Rosta,  N. J. Russ,  H. F. Schaefer III,  
 M. W. Schmidt,  N. E. Schultz,  S. Sharma,  N. Shenvi,  C. D. Sherrill,  
 A. C. Simmonett,  A. Sodt,  T. Stein,  D. Stuck,  K. S. Thanthiriwatte,  
 V. Vanovschi,  L. Vogt,  Tao Wang,  A. Warshel,  M. A. Watson,  
 C. F. Williams,  Q. Wu,  X. Xu,  Jun Yang,  W. Zhang,  Yan Zhao

   Please cite Q-Chem as follows:
  "Software for the frontiers of quantum chemistry:
   An overview of developments in the Q-Chem 5 package"
   J. Chem. Phys. 155, 084801 (2021)
   https://doi.org/10.1063/5.0055522 (open access)

 Q-Chem 5.4.2 for Intel X86 EM64T Linux

 Parts of Q-Chem use Armadillo 9.900.5 (Nocturnal Misbehaviour).
 http://arma.sourceforge.net/

 Q-Chem begins on Sun Apr 10 07:09:29 2022  

orc20
 Host: 0

     Scratch files written to /scratch/sven/qchem21004//
 Processing $rem in /qcsoftware/qchem_latest/config/preferences:
 Processing $rem in /home/users/sven/.qchemrc:
 Core orbitals will be frozen

 Checking the input file for inconsistencies... 	...done.

--------------------------------------------------------------
User input:
--------------------------------------------------------------
$ COMMENT
    Performing an EOM-IP-CCSD calculation including SOC
$end

$molecule
-2 1
  Ni    0.0000000    0.0000000    0.0000000
  S   -0.0000000   -1.5567307   -1.5012948
  S    0.0000000    1.5567307   -1.5012948
  S    0.0000000    1.5567307    1.5012948
  S   -0.0000000   -1.5567307    1.5012948
  C    0.0000000   -0.6948353   -3.0023871
  C   -0.0000000   -1.4572587   -4.1973307
  C    0.0000000    0.6948353   -3.0023871
  C    0.0000000    1.4572587   -4.1973307
  N   -0.0000000   -2.1094993   -5.1671916
  N    0.0000000    2.1094993   -5.1671916
  C   -0.0000000    0.6948353    3.0023871
  C    0.0000000    1.4572587    4.1973307
  C   -0.0000000   -0.6948353    3.0023871
  C   -0.0000000   -1.4572587    4.1973307
  N    0.0000000    2.1094993    5.1671916
  N   -0.0000000   -2.1094993    5.1671916
$end

$rem
 !input_bohr = true
 !n_frozen_core = 0
 JOBTYPE           = SP 
 METHOD            = EOM-MP2
 IP_STATES         = [15,15,15,15,15,15,15,15]
 CC_STATE_TO_OPT   = [3,1]
 CC_REF_PROP = 1
 CC_EOM_PROP = 1
 CC_EOM_PROP_TE           = 1
 CC_TRANS_PROP            = 1
 CALC_SOC = TRUE
 SCF_ALGORITHM = DIIS_GDM
 !SCF_GUESS = CORE
 !SCF_GUESS = AUTOSAD
 MAX_SCF_CYCLES = 250
 EOM_DAVIDSON_MAX_ITER = 250
 MEM_TOTAL = 90000
 !CC_MEMORY = 900
 MEM_STATIC = 1000
 !SOLVENT_METHOD = PCM
 CHOLESKY_TOL = 3
 !CC_OSFNO = true
 !CC_FNO_THRESH = 9900
 BASIS def2-TZVP
 PRINT_ORBITALS   = 15
 MOLDEN_FORMAT    = TRUE
 STATE_ANALYSIS = TRUE
$end

!$van_der_waals
!1
!27 1.92
!$end
!$pcm
!SWIG
!$end
--------------------------------------------------------------
 ----------------------------------------------------------------
             Standard Nuclear Orientation (Angstroms)
    I     Atom           X                Y                Z
 ----------------------------------------------------------------
    1      Ni      0.0000000000     0.0000000000     0.0000000000
    2      S      -1.5012948000     1.5567307000    -0.0000000000
    3      S      -1.5012948000    -1.5567307000     0.0000000000
    4      S       1.5012948000    -1.5567307000     0.0000000000
    5      S       1.5012948000     1.5567307000    -0.0000000000
    6      C      -3.0023871000     0.6948353000    -0.0000000000
    7      C      -4.1973307000     1.4572587000    -0.0000000000
    8      C      -3.0023871000    -0.6948353000     0.0000000000
    9      C      -4.1973307000    -1.4572587000     0.0000000000
   10      N      -5.1671916000     2.1094993000    -0.0000000000
   11      N      -5.1671916000    -2.1094993000     0.0000000000
   12      C       3.0023871000    -0.6948353000     0.0000000000
   13      C       4.1973307000    -1.4572587000     0.0000000000
   14      C       3.0023871000     0.6948353000    -0.0000000000
   15      C       4.1973307000     1.4572587000    -0.0000000000
   16      N       5.1671916000    -2.1094993000     0.0000000000
   17      N       5.1671916000     2.1094993000    -0.0000000000
 ----------------------------------------------------------------
 Molecular Point Group                 D2h   NOp =  8
 Largest Abelian Subgroup              D2h   NOp =  8
 Nuclear Repulsion Energy =        1982.41339911 hartrees
 There are       85 alpha and       85 beta electrons
 Requested basis set is def2-TZVP
 There are 199 shells and 565 basis functions
 Total memory of 90000 MB is distributed as follows: 
   MEM_STATIC is set to 1000 MB
   QALLOC/CCMAN JOB total memory use is  89000 MB
 Warning: actual memory use might exceed 90000 MB

 Total QAlloc Memory Limit  90000 MB
 Mega-Array Size       978 MB
 MEM_STATIC part      1000 MB

 A cutoff of  1.0D-14 yielded  13496 shell pairs
 There are    108996 function pairs (    143311 Cartesian)
 Smallest overlap matrix eigenvalue = 2.45E-05

 Scale SEOQF with 1.000000e-02/1.000000e-01/1.000000e+00

 Standard Electronic Orientation quadrupole field applied
 Nucleus-field energy     =     0.0000000299 hartrees
 Guess from superposition of atomic densities
 Warning:  Energy on first SCF cycle will be non-variational
 SAD guess density has 168.000000 electrons

 -----------------------------------------------------------------------
  General SCF calculation program by
  Eric Jon Sundstrom, Paul Horn, Yuezhi Mao, Dmitri Zuev, Alec White,
  David Stuck, Shaama M.S., Shane Yost, Joonho Lee, David Small,
  Daniel Levine, Susi Lehtola, Hugh Burton, Evgeny Epifanovsky,
  Bang C. Huynh
 -----------------------------------------------------------------------
 Hartree-Fock
 using 12 threads for integral computing
 -------------------------------------------------------
 OpenMP Integral computing Module                
 Release: version 1.0, May 2013, Q-Chem Inc. Pittsburgh 
 -------------------------------------------------------
 A restricted SCF calculation will be
 performed using DIIS, GDM
 SCF converges when RMS gradient is below 1.0e-08
 ---------------------------------------
  Cycle       Energy         DIIS error
 ---------------------------------------
    1   -3622.3790654034      2.52e-02  
    2   -3617.5051380646      2.70e-03  Done DIIS. Switching to GDM
 ---------------------------------------
  Cycle       Energy        RMS Gradient
 ---------------------------------------
    1   -3617.5051380646      2.10e-01   Descent step
    2   -3617.7973811290      6.25e-02   Dog-leg BFGS step
    3   -3617.9058122655      1.27e-01   Dog-leg BFGS step
    4   -3617.9281724977      8.71e-02   Normal BFGS step
    5   -3617.9686855578      6.42e-03   Normal BFGS step
    6   -3617.9720112477      6.88e-03   Normal BFGS step
    7   -3617.9724910549      2.44e-03   Normal BFGS step
    8   -3617.9725226289      3.97e-04   Normal BFGS step
    9   -3617.9725273812      1.01e-04   Normal BFGS step
   10   -3617.9725278363      4.08e-05   Normal BFGS step
   11   -3617.9725279181      2.42e-05   Normal BFGS step
   12   -3617.9725279349      9.55e-06   Normal BFGS step
   13   -3617.9725279406      4.24e-06   Normal BFGS step
   14   -3617.9725279416      1.92e-06   Normal BFGS step
   15   -3617.9725279416      6.71e-07   Normal BFGS step
   16   -3617.9725279416      3.26e-07   Normal BFGS step
   17   -3617.9725279415      8.98e-08   Normal BFGS step
   18   -3617.9725279415      5.34e-08   Normal BFGS step
   19   -3617.9725279415      1.73e-08   Normal BFGS step
  GDM::WARNING energy changes are now smaller than effective accuracy.
  GDM::        calculation will continue, but THRESH should be increased
  GDM::        or SCF_CONVERGENCE decreased. 
  GDM::        effective_thresh = 4.82e-09
   20   -3617.9725279415      5.80e-09  Convergence criterion met
 ---------------------------------------
 SCF time:   CPU 1608.56s  wall 145.00s 
 SCF   energy in the final basis set =    -3617.9725279415
 Total energy in the final basis set =    -3617.9725279415

 Q-Chem warning in module /qcsoftware/qchem-wojcik/trunk-03242022/libsym/oriorb.F, line  204:

 Quadrupole field failed to resolve orbital degeneracies.


 Q-Chem warning in module /qcsoftware/qchem-wojcik/trunk-03242022/libsym/oriorb.F, line  204:

 Quadrupole field failed to resolve orbital degeneracies.

 mp2 is not implemented in computing transition properties!


 ------------------------------------------------------------------------------

   CCMAN2: suite of methods based on coupled cluster
           and equation of motion theories.

   Components:
   * libvmm-1.3-trunk
     by Evgeny Epifanovsky, Ilya Kaliman.
   * libtensor-2.5-trunk
     by Evgeny Epifanovsky, Michael Wormit, Dmitry Zuev, Sam Manzer, 
        Ilya Kaliman.
   * libcc-2.5-trunk
     by Evgeny Epifanovsky, Arik Landau, Tomasz Kus, Kirill Khistyaev, 
        Dmitry Zuev, Prashant Manohar, Xintian Feng, Anna Krylov, 
        Matthew Goldey, Alec White, Thomas Jagau, Kaushik Nanda, 
        Anastasia Gunina, Alexander Kunitsa, Joonho Lee.

   CCMAN original authors:
   Anna I. Krylov, C. David Sherrill, Steven R. Gwaltney,
   Edward F. C. Byrd (2000)
   Sergey V. Levchenko, Lyudmila V. Slipchenko, Tao Wang,
   Ana-Maria C. Cristian (2003)
   Piotr A. Pieniazek, C. Melania Oana, Evgeny Epifanovsky (2007)
   Prashant Manohar (2009)

 ------------------------------------------------------------------------------


 Allocating and initializing 89000MB of RAM...
 Calculation will run on 12 cores.


 Alpha MOs, Restricted
 -- Occupied --                  
-305.32  -91.70  -91.70  -91.70  -91.70  -37.62  -32.65  -32.65
  1 Ag    1 B1g   1 B2u   1 B3u   2 Ag    3 Ag    2 B2u   2 B3u                
-32.621 -15.379 -15.379 -15.379 -15.379 -11.096 -11.096 -11.095
  1 B1u   2 B1g   3 B2u   3 B3u   4 Ag    4 B3u   5 Ag    3 B1g                
-11.095 -11.091 -11.091 -11.091 -11.091  -8.705  -8.705  -8.705
  4 B2u   5 B3u   6 Ag    4 B1g   5 B2u   6 B2u   5 B1g   6 B3u                
 -8.705  -6.387  -6.387  -6.387  -6.387  -6.385  -6.385  -6.385
  7 Ag    7 B2u   6 B1g   8 Ag    7 B3u   7 B1g   8 B3u   9 Ag                 
 -6.385  -6.385  -6.385  -6.385  -6.385  -4.579  -2.986  -2.984
  8 B2u   1 B2g   1 Au    1 B3g   2 B1u  10 Ag    9 B2u   9 B3u                
 -2.956  -1.028  -1.028  -1.019  -1.019  -0.923  -0.921  -0.790
  3 B1u  11 Ag   10 B3u  10 B2u   8 B1g  12 Ag   11 B3u  11 B2u                
 -0.786  -0.716  -0.691  -0.629  -0.614  -0.545  -0.540  -0.445
  9 B1g  13 Ag   12 B3u  12 B2u  10 B1g  14 Ag   13 B3u  15 Ag                 
 -0.397  -0.384  -0.379  -0.375  -0.372  -0.369  -0.361  -0.353
 16 Ag   13 B2u  11 B1g  14 B3u  17 Ag    2 B2g   2 B3g   4 B1u                
 -0.346  -0.344  -0.331  -0.316  -0.297  -0.297  -0.296  -0.269
 15 B3u   3 B2g  14 B2u  18 Ag    2 Au    3 B3g  12 B1g  15 B2u                
 -0.263  -0.254  -0.246  -0.234  -0.221  -0.208  -0.174  -0.162
 19 Ag   13 B1g  16 B3u   5 B1u   4 B2g  20 Ag   17 B3u  14 B1g                
 -0.147  -0.144  -0.137  -0.090  -0.047
  4 B3g  16 B2u   3 Au    6 B1u   5 B2g                                        
 -- Virtual --                   
  0.254   0.268   0.316   0.339   0.348   0.369   0.372   0.380
  5 B3g   4 Au   21 Ag   22 Ag   18 B3u  15 B1g  23 Ag   19 B3u                
  0.392   0.400   0.405   0.411   0.413   0.428   0.436   0.459
 17 B2u  18 B2u  16 B1g   7 B1u   6 B2g  24 Ag   19 B2u  17 B1g                
  0.470   0.473   0.486   0.493   0.503   0.504   0.526   0.527
 20 B3u   8 B1u  25 Ag   21 B3u  20 B2u   6 B3g  18 B1g   7 B2g                
  0.527   0.530   0.536   0.547   0.558   0.564   0.573   0.573
  9 B1u   5 Au   26 Ag   22 B3u   7 B3g  27 Ag    6 Au   19 B1g                
  0.574   0.576   0.577   0.582   0.597   0.601   0.611   0.615
 28 Ag   21 B2u   8 B2g  23 B3u  20 B1g  29 Ag   24 B3u  22 B2u                
  0.628   0.636   0.637   0.642   0.657   0.657   0.657   0.659
 10 B1u  30 Ag   21 B1g  11 B1u  23 B2u   8 B3g   9 B2g  25 B3u                
  0.676   0.695   0.699   0.703   0.708   0.714   0.719   0.743
  9 B3g  31 Ag   22 B1g  26 B3u  24 B2u   7 Au   25 B2u  23 B1g                
  0.747   0.752   0.757   0.759   0.765   0.770   0.783   0.796
 32 Ag   26 B2u  10 B3g  10 B2g  27 B3u  12 B1u  33 Ag   24 B1g                
  0.797   0.797   0.821   0.833   0.842   0.844   0.850   0.862
  8 Au   11 B2g  28 B3u  27 B2u  34 Ag   25 B1g  13 B1u  26 B1g                
  0.863   0.869   0.877   0.880   0.888   0.906   0.922   0.929
 12 B2g   9 Au   29 B3u  35 Ag   11 B3g  10 Au   30 B3u  28 B2u                
  0.940   0.942   0.949   0.952   0.952   0.968   0.972   0.981
 36 Ag   14 B1u  31 B3u  29 B2u  27 B1g  12 B3g  37 Ag   30 B2u                
  0.987   0.993   1.003   1.005   1.006   1.011   1.021   1.024
 32 B3u  11 Au   28 B1g  15 B1u  38 Ag   31 B2u  13 B2g  33 B3u                
  1.037   1.050   1.050   1.056   1.064   1.070   1.082   1.083
 39 Ag   13 B3g  34 B3u  29 B1g  32 B2u  30 B1g  14 B2g  12 Au                 
  1.088   1.099   1.116   1.142   1.142   1.147   1.165   1.174
 14 B3g  33 B2u  40 Ag   41 Ag   35 B3u  31 B1g  34 B2u  15 B2g                
  1.184   1.196   1.206   1.208   1.245   1.246   1.260   1.268
 32 B1g  16 B1u  42 Ag   33 B1g  35 B2u  36 B3u  34 B1g  43 Ag                 
  1.279   1.320   1.321   1.327   1.347   1.359   1.364   1.398
 36 B2u  44 Ag   17 B1u  37 B3u  35 B1g  16 B2g  37 B2u  45 Ag                 
  1.402   1.404   1.435   1.439   1.445   1.449   1.462   1.490
 36 B1g  38 B3u  15 B3g  46 Ag   13 Au   39 B3u  38 B2u  40 B3u                
  1.506   1.551   1.559   1.575   1.592   1.600   1.602   1.611
 16 B3g  37 B1g  14 Au   17 B2g  47 Ag   39 B2u  17 B3g  38 B1g                
  1.617   1.624   1.634   1.635   1.647   1.650   1.651   1.661
 41 B3u  48 Ag   18 B1u  18 B2g  40 B2u  39 B1g  42 B3u  41 B2u                
  1.674   1.678   1.690   1.694   1.727   1.734   1.737   1.755
 19 B1u  40 B1g  49 Ag   19 B2g  43 B3u  50 Ag   42 B2u  44 B3u                
  1.756   1.763   1.783   1.806   1.811   1.823   1.833   1.848
 51 Ag   18 B3g  41 B1g  43 B2u  52 Ag   15 Au   16 Au   45 B3u                
  1.856   1.875   1.883   1.894   1.921   1.924   1.929   1.932
 19 B3g  20 B1u  20 B2g  42 B1g  53 Ag   17 Au   21 B1u  20 B3g                
  1.942   1.943   1.948   1.985   2.002   2.004   2.022   2.035
 46 B3u  44 B2u  54 Ag   43 B1g  45 B2u  21 B2g  22 B1u  44 B1g                
  2.041   2.058   2.082   2.093   2.093   2.109   2.113   2.113
 55 Ag   46 B2u  47 B3u  18 Au   21 B3g  23 B1u  47 B2u  19 Au                 
  2.129   2.130   2.145   2.147   2.150   2.151   2.166   2.184
 45 B1g  22 B2g  48 B2u  22 B3g  46 B1g  24 B1u  23 B2g  48 B3u                
  2.186   2.202   2.203   2.205   2.215   2.216   2.240   2.240
 56 Ag   49 B3u  57 Ag   20 Au   24 B2g  23 B3g  25 B1u  50 B3u                
  2.240   2.241   2.245   2.277   2.293   2.333   2.338   2.342
 58 Ag   21 Au   49 B2u  47 B1g  51 B3u  26 B1u  50 B2u  59 Ag                 
  2.346   2.368   2.370   2.377   2.390   2.397   2.411   2.412
 48 B1g  25 B2g  24 B3g  60 Ag   27 B1u  26 B2g  22 Au   25 B3g                
  2.413   2.425   2.428   2.442   2.452   2.455   2.456   2.481
 49 B1g  51 B2u  23 Au   52 B3u  61 Ag   52 B2u  53 B3u  54 B3u                
  2.488   2.490   2.495   2.496   2.501   2.502   2.512   2.525
 50 B1g  62 Ag   26 B3g  53 B2u  55 B3u  51 B1g  24 Au   28 B1u                
  2.533   2.554   2.561   2.597   2.609   2.614   2.625   2.641
 27 B2g  54 B2u  52 B1g  27 B3g  28 B2g  56 B3u  63 Ag   53 B1g                
  2.686   2.704   2.705   2.712   2.741   2.741   2.741   2.747
 55 B2u  64 Ag   54 B1g  57 B3u  58 B3u  55 B1g  29 B1u  25 Au                 
  2.755   2.766   2.777   2.779   2.794   2.795   2.819   2.845
 28 B3g  59 B3u  65 Ag   56 B2u  66 Ag   60 B3u  57 B2u  56 B1g                
  2.860   2.932   2.938   2.942   2.948   2.955   3.000   3.008
 67 Ag   57 B1g  58 B2u  61 B3u  30 B1u  29 B2g  59 B2u  58 B1g                
  3.017   3.045   3.047   3.102   3.133   3.133   3.143   3.144
 68 Ag   31 B1u  30 B2g  59 B1g  29 B3g  26 Au   69 Ag   32 B1u                
  3.144   3.145   3.145   3.157   3.160   3.182   3.193   3.229
 30 B3g  31 B2g  27 Au   62 B3u  60 B2u  63 B3u  70 Ag   33 B1u                
  3.232   3.233   3.261   3.280   3.308   3.310   3.326   3.344
 61 B2u  32 B2g  60 B1g  71 Ag   31 B3g  28 Au   62 B2u  64 B3u                
  3.350   3.396   3.400   3.407   3.414   3.415   3.427   3.443
 61 B1g  72 Ag   65 B3u  34 B1u  33 B2g  73 Ag   63 B2u  66 B3u                
  3.456   3.480   3.482   3.500   3.501   3.505   3.534   3.538
 64 B2u  29 Au   32 B3g  62 B1g  30 Au   33 B3g  74 Ag   35 B1u                
  3.540   3.542   3.564   3.586   3.588   3.593   3.611   3.616
 34 B2g  67 B3u  75 Ag   63 B1g  68 B3u  65 B2u  36 B1u  35 B2g                
  3.634   3.644   3.660   3.663   3.668   3.685   3.728   3.728
 69 B3u  76 Ag   64 B1g  66 B2u  67 B2u  65 B1g  66 B1g  36 B2g                
  3.732   3.746   3.749   3.830   3.830   3.843   3.844   3.852
 37 B1u  31 Au   34 B3g  68 B2u  70 B3u  77 Ag   35 B3g  67 B1g                
  3.853   3.853   3.864   3.886   3.888   3.894   3.927   3.937
 38 B1u  37 B2g  32 Au   71 B3u  78 Ag   69 B2u  68 B1g  70 B2u                
  3.955   3.957   3.978   4.009   4.016   4.024   4.045   4.058
 79 Ag   69 B1g  72 B3u  71 B2u  80 Ag   70 B1g  39 B1u  73 B3u                
  4.058   4.130   4.132   4.138   4.144   4.178   4.194   4.210
 38 B2g  81 Ag   33 Au   36 B3g  74 B3u  82 Ag   75 B3u  72 B2u                
  4.216   4.350   4.351   4.368   4.438   4.531   4.532   4.535
 71 B1g  34 Au   37 B3g  73 B2u  72 B1g  83 Ag   76 B3u  35 Au                 
  4.536   4.536   4.536   4.540   4.541   4.610   4.622   4.625
 38 B3g  40 B1u  39 B2g  74 B2u  73 B1g  84 Ag   41 B1u  40 B2g                
  4.639   4.717   4.722   4.751   4.762   4.774   4.775   4.785
 77 B3u  75 B2u  74 B1g  76 B2u  75 B1g  39 B3g  36 Au   85 Ag                 
  4.856   4.857   4.935   4.936   5.040   5.053   5.059   5.067
 40 B3g  37 Au   78 B3u  86 Ag   87 Ag   79 B3u  41 B3g  41 B2g                
  5.083   5.093   5.132   5.132   5.151   5.160   5.177   5.177
 77 B2u  76 B1g  42 B1u  42 B2g  88 Ag   80 B3u  42 B3g  38 Au                 
  5.179   5.186   5.229   5.231   5.231   5.232   5.261   5.288
 78 B2u  77 B1g  79 B2u  78 B1g  43 B1u  43 B2g  89 Ag   81 B3u                
  5.314   5.315   5.339   5.410   5.436   5.446   5.503   5.521
 39 Au   43 B3g  90 Ag   91 Ag   80 B2u  79 B1g  81 B2u  82 B3u                
  5.522   5.652   5.748   5.751   5.785   5.809   5.813   5.828
 80 B1g  92 Ag   44 B1u  44 B2g  81 B1g  83 B3u  93 Ag   44 B3g                
  5.829   5.872   5.894   5.973   6.000   6.214   6.214   6.217
 40 Au   82 B2u  82 B1g  83 B2u  83 B1g  84 B3u  94 Ag   45 B1u                
  6.254   6.258   6.268   6.271   6.273   6.281   6.286   6.296
 84 B2u  85 B3u  46 B1u  41 Au   47 B1u  45 B2g  85 B2u  84 B1g                
  6.336   6.337   6.338   6.348   6.380   6.388   6.488   6.510
 45 B3g  42 Au   86 B3u  95 Ag   86 B2u  87 B3u  87 B2u  85 B1g                
  6.668   6.672   6.860   6.861   9.795   9.841   9.851   9.864
 88 B3u  96 Ag   88 B2u  86 B1g  48 B1u  46 B3g  46 B2g  43 Au                 
 10.083  10.122  10.320  10.345  10.373  10.468  10.502  10.535
 89 B2u  89 B3u  87 B1g  90 B3u  97 Ag   98 Ag   90 B2u  88 B1g                
 20.672  20.685  21.139  21.231  23.685  23.712  24.211  24.273
 99 Ag   91 B3u  91 B2u  89 B1g 100 Ag   92 B3u  92 B2u  90 B1g                
 24.511  24.520  24.985  25.000  33.588  33.589  33.654  33.659
101 Ag   93 B3u  93 B2u  91 B1g  94 B3u 102 Ag   94 B2u  92 B1g                

 Beta MOs, Restricted
 -- Occupied --                  
-305.32  -91.70  -91.70  -91.70  -91.70  -37.62  -32.65  -32.65
  1 Ag    1 B1g   1 B2u   1 B3u   2 Ag    3 Ag    2 B2u   2 B3u                
-32.621 -15.379 -15.379 -15.379 -15.379 -11.096 -11.096 -11.095
  1 B1u   2 B1g   3 B2u   3 B3u   4 Ag    4 B3u   5 Ag    3 B1g                
-11.095 -11.091 -11.091 -11.091 -11.091  -8.705  -8.705  -8.705
  4 B2u   5 B3u   6 Ag    4 B1g   5 B2u   6 B2u   5 B1g   6 B3u                
 -8.705  -6.387  -6.387  -6.387  -6.387  -6.385  -6.385  -6.385
  7 Ag    7 B2u   6 B1g   8 Ag    7 B3u   7 B1g   8 B3u   9 Ag                 
 -6.385  -6.385  -6.385  -6.385  -6.385  -4.579  -2.986  -2.984
  8 B2u   1 B2g   1 Au    1 B3g   2 B1u  10 Ag    9 B2u   9 B3u                
 -2.956  -1.028  -1.028  -1.019  -1.019  -0.923  -0.921  -0.790
  3 B1u  11 Ag   10 B3u  10 B2u   8 B1g  12 Ag   11 B3u  11 B2u                
 -0.786  -0.716  -0.691  -0.629  -0.614  -0.545  -0.540  -0.445
  9 B1g  13 Ag   12 B3u  12 B2u  10 B1g  14 Ag   13 B3u  15 Ag                 
 -0.397  -0.384  -0.379  -0.375  -0.372  -0.369  -0.361  -0.353
 16 Ag   13 B2u  11 B1g  14 B3u  17 Ag    2 B2g   2 B3g   4 B1u                
 -0.346  -0.344  -0.331  -0.316  -0.297  -0.297  -0.296  -0.269
 15 B3u   3 B2g  14 B2u  18 Ag    2 Au    3 B3g  12 B1g  15 B2u                
 -0.263  -0.254  -0.246  -0.234  -0.221  -0.208  -0.174  -0.162
 19 Ag   13 B1g  16 B3u   5 B1u   4 B2g  20 Ag   17 B3u  14 B1g                
 -0.147  -0.144  -0.137  -0.090  -0.047
  4 B3g  16 B2u   3 Au    6 B1u   5 B2g                                        
 -- Virtual --                   
  0.254   0.268   0.316   0.339   0.348   0.369   0.372   0.380
  5 B3g   4 Au   21 Ag   22 Ag   18 B3u  15 B1g  23 Ag   19 B3u                
  0.392   0.400   0.405   0.411   0.413   0.428   0.436   0.459
 17 B2u  18 B2u  16 B1g   7 B1u   6 B2g  24 Ag   19 B2u  17 B1g                
  0.470   0.473   0.486   0.493   0.503   0.504   0.526   0.527
 20 B3u   8 B1u  25 Ag   21 B3u  20 B2u   6 B3g  18 B1g   7 B2g                
  0.527   0.530   0.536   0.547   0.558   0.564   0.573   0.573
  9 B1u   5 Au   26 Ag   22 B3u   7 B3g  27 Ag    6 Au   19 B1g                
  0.574   0.576   0.577   0.582   0.597   0.601   0.611   0.615
 28 Ag   21 B2u   8 B2g  23 B3u  20 B1g  29 Ag   24 B3u  22 B2u                
  0.628   0.636   0.637   0.642   0.657   0.657   0.657   0.659
 10 B1u  30 Ag   21 B1g  11 B1u  23 B2u   8 B3g   9 B2g  25 B3u                
  0.676   0.695   0.699   0.703   0.708   0.714   0.719   0.743
  9 B3g  31 Ag   22 B1g  26 B3u  24 B2u   7 Au   25 B2u  23 B1g                
  0.747   0.752   0.757   0.759   0.765   0.770   0.783   0.796
 32 Ag   26 B2u  10 B3g  10 B2g  27 B3u  12 B1u  33 Ag   24 B1g                
  0.797   0.797   0.821   0.833   0.842   0.844   0.850   0.862
  8 Au   11 B2g  28 B3u  27 B2u  34 Ag   25 B1g  13 B1u  26 B1g                
  0.863   0.869   0.877   0.880   0.888   0.906   0.922   0.929
 12 B2g   9 Au   29 B3u  35 Ag   11 B3g  10 Au   30 B3u  28 B2u                
  0.940   0.942   0.949   0.952   0.952   0.968   0.972   0.981
 36 Ag   14 B1u  31 B3u  29 B2u  27 B1g  12 B3g  37 Ag   30 B2u                
  0.987   0.993   1.003   1.005   1.006   1.011   1.021   1.024
 32 B3u  11 Au   28 B1g  15 B1u  38 Ag   31 B2u  13 B2g  33 B3u                
  1.037   1.050   1.050   1.056   1.064   1.070   1.082   1.083
 39 Ag   13 B3g  34 B3u  29 B1g  32 B2u  30 B1g  14 B2g  12 Au                 
  1.088   1.099   1.116   1.142   1.142   1.147   1.165   1.174
 14 B3g  33 B2u  40 Ag   41 Ag   35 B3u  31 B1g  34 B2u  15 B2g                
  1.184   1.196   1.206   1.208   1.245   1.246   1.260   1.268
 32 B1g  16 B1u  42 Ag   33 B1g  35 B2u  36 B3u  34 B1g  43 Ag                 
  1.279   1.320   1.321   1.327   1.347   1.359   1.364   1.398
 36 B2u  44 Ag   17 B1u  37 B3u  35 B1g  16 B2g  37 B2u  45 Ag                 
  1.402   1.404   1.435   1.439   1.445   1.449   1.462   1.490
 36 B1g  38 B3u  15 B3g  46 Ag   13 Au   39 B3u  38 B2u  40 B3u                
  1.506   1.551   1.559   1.575   1.592   1.600   1.602   1.611
 16 B3g  37 B1g  14 Au   17 B2g  47 Ag   39 B2u  17 B3g  38 B1g                
  1.617   1.624   1.634   1.635   1.647   1.650   1.651   1.661
 41 B3u  48 Ag   18 B1u  18 B2g  40 B2u  39 B1g  42 B3u  41 B2u                
  1.674   1.678   1.690   1.694   1.727   1.734   1.737   1.755
 19 B1u  40 B1g  49 Ag   19 B2g  43 B3u  50 Ag   42 B2u  44 B3u                
  1.756   1.763   1.783   1.806   1.811   1.823   1.833   1.848
 51 Ag   18 B3g  41 B1g  43 B2u  52 Ag   15 Au   16 Au   45 B3u                
  1.856   1.875   1.883   1.894   1.921   1.924   1.929   1.932
 19 B3g  20 B1u  20 B2g  42 B1g  53 Ag   17 Au   21 B1u  20 B3g                
  1.942   1.943   1.948   1.985   2.002   2.004   2.022   2.035
 46 B3u  44 B2u  54 Ag   43 B1g  45 B2u  21 B2g  22 B1u  44 B1g                
  2.041   2.058   2.082   2.093   2.093   2.109   2.113   2.113
 55 Ag   46 B2u  47 B3u  18 Au   21 B3g  23 B1u  47 B2u  19 Au                 
  2.129   2.130   2.145   2.147   2.150   2.151   2.166   2.184
 45 B1g  22 B2g  48 B2u  22 B3g  46 B1g  24 B1u  23 B2g  48 B3u                
  2.186   2.202   2.203   2.205   2.215   2.216   2.240   2.240
 56 Ag   49 B3u  57 Ag   20 Au   24 B2g  23 B3g  25 B1u  50 B3u                
  2.240   2.241   2.245   2.277   2.293   2.333   2.338   2.342
 58 Ag   21 Au   49 B2u  47 B1g  51 B3u  26 B1u  50 B2u  59 Ag                 
  2.346   2.368   2.370   2.377   2.390   2.397   2.411   2.412
 48 B1g  25 B2g  24 B3g  60 Ag   27 B1u  26 B2g  22 Au   25 B3g                
  2.413   2.425   2.428   2.442   2.452   2.455   2.456   2.481
 49 B1g  51 B2u  23 Au   52 B3u  61 Ag   52 B2u  53 B3u  54 B3u                
  2.488   2.490   2.495   2.496   2.501   2.502   2.512   2.525
 50 B1g  62 Ag   26 B3g  53 B2u  55 B3u  51 B1g  24 Au   28 B1u                
  2.533   2.554   2.561   2.597   2.609   2.614   2.625   2.641
 27 B2g  54 B2u  52 B1g  27 B3g  28 B2g  56 B3u  63 Ag   53 B1g                
  2.686   2.704   2.705   2.712   2.741   2.741   2.741   2.747
 55 B2u  64 Ag   54 B1g  57 B3u  58 B3u  55 B1g  29 B1u  25 Au                 
  2.755   2.766   2.777   2.779   2.794   2.795   2.819   2.845
 28 B3g  59 B3u  65 Ag   56 B2u  66 Ag   60 B3u  57 B2u  56 B1g                
  2.860   2.932   2.938   2.942   2.948   2.955   3.000   3.008
 67 Ag   57 B1g  58 B2u  61 B3u  30 B1u  29 B2g  59 B2u  58 B1g                
  3.017   3.045   3.047   3.102   3.133   3.133   3.143   3.144
 68 Ag   31 B1u  30 B2g  59 B1g  29 B3g  26 Au   69 Ag   32 B1u                
  3.144   3.145   3.145   3.157   3.160   3.182   3.193   3.229
 30 B3g  31 B2g  27 Au   62 B3u  60 B2u  63 B3u  70 Ag   33 B1u                
  3.232   3.233   3.261   3.280   3.308   3.310   3.326   3.344
 61 B2u  32 B2g  60 B1g  71 Ag   31 B3g  28 Au   62 B2u  64 B3u                
  3.350   3.396   3.400   3.407   3.414   3.415   3.427   3.443
 61 B1g  72 Ag   65 B3u  34 B1u  33 B2g  73 Ag   63 B2u  66 B3u                
  3.456   3.480   3.482   3.500   3.501   3.505   3.534   3.538
 64 B2u  29 Au   32 B3g  62 B1g  30 Au   33 B3g  74 Ag   35 B1u                
  3.540   3.542   3.564   3.586   3.588   3.593   3.611   3.616
 34 B2g  67 B3u  75 Ag   63 B1g  68 B3u  65 B2u  36 B1u  35 B2g                
  3.634   3.644   3.660   3.663   3.668   3.685   3.728   3.728
 69 B3u  76 Ag   64 B1g  66 B2u  67 B2u  65 B1g  66 B1g  36 B2g                
  3.732   3.746   3.749   3.830   3.830   3.843   3.844   3.852
 37 B1u  31 Au   34 B3g  68 B2u  70 B3u  77 Ag   35 B3g  67 B1g                
  3.853   3.853   3.864   3.886   3.888   3.894   3.927   3.937
 38 B1u  37 B2g  32 Au   71 B3u  78 Ag   69 B2u  68 B1g  70 B2u                
  3.955   3.957   3.978   4.009   4.016   4.024   4.045   4.058
 79 Ag   69 B1g  72 B3u  71 B2u  80 Ag   70 B1g  39 B1u  73 B3u                
  4.058   4.130   4.132   4.138   4.144   4.178   4.194   4.210
 38 B2g  81 Ag   33 Au   36 B3g  74 B3u  82 Ag   75 B3u  72 B2u                
  4.216   4.350   4.351   4.368   4.438   4.531   4.532   4.535
 71 B1g  34 Au   37 B3g  73 B2u  72 B1g  83 Ag   76 B3u  35 Au                 
  4.536   4.536   4.536   4.540   4.541   4.610   4.622   4.625
 38 B3g  40 B1u  39 B2g  74 B2u  73 B1g  84 Ag   41 B1u  40 B2g                
  4.639   4.717   4.722   4.751   4.762   4.774   4.775   4.785
 77 B3u  75 B2u  74 B1g  76 B2u  75 B1g  39 B3g  36 Au   85 Ag                 
  4.856   4.857   4.935   4.936   5.040   5.053   5.059   5.067
 40 B3g  37 Au   78 B3u  86 Ag   87 Ag   79 B3u  41 B3g  41 B2g                
  5.083   5.093   5.132   5.132   5.151   5.160   5.177   5.177
 77 B2u  76 B1g  42 B1u  42 B2g  88 Ag   80 B3u  42 B3g  38 Au                 
  5.179   5.186   5.229   5.231   5.231   5.232   5.261   5.288
 78 B2u  77 B1g  79 B2u  78 B1g  43 B1u  43 B2g  89 Ag   81 B3u                
  5.314   5.315   5.339   5.410   5.436   5.446   5.503   5.521
 39 Au   43 B3g  90 Ag   91 Ag   80 B2u  79 B1g  81 B2u  82 B3u                
  5.522   5.652   5.748   5.751   5.785   5.809   5.813   5.828
 80 B1g  92 Ag   44 B1u  44 B2g  81 B1g  83 B3u  93 Ag   44 B3g                
  5.829   5.872   5.894   5.973   6.000   6.214   6.214   6.217
 40 Au   82 B2u  82 B1g  83 B2u  83 B1g  84 B3u  94 Ag   45 B1u                
  6.254   6.258   6.268   6.271   6.273   6.281   6.286   6.296
 84 B2u  85 B3u  46 B1u  41 Au   47 B1u  45 B2g  85 B2u  84 B1g                
  6.336   6.337   6.338   6.348   6.380   6.388   6.488   6.510
 45 B3g  42 Au   86 B3u  95 Ag   86 B2u  87 B3u  87 B2u  85 B1g                
  6.668   6.672   6.860   6.861   9.795   9.841   9.851   9.864
 88 B3u  96 Ag   88 B2u  86 B1g  48 B1u  46 B3g  46 B2g  43 Au                 
 10.083  10.122  10.320  10.345  10.373  10.468  10.502  10.535
 89 B2u  89 B3u  87 B1g  90 B3u  97 Ag   98 Ag   90 B2u  88 B1g                
 20.672  20.685  21.139  21.231  23.685  23.712  24.211  24.273
 99 Ag   91 B3u  91 B2u  89 B1g 100 Ag   92 B3u  92 B2u  90 B1g                
 24.511  24.520  24.985  25.000  33.588  33.589  33.654  33.659
101 Ag   93 B3u  93 B2u  91 B1g  94 B3u 102 Ag   94 B2u  92 B1g                

 Occupation and symmetry of molecular orbitals

 Point group: D2h (8 irreducible representations).

                           Ag   B1g  B2g  B3g  Au   B1u  B2u  B3u   All 
 ------------------------------------------------------------------------
 All molecular orbitals:
  - Alpha                  102  92   46   46   43   48   94   94    565 
  - Beta                   102  92   46   46   43   48   94   94    565 
 ------------------------------------------------------------------------
 Alpha orbitals:
  - Frozen occupied        10   7    1    1    1    3    9    9     41  
  - Active occupied        10   7    4    3    2    3    7    8     44  
  - Active virtual         82   78   41   42   40   42   78   77    480 
  - Frozen virtual         0    0    0    0    0    0    0    0     0   
 ------------------------------------------------------------------------
 Beta orbitals:
  - Frozen occupied        10   7    1    1    1    3    9    9     41  
  - Active occupied        10   7    4    3    2    3    7    8     44  
  - Active virtual         82   78   41   42   40   42   78   77    480 
  - Frozen virtual         0    0    0    0    0    0    0    0     0   
 ------------------------------------------------------------------------

 Import integrals:   CPU 0.00 s  wall 0.00 s

      Cholesky decomposition of two-electron integrals.
      with threshold: 1.0000000000e-03

      Initial pre-allocated memory: 32 (GB)
 ------------------------------------------------------------------------------
    Rank   Residual
 ------------------------------------------------------------------------------
       1  9.80096044597049
      17  2.59592621103333
      22  0.88003338530026
      77  0.26530597852133
     282  0.06676513352691
     823  0.01672571952393
    1557  0.00408687138713
    2031  0.00105007414515
    2042  0.00099701358026
 ------------------------------------------------------------------------------
      The final rank of CD vector is 2042
      The final allocated memory: 32 (GB)
 Cholesky decomposition time:   CPU 4500.21 s  wall 391.13 s
 Import integrals:   CPU 5443.03 s  wall 473.66 s

 Computing CCSD intermediates for later calculations in double precision
 Finished.

 MP2 amplitudes:   CPU 1204.64 s  wall 177.42 s

        Solving for EOMIP-CCSD Ag transitions.

Warning! Not enough singles to form guess subspace. Doubles guess vectors will be generated.
In case of poor EOM convergence, reduce requested IP_STATES.

Running a double precision version
      CD-EOMIP-CCSD/MP2 right amplitudes will be solved using Davidson.
        Amplitudes will be solved using standard  algorithm.
     Hard-coded thresholds: 
     LinDepThresh=1.00e-15  NormThresh=1.00e-06  ReorthogonThresh=1.00e-02

      Roots     MaxVec    MaxIter   Precond   Conv      Shift    
      15        120       250       1         1.00e-05  0.00e+00  
 ------------------------------------------------------------------------------
      Iter ConvRoots NVecs ResNorm^2 Current eigenvalues (eV)
 ------------------------------------------------------------------------------
      0    0      15    1.53e-01   7.4485   9.6291   10.7563   12.0180   12.8196   13.9657   16.7510   20.7013   26.3027   29.2308   157.6563   159.1110   159.9415   160.5171   162.2879   
      1    0      30    8.14e-01   5.1545   6.5277   7.8119   8.7555   9.1456   10.8717   13.4740   17.3821   22.1478   25.2940   47.5399   58.8222   60.0639   63.2018   63.5571   
      2    0      45    1.86e-01   3.3711   4.8473   6.0166   7.0403   7.9559   9.7014   12.3442   15.2541   18.6303   20.4115   24.2076   26.0207   31.0460   32.7633   33.9081   
      3    0      60    3.23e-02   2.9995   4.5426   5.6374   6.9516   7.8983   9.6190   12.2756   13.3288   14.5902   16.0124   17.1341   18.6904   19.5749   19.7000   20.2234   
      4    0      75    1.04e-02   2.8948   4.4657   5.5619   6.9345   7.8887   9.5914   11.8269   12.1445   12.2910   13.7230   14.2100   15.0145   15.4725   16.0402   17.1570   
Found complex roots...
      5    1      90    8.12e-03   2.8823   4.4534   5.5496   6.9311   7.8867*  9.5816   11.2687   11.8008   12.2120   12.3108   12.7022   13.7331   14.6750   14.8841   15.0272   
      6    2      104   8.13e-03   2.8821   4.4521   5.5478   6.9308*  7.8867*  9.5736   10.8076   11.1296   11.7212   11.7794   12.1778   12.2728   13.1002   13.8056   14.2806   
      7    5      117   8.27e-03   2.8821*  4.4518*  5.5472*  6.9306*  7.8866*  9.3736   9.6102   9.9472   11.0893   11.2536   11.6406   11.7729   12.2517   12.7069   13.0302   
      8    3      120   4.45e-03   2.8822*  4.4519*  5.5471*  6.9303   7.5422   7.8869   8.7987   9.5827   10.7329   11.1274   11.6246   11.7499   12.2480   12.6124   12.9856   
      9    4      27    1.28e-03   2.8822*  4.4517*  5.5469*  6.9272   6.9904   7.8869*  8.6000   9.5798   10.6085   11.1159   11.5980   11.7418   11.9792   12.2729   12.8850   
      10   4      38    1.57e-03   2.8823*  4.4522*  5.5473*  6.7999   6.9318   7.8868*  8.4405   9.5779   10.5382   11.1100   11.3831   11.5865   11.7363   12.2595   12.8160   
      11   5      49    2.84e-03   2.8822*  4.4519*  5.5471*  6.7539   6.9316*  7.8868*  8.3495   9.5780   10.4864   10.8144   11.1086   11.5770   11.7245   12.0360   12.2614   
      12   5      59    1.64e-03   2.8822*  4.4519*  5.5471*  6.7390   6.9313*  7.8868*  8.3105   9.5767   9.8730   10.5377   11.0322   11.1106   11.5689   11.7369   12.2465   
      13   6      69    3.79e-03   2.8822*  4.4519*  5.5472*  6.7338   6.9313*  7.8868*  8.2948   9.0139   9.2954   9.5761*  10.5131   10.7567   11.1084   11.5748   11.7363   
      14   7      78    1.08e-03   2.8822*  4.4520*  5.5471*  6.7325   6.9313*  7.1153   7.8868*  8.2918   9.0908   9.5760*  10.5051   10.6243   11.1081*  11.5711   11.7355   
      15   8      86    1.18e-03   2.8822*  4.4519*  5.5471*  6.6977   6.7327   6.9313*  7.8868*  8.2906*  9.0434   9.5760*  10.5022   10.5723   11.1080*  11.3119   11.5741   
      16   9      93    1.47e-03   2.8822*  4.4519*  5.5471*  6.5871   6.7322*  6.9313*  7.8868*  8.2902*  9.0316   9.5760*  10.2676   10.5035   10.6159   11.1080*  11.5607   
      17   9      99    6.68e-04   2.8822*  4.4519*  5.5471*  6.5529   6.7322*  6.9313*  7.8868*  8.2901*  9.0279   9.5431   9.5760*  10.5020   10.5741   11.1080*  11.4778   
      18   10     105   3.62e-04   2.8822*  4.4519*  5.5471*  6.5413   6.7322*  6.9313*  7.8868*  8.2901*  9.0269   9.2194   9.5760*  10.5015*  10.5653   11.1080*  11.4107   
      19   11     110   2.41e-03   2.8822*  4.4519*  5.5471*  6.5356   6.7322*  6.9313*  7.8868*  8.2901*  9.0265*  9.1064   9.5760*  10.3546   10.5013*  10.5612   11.1080*  
Found complex roots...
      20   11     114   7.21e-04   2.8822*  4.4519*  5.5471*  6.5330   6.7322*  6.9313*  7.8868*  8.2901*  9.0265*  9.0743   9.2283   9.5760*  10.5010*  10.5597   11.1080*  
      21   13     118   1.98e-04   2.8822*  4.4520*  5.5471*  6.5322*  6.7322*  6.9313*  7.8868*  8.2901*  8.9080   9.0265*  9.0654   9.5760*  10.5009*  10.5591*  11.1080*  
      22   13     120   6.12e-05   2.8822*  4.4520*  5.5471*  6.5321*  6.7322*  6.9313*  7.8868*  8.2901*  8.8215   9.0265*  9.0624   9.5760*  10.5009*  10.5591*  11.1080*  
      23   14     17    2.01e-05   2.8822*  4.4520*  5.5471*  6.5321*  6.7322*  6.9313*  7.8868*  8.2901*  8.8004   9.0265*  9.0617*  9.5760*  10.5009*  10.5591*  11.1080*  
      24   14     18    1.26e-05   2.8822*  4.4520*  5.5471*  6.5321*  6.7322*  6.9313*  7.8868*  8.2901*  8.7880   9.0265*  9.0617*  9.5760*  10.5009*  10.5591*  11.1080*  
      25   14     19    5.95e-06   2.8822*  4.4519*  5.5471*  6.5321*  6.7322*  6.9313*  7.8868*  8.2901*  8.7839   9.0265*  9.0617*  9.5760*  10.5009*  10.5591*  11.1080*  
      26   14     20    4.06e-06   2.8822*  4.4519*  5.5471*  6.5321*  6.7322*  6.9313*  7.8868*  8.2901*  8.7826   9.0265*  9.0617*  9.5760*  10.5009*  10.5590*  11.1080*  
      27   14     21    2.81e-06   2.8822*  4.4520*  5.5471*  6.5321*  6.7322*  6.9313*  7.8868*  8.2901*  8.7817   9.0265*  9.0617*  9.5760*  10.5009*  10.5590*  11.1080*  
      28   14     22    2.84e-06   2.8822*  4.4520*  5.5471*  6.5321*  6.7322*  6.9313*  7.8868*  8.2901*  8.7817   9.0265*  9.0617*  9.5760*  10.5009*  10.5590*  11.1080*  
      29   14     23    2.54e-06   2.8822*  4.4520*  5.5471*  6.5321*  6.7322*  6.9313*  7.8868*  8.2901*  8.7815   9.0265*  9.0617*  9.5760*  10.5009*  10.5590*  11.1080*  
      30   15     24    1.92e-06   2.8822*  4.4520*  5.5471*  6.5321*  6.7322*  6.9313*  7.8868*  8.2901*  8.7811*  9.0265*  9.0617*  9.5760*  10.5009*  10.5591*  11.1080*  

     Davidson procedure converged

 EOMIP transition 1/Ag
 Total energy = -3620.93818992 a.u.  Excitation energy = 2.8822 eV.
 R1^2 = 0.8562  R2^2 = 0.1438  Res^2 = 2.08e-07
 Conv-d = yes

 Amplitude    Transitions between orbitals
  0.6479       18 (Ag) A                 ->    infty        
  0.5825       20 (Ag) A                 ->    infty        
  0.2413       19 (Ag) A                 ->    infty        
 -0.1855       16 (Ag) A                 ->    infty        

              Summary of significant orbitals:

               Number  Type             Irrep      Energy
               57      Occ  Alpha      16 (Ag)     -0.3971
               68      Occ  Alpha      18 (Ag)     -0.3163
               73      Occ  Alpha      19 (Ag)     -0.2631
               78      Occ  Alpha      20 (Ag)     -0.2084


 EOMIP transition 2/Ag
 Total energy = -3620.88050209 a.u.  Excitation energy = 4.4520 eV.
 R1^2 = 0.8511  R2^2 = 0.1489  Res^2 = 2.31e-07
 Conv-d = yes

 Amplitude    Transitions between orbitals
 -0.5354       20 (Ag) A                 ->    infty        
 -0.4371       15 (Ag) A                 ->    infty        
  0.4142       18 (Ag) A                 ->    infty        
  0.3161       16 (Ag) A                 ->    infty        
  0.2923       19 (Ag) A                 ->    infty        
  0.1196       17 (Ag) A                 ->    infty        

              Summary of significant orbitals:

               Number  Type             Irrep      Energy
               56      Occ  Alpha      15 (Ag)     -0.4448
               57      Occ  Alpha      16 (Ag)     -0.3971
               61      Occ  Alpha      17 (Ag)     -0.3721
               68      Occ  Alpha      18 (Ag)     -0.3163
               73      Occ  Alpha      19 (Ag)     -0.2631
               78      Occ  Alpha      20 (Ag)     -0.2084


 EOMIP transition 3/Ag
 Total energy = -3620.84025525 a.u.  Excitation energy = 5.5471 eV.
 R1^2 = 0.8616  R2^2 = 0.1384  Res^2 = 6.02e-07
 Conv-d = yes

 Amplitude    Transitions between orbitals
  0.5701       20 (Ag) A                 ->    infty        
  0.4820       16 (Ag) A                 ->    infty        
 -0.3905       15 (Ag) A                 ->    infty        
 -0.3179       18 (Ag) A                 ->    infty        
  0.2102       17 (Ag) A                 ->    infty        

              Summary of significant orbitals:

               Number  Type             Irrep      Energy
               56      Occ  Alpha      15 (Ag)     -0.4448
               57      Occ  Alpha      16 (Ag)     -0.3971
               61      Occ  Alpha      17 (Ag)     -0.3721
               68      Occ  Alpha      18 (Ag)     -0.3163
               78      Occ  Alpha      20 (Ag)     -0.2084


 EOMIP transition 4/Ag
 Total energy = -3620.80405942 a.u.  Excitation energy = 6.5321 eV.
 R1^2 = 0.0000  R2^2 = 1.0000  Res^2 = 1.46e-07
 Conv-d = yes

 Amplitude    Transitions between orbitals
 -0.3382       2 (B3g) A     5 (B2g) B   ->    17 (B1g) B    
  0.3382       5 (B2g) B     2 (B3g) A   ->    17 (B1g) B    
 -0.3382       5 (B2g) A     2 (B3g) A   ->    17 (B1g) A    
  0.3382       2 (B3g) A     5 (B2g) A   ->    17 (B1g) A    
  0.3382       5 (B2g) A     2 (B3g) B   ->    17 (B1g) B    
 -0.3382       2 (B3g) B     5 (B2g) A   ->    17 (B1g) B    
  0.3052       2 (B3g) A     5 (B2g) B   ->    15 (B1g) B    
 -0.3052       5 (B2g) B     2 (B3g) A   ->    15 (B1g) B    
 -0.3051       5 (B2g) A     2 (B3g) B   ->    15 (B1g) B    
  0.3051       2 (B3g) B     5 (B2g) A   ->    15 (B1g) B    
  0.3051       5 (B2g) A     2 (B3g) A   ->    15 (B1g) A    
 -0.3051       2 (B3g) A     5 (B2g) A   ->    15 (B1g) A    
  0.1405       4 (B3g) A     5 (B2g) B   ->    17 (B1g) B    
 -0.1405       5 (B2g) B     4 (B3g) A   ->    17 (B1g) B    
 -0.1405       5 (B2g) A     4 (B3g) B   ->    17 (B1g) B    
  0.1405       4 (B3g) B     5 (B2g) A   ->    17 (B1g) B    
  0.1405       5 (B2g) A     4 (B3g) A   ->    17 (B1g) A    
 -0.1405       4 (B3g) A     5 (B2g) A   ->    17 (B1g) A    
  0.1356       5 (B2g) A     4 (B3g) B   ->    15 (B1g) B    
 -0.1356       4 (B3g) B     5 (B2g) A   ->    15 (B1g) B    
 -0.1356       5 (B2g) A     4 (B3g) A   ->    15 (B1g) A    
  0.1356       4 (B3g) A     5 (B2g) A   ->    15 (B1g) A    
 -0.1356       4 (B3g) A     5 (B2g) B   ->    15 (B1g) B    
  0.1356       5 (B2g) B     4 (B3g) A   ->    15 (B1g) B    
 -0.1250       2 (B3g) A     5 (B2g) B   ->    20 (B1g) B    
  0.1250       5 (B2g) B     2 (B3g) A   ->    20 (B1g) B    
  0.1250       5 (B2g) A     2 (B3g) B   ->    20 (B1g) B    
 -0.1250       2 (B3g) B     5 (B2g) A   ->    20 (B1g) B    
 -0.1250       5 (B2g) A     2 (B3g) A   ->    20 (B1g) A    
  0.1250       2 (B3g) A     5 (B2g) A   ->    20 (B1g) A    
  0.1128       5 (B2g) A     2 (B3g) B   ->    16 (B1g) B    
 -0.1128       2 (B3g) B     5 (B2g) A   ->    16 (B1g) B    
 -0.1128       2 (B3g) A     5 (B2g) B   ->    16 (B1g) B    
  0.1128       5 (B2g) B     2 (B3g) A   ->    16 (B1g) B    
 -0.1128       5 (B2g) A     2 (B3g) A   ->    16 (B1g) A    
  0.1128       2 (B3g) A     5 (B2g) A   ->    16 (B1g) A    
  0.1072       2 (B3g) A     5 (B2g) B   ->    18 (B1g) B    
 -0.1072       5 (B2g) B     2 (B3g) A   ->    18 (B1g) B    
  0.1072       5 (B2g) A     2 (B3g) A   ->    18 (B1g) A    
 -0.1072       2 (B3g) A     5 (B2g) A   ->    18 (B1g) A    
 -0.1072       5 (B2g) A     2 (B3g) B   ->    18 (B1g) B    
  0.1072       2 (B3g) B     5 (B2g) A   ->    18 (B1g) B    

              Summary of significant orbitals:

               Number  Type             Irrep      Energy
               85      Occ  Alpha       5 (B2g)     -0.0468
               63      Occ  Alpha       2 (B3g)     -0.3607
               81      Occ  Alpha       4 (B3g)     -0.1467
               85      Occ  Beta        5 (B2g)     -0.0468
               63      Occ  Beta        2 (B3g)     -0.3607
               81      Occ  Beta        4 (B3g)     -0.1467
               91      Vir  Alpha      15 (B1g)      0.3690
               96      Vir  Alpha      16 (B1g)      0.4054
               101     Vir  Alpha      17 (B1g)      0.4590
               108     Vir  Alpha      18 (B1g)      0.5262
               122     Vir  Alpha      20 (B1g)      0.5972
               91      Vir  Beta       15 (B1g)      0.3690
               96      Vir  Beta       16 (B1g)      0.4054
               101     Vir  Beta       17 (B1g)      0.4590
               108     Vir  Beta       18 (B1g)      0.5262
               122     Vir  Beta       20 (B1g)      0.5972


 EOMIP transition 5/Ag
 Total energy = -3620.79670550 a.u.  Excitation energy = 6.7322 eV.
 R1^2 = 0.0040  R2^2 = 0.9960  Res^2 = 1.30e-07
 Conv-d = yes

 Amplitude    Transitions between orbitals
  0.4881       2 (B3g) A     5 (B2g) B   ->    17 (B1g) B    
 -0.4881       5 (B2g) B     2 (B3g) A   ->    17 (B1g) B    
 -0.4416       2 (B3g) A     5 (B2g) B   ->    15 (B1g) B    
  0.4416       5 (B2g) B     2 (B3g) A   ->    15 (B1g) B    
  0.2541       5 (B2g) A     2 (B3g) B   ->    17 (B1g) B    
 -0.2541       2 (B3g) B     5 (B2g) A   ->    17 (B1g) B    
 -0.2340       5 (B2g) A     2 (B3g) A   ->    17 (B1g) A    
  0.2340       2 (B3g) A     5 (B2g) A   ->    17 (B1g) A    
 -0.2297       5 (B2g) A     2 (B3g) B   ->    15 (B1g) B    
  0.2297       2 (B3g) B     5 (B2g) A   ->    15 (B1g) B    
  0.2119       5 (B2g) A     2 (B3g) A   ->    15 (B1g) A    
 -0.2119       2 (B3g) A     5 (B2g) A   ->    15 (B1g) A    
 -0.1821       4 (B3g) A     5 (B2g) B   ->    17 (B1g) B    
  0.1821       5 (B2g) B     4 (B3g) A   ->    17 (B1g) B    
  0.1814       2 (B3g) A     5 (B2g) B   ->    20 (B1g) B    
 -0.1814       5 (B2g) B     2 (B3g) A   ->    20 (B1g) B    
  0.1756       4 (B3g) A     5 (B2g) B   ->    15 (B1g) B    
 -0.1756       5 (B2g) B     4 (B3g) A   ->    15 (B1g) B    
  0.1629       2 (B3g) A     5 (B2g) B   ->    16 (B1g) B    
 -0.1629       5 (B2g) B     2 (B3g) A   ->    16 (B1g) B    
 -0.1539       2 (B3g) A     5 (B2g) B   ->    18 (B1g) B    
  0.1539       5 (B2g) B     2 (B3g) A   ->    18 (B1g) B    
  0.1417       2 (B3g) A     5 (B2g) B   ->    25 (B1g) B    
 -0.1417       5 (B2g) B     2 (B3g) A   ->    25 (B1g) B    

              Summary of significant orbitals:

               Number  Type             Irrep      Energy
               85      Occ  Alpha       5 (B2g)     -0.0468
               63      Occ  Alpha       2 (B3g)     -0.3607
               81      Occ  Alpha       4 (B3g)     -0.1467
               85      Occ  Beta        5 (B2g)     -0.0468
               63      Occ  Beta        2 (B3g)     -0.3607
               91      Vir  Alpha      15 (B1g)      0.3690
               101     Vir  Alpha      17 (B1g)      0.4590
               91      Vir  Beta       15 (B1g)      0.3690
               96      Vir  Beta       16 (B1g)      0.4054
               101     Vir  Beta       17 (B1g)      0.4590
               108     Vir  Beta       18 (B1g)      0.5262
               122     Vir  Beta       20 (B1g)      0.5972
               155     Vir  Beta       25 (B1g)      0.8441


 EOMIP transition 6/Ag
 Total energy = -3620.78938832 a.u.  Excitation energy = 6.9313 eV.
 R1^2 = 0.9029  R2^2 = 0.0971  Res^2 = 4.84e-09
 Conv-d = yes

 Amplitude    Transitions between orbitals
 -0.8734       19 (Ag) A                 ->    infty        
  0.2869       18 (Ag) A                 ->    infty        
 -0.2281       15 (Ag) A                 ->    infty        
  0.0520       17 (Ag) A                 ->    infty        

              Summary of significant orbitals:

               Number  Type             Irrep      Energy
               56      Occ  Alpha      15 (Ag)     -0.4448
               61      Occ  Alpha      17 (Ag)     -0.3721
               68      Occ  Alpha      18 (Ag)     -0.3163
               73      Occ  Alpha      19 (Ag)     -0.2631


 EOMIP transition 7/Ag
 Total energy = -3620.75427333 a.u.  Excitation energy = 7.8868 eV.
 R1^2 = 0.8858  R2^2 = 0.1142  Res^2 = 5.78e-07
 Conv-d = yes

 Amplitude    Transitions between orbitals
 -0.8944       17 (Ag) A                 ->    infty        
  0.2759       16 (Ag) A                 ->    infty        
 -0.0842       15 (Ag) A                 ->    infty        
  0.0268       11 (Ag) A                 ->    infty        

              Summary of significant orbitals:

               Number  Type             Irrep      Energy
               42      Occ  Alpha      11 (Ag)     -1.0281
               56      Occ  Alpha      15 (Ag)     -0.4448
               57      Occ  Alpha      16 (Ag)     -0.3971
               61      Occ  Alpha      17 (Ag)     -0.3721


 EOMIP transition 8/Ag
 Total energy = -3620.73945453 a.u.  Excitation energy = 8.2901 eV.
 R1^2 = 0.0020  R2^2 = 0.9980  Res^2 = 5.16e-07
 Conv-d = yes

 Amplitude    Transitions between orbitals
 -0.3872       5 (B2g) A     2 (B3g) A   ->    17 (B1g) A    
  0.3872       2 (B3g) A     5 (B2g) A   ->    17 (B1g) A    
 -0.3724       5 (B2g) A     2 (B3g) B   ->    17 (B1g) B    
  0.3724       2 (B3g) B     5 (B2g) A   ->    17 (B1g) B    
  0.3527       5 (B2g) A     2 (B3g) A   ->    15 (B1g) A    
 -0.3527       2 (B3g) A     5 (B2g) A   ->    15 (B1g) A    
  0.3390       5 (B2g) A     2 (B3g) B   ->    15 (B1g) B    
 -0.3390       2 (B3g) B     5 (B2g) A   ->    15 (B1g) B    
  0.1979       5 (B2g) A     4 (B3g) B   ->    17 (B1g) B    
 -0.1979       4 (B3g) B     5 (B2g) A   ->    17 (B1g) B    
 -0.1960       5 (B2g) A     4 (B3g) B   ->    15 (B1g) B    
  0.1960       4 (B3g) B     5 (B2g) A   ->    15 (B1g) B    
  0.1917       5 (B2g) A     4 (B3g) A   ->    17 (B1g) A    
 -0.1917       4 (B3g) A     5 (B2g) A   ->    17 (B1g) A    
 -0.1910       5 (B2g) A     4 (B3g) A   ->    15 (B1g) A    
  0.1910       4 (B3g) A     5 (B2g) A   ->    15 (B1g) A    
 -0.1417       5 (B2g) A     2 (B3g) A   ->    20 (B1g) A    
  0.1417       2 (B3g) A     5 (B2g) A   ->    20 (B1g) A    
 -0.1354       5 (B2g) A     2 (B3g) B   ->    20 (B1g) B    
  0.1354       2 (B3g) B     5 (B2g) A   ->    20 (B1g) B    
 -0.1298       5 (B2g) A     2 (B3g) A   ->    16 (B1g) A    
  0.1298       2 (B3g) A     5 (B2g) A   ->    16 (B1g) A    
 -0.1249       5 (B2g) A     2 (B3g) B   ->    16 (B1g) B    
  0.1249       2 (B3g) B     5 (B2g) A   ->    16 (B1g) B    
 -0.1234       2 (B2g) A     4 (B3g) B   ->    17 (B1g) B    
  0.1234       4 (B3g) B     2 (B2g) A   ->    17 (B1g) B    
  0.1219       5 (B2g) A     2 (B3g) A   ->    18 (B1g) A    
 -0.1219       2 (B3g) A     5 (B2g) A   ->    18 (B1g) A    
  0.1177       5 (B2g) A     2 (B3g) B   ->    18 (B1g) B    
 -0.1177       2 (B3g) B     5 (B2g) A   ->    18 (B1g) B    
  0.1100       2 (B2g) A     4 (B3g) B   ->    15 (B1g) B    
 -0.1100       4 (B3g) B     2 (B2g) A   ->    15 (B1g) B    
 -0.1089       5 (B2g) A     2 (B3g) A   ->    25 (B1g) A    
  0.1089       2 (B3g) A     5 (B2g) A   ->    25 (B1g) A    
 -0.1042       5 (B2g) A     2 (B3g) B   ->    25 (B1g) B    
  0.1042       2 (B3g) B     5 (B2g) A   ->    25 (B1g) B    

              Summary of significant orbitals:

               Number  Type             Irrep      Energy
               62      Occ  Alpha       2 (B2g)     -0.3693
               85      Occ  Alpha       5 (B2g)     -0.0468
               63      Occ  Alpha       2 (B3g)     -0.3607
               81      Occ  Alpha       4 (B3g)     -0.1467
               63      Occ  Beta        2 (B3g)     -0.3607
               81      Occ  Beta        4 (B3g)     -0.1467
               91      Vir  Alpha      15 (B1g)      0.3690
               96      Vir  Alpha      16 (B1g)      0.4054
               101     Vir  Alpha      17 (B1g)      0.4590
               108     Vir  Alpha      18 (B1g)      0.5262
               122     Vir  Alpha      20 (B1g)      0.5972
               155     Vir  Alpha      25 (B1g)      0.8441
               91      Vir  Beta       15 (B1g)      0.3690
               96      Vir  Beta       16 (B1g)      0.4054
               101     Vir  Beta       17 (B1g)      0.4590
               108     Vir  Beta       18 (B1g)      0.5262
               122     Vir  Beta       20 (B1g)      0.5972
               155     Vir  Beta       25 (B1g)      0.8441


 EOMIP transition 9/Ag
 Total energy = -3620.72140819 a.u.  Excitation energy = 8.7811 eV.
 R1^2 = 0.0000  R2^2 = 1.0000  Res^2 = 7.85e-06
 Conv-d = yes

 Amplitude    Transitions between orbitals
  0.2745       2 (B2g) A     4 (B3g) B   ->    17 (B1g) B    
 -0.2745       4 (B3g) B     2 (B2g) A   ->    17 (B1g) B    
 -0.2745       2 (B2g) A     4 (B3g) A   ->    17 (B1g) A    
  0.2745       4 (B3g) A     2 (B2g) A   ->    17 (B1g) A    
 -0.2744       4 (B3g) A     2 (B2g) B   ->    17 (B1g) B    
  0.2744       2 (B2g) B     4 (B3g) A   ->    17 (B1g) B    
  0.2463       2 (B2g) A     4 (B3g) A   ->    15 (B1g) A    
 -0.2463       4 (B3g) A     2 (B2g) A   ->    15 (B1g) A    
 -0.2463       2 (B2g) A     4 (B3g) B   ->    15 (B1g) B    
  0.2463       4 (B3g) B     2 (B2g) A   ->    15 (B1g) B    
  0.2461       4 (B3g) A     2 (B2g) B   ->    15 (B1g) B    
 -0.2461       2 (B2g) B     4 (B3g) A   ->    15 (B1g) B    
 -0.2009       4 (B3g) A     3 (B2g) B   ->    17 (B1g) B    
  0.2009       3 (B2g) B     4 (B3g) A   ->    17 (B1g) B    
 -0.2007       3 (B2g) A     4 (B3g) A   ->    17 (B1g) A    
  0.2007       4 (B3g) A     3 (B2g) A   ->    17 (B1g) A    
  0.2007       3 (B2g) A     4 (B3g) B   ->    17 (B1g) B    
 -0.2007       4 (B3g) B     3 (B2g) A   ->    17 (B1g) B    
  0.1813       4 (B3g) A     3 (B2g) B   ->    15 (B1g) B    
 -0.1813       3 (B2g) B     4 (B3g) A   ->    15 (B1g) B    
  0.1811       3 (B2g) A     4 (B3g) A   ->    15 (B1g) A    
 -0.1811       4 (B3g) A     3 (B2g) A   ->    15 (B1g) A    
 -0.1810       3 (B2g) A     4 (B3g) B   ->    15 (B1g) B    
  0.1810       4 (B3g) B     3 (B2g) A   ->    15 (B1g) B    
  0.1021       2 (B2g) A     4 (B3g) B   ->    20 (B1g) B    
 -0.1021       4 (B3g) B     2 (B2g) A   ->    20 (B1g) B    
 -0.1021       2 (B2g) A     4 (B3g) A   ->    20 (B1g) A    
  0.1021       4 (B3g) A     2 (B2g) A   ->    20 (B1g) A    
 -0.1020       4 (B3g) A     2 (B2g) B   ->    20 (B1g) B    
  0.1020       2 (B2g) B     4 (B3g) A   ->    20 (B1g) B    

              Summary of significant orbitals:

               Number  Type             Irrep      Energy
               62      Occ  Alpha       2 (B2g)     -0.3693
               66      Occ  Alpha       3 (B2g)     -0.3441
               81      Occ  Alpha       4 (B3g)     -0.1467
               62      Occ  Beta        2 (B2g)     -0.3693
               66      Occ  Beta        3 (B2g)     -0.3441
               81      Occ  Beta        4 (B3g)     -0.1467
               91      Vir  Alpha      15 (B1g)      0.3690
               101     Vir  Alpha      17 (B1g)      0.4590
               122     Vir  Alpha      20 (B1g)      0.5972
               91      Vir  Beta       15 (B1g)      0.3690
               101     Vir  Beta       17 (B1g)      0.4590
               122     Vir  Beta       20 (B1g)      0.5972


 EOMIP transition 10/Ag
 Total energy = -3620.71239120 a.u.  Excitation energy = 9.0265 eV.
 R1^2 = 0.0001  R2^2 = 0.9999  Res^2 = 2.67e-06
 Conv-d = yes

 Amplitude    Transitions between orbitals
 -0.3747       2 (B2g) A     4 (B3g) B   ->    17 (B1g) B    
  0.3747       4 (B3g) B     2 (B2g) A   ->    17 (B1g) B    
  0.3374       2 (B2g) A     4 (B3g) B   ->    15 (B1g) B    
 -0.3374       4 (B3g) B     2 (B2g) A   ->    15 (B1g) B    
 -0.2681       3 (B2g) A     4 (B3g) B   ->    17 (B1g) B    
  0.2681       4 (B3g) B     3 (B2g) A   ->    17 (B1g) B    
  0.2424       3 (B2g) A     4 (B3g) B   ->    15 (B1g) B    
 -0.2424       4 (B3g) B     3 (B2g) A   ->    15 (B1g) B    
 -0.2093       4 (B3g) A     2 (B2g) B   ->    17 (B1g) B    
  0.2093       2 (B2g) B     4 (B3g) A   ->    17 (B1g) B    
  0.1937       5 (B2g) A     2 (B3g) B   ->    17 (B1g) B    
 -0.1937       2 (B3g) B     5 (B2g) A   ->    17 (B1g) B    
  0.1885       4 (B3g) A     2 (B2g) B   ->    15 (B1g) B    
 -0.1885       2 (B2g) B     4 (B3g) A   ->    15 (B1g) B    
 -0.1789       5 (B2g) A     2 (B3g) B   ->    15 (B1g) B    
  0.1789       2 (B3g) B     5 (B2g) A   ->    15 (B1g) B    
 -0.1653       2 (B2g) A     4 (B3g) A   ->    17 (B1g) A    
  0.1653       4 (B3g) A     2 (B2g) A   ->    17 (B1g) A    
  0.1617       5 (B2g) A     2 (B3g) A   ->    17 (B1g) A    
 -0.1617       2 (B3g) A     5 (B2g) A   ->    17 (B1g) A    
 -0.1498       4 (B3g) A     3 (B2g) B   ->    17 (B1g) B    
  0.1498       3 (B2g) B     4 (B3g) A   ->    17 (B1g) B    
  0.1489       2 (B2g) A     4 (B3g) A   ->    15 (B1g) A    
 -0.1489       4 (B3g) A     2 (B2g) A   ->    15 (B1g) A    
 -0.1489       5 (B2g) A     2 (B3g) A   ->    15 (B1g) A    
  0.1489       2 (B3g) A     5 (B2g) A   ->    15 (B1g) A    
 -0.1396       2 (B2g) A     4 (B3g) B   ->    20 (B1g) B    
  0.1396       4 (B3g) B     2 (B2g) A   ->    20 (B1g) B    
  0.1351       4 (B3g) A     3 (B2g) B   ->    15 (B1g) B    
 -0.1351       3 (B2g) B     4 (B3g) A   ->    15 (B1g) B    
 -0.1247       2 (B2g) A     4 (B3g) B   ->    16 (B1g) B    
  0.1247       4 (B3g) B     2 (B2g) A   ->    16 (B1g) B    
  0.1185       2 (B2g) A     4 (B3g) B   ->    18 (B1g) B    
 -0.1185       4 (B3g) B     2 (B2g) A   ->    18 (B1g) B    
 -0.1184       3 (B2g) A     4 (B3g) A   ->    17 (B1g) A    
  0.1184       4 (B3g) A     3 (B2g) A   ->    17 (B1g) A    
  0.1100       4 (B2g) A     4 (B3g) B   ->    17 (B1g) B    
 -0.1100       4 (B3g) B     4 (B2g) A   ->    17 (B1g) B    
 -0.1095       2 (B2g) A     4 (B3g) B   ->    25 (B1g) B    
  0.1095       4 (B3g) B     2 (B2g) A   ->    25 (B1g) B    
  0.1073       3 (B2g) A     4 (B3g) A   ->    15 (B1g) A    
 -0.1073       4 (B3g) A     3 (B2g) A   ->    15 (B1g) A    
 -0.1027       4 (B2g) A     4 (B3g) B   ->    15 (B1g) B    
  0.1027       4 (B3g) B     4 (B2g) A   ->    15 (B1g) B    

              Summary of significant orbitals:

               Number  Type             Irrep      Energy
               62      Occ  Alpha       2 (B2g)     -0.3693
               66      Occ  Alpha       3 (B2g)     -0.3441
               77      Occ  Alpha       4 (B2g)     -0.2210
               85      Occ  Alpha       5 (B2g)     -0.0468
               63      Occ  Alpha       2 (B3g)     -0.3607
               81      Occ  Alpha       4 (B3g)     -0.1467
               62      Occ  Beta        2 (B2g)     -0.3693
               66      Occ  Beta        3 (B2g)     -0.3441
               63      Occ  Beta        2 (B3g)     -0.3607
               81      Occ  Beta        4 (B3g)     -0.1467
               91      Vir  Alpha      15 (B1g)      0.3690
               101     Vir  Alpha      17 (B1g)      0.4590
               91      Vir  Beta       15 (B1g)      0.3690
               96      Vir  Beta       16 (B1g)      0.4054
               101     Vir  Beta       17 (B1g)      0.4590
               108     Vir  Beta       18 (B1g)      0.5262
               122     Vir  Beta       20 (B1g)      0.5972
               155     Vir  Beta       25 (B1g)      0.8441


 EOMIP transition 11/Ag
 Total energy = -3620.71109743 a.u.  Excitation energy = 9.0617 eV.
 R1^2 = 0.0000  R2^2 = 1.0000  Res^2 = 7.80e-06
 Conv-d = yes

 Amplitude    Transitions between orbitals
  0.3084       18 (Ag) A      14 (B1g) B   ->    17 (B1g) B    
 -0.3084       14 (B1g) B     18 (Ag) A    ->    17 (B1g) B    
 -0.3081       18 (Ag) A      14 (B1g) A   ->    17 (B1g) A    
  0.3081       14 (B1g) A     18 (Ag) A    ->    17 (B1g) A    
 -0.3074       14 (B1g) A     18 (Ag) B    ->    17 (B1g) B    
  0.3074       18 (Ag) B      14 (B1g) A   ->    17 (B1g) B    
 -0.2744       18 (Ag) A      14 (B1g) B   ->    15 (B1g) B    
  0.2744       14 (B1g) B     18 (Ag) A    ->    15 (B1g) B    
  0.2744       18 (Ag) A      14 (B1g) A   ->    15 (B1g) A    
 -0.2744       14 (B1g) A     18 (Ag) A    ->    15 (B1g) A    
  0.2737       14 (B1g) A     18 (Ag) B    ->    15 (B1g) B    
 -0.2737       18 (Ag) B      14 (B1g) A   ->    15 (B1g) B    
 -0.1544       14 (B1g) A     20 (Ag) B    ->    17 (B1g) B    
  0.1544       20 (Ag) B      14 (B1g) A   ->    17 (B1g) B    
  0.1541       20 (Ag) A      14 (B1g) B   ->    17 (B1g) B    
 -0.1541       14 (B1g) B     20 (Ag) A    ->    17 (B1g) B    
 -0.1537       20 (Ag) A      14 (B1g) A   ->    17 (B1g) A    
  0.1537       14 (B1g) A     20 (Ag) A    ->    17 (B1g) A    
  0.1413       14 (B1g) A     20 (Ag) B    ->    15 (B1g) B    
 -0.1413       20 (Ag) B      14 (B1g) A   ->    15 (B1g) B    
 -0.1411       20 (Ag) A      14 (B1g) B   ->    15 (B1g) B    
  0.1411       14 (B1g) B     20 (Ag) A    ->    15 (B1g) B    
  0.1407       20 (Ag) A      14 (B1g) A   ->    15 (B1g) A    
 -0.1407       14 (B1g) A     20 (Ag) A    ->    15 (B1g) A    
  0.1149       18 (Ag) A      14 (B1g) B   ->    20 (B1g) B    
 -0.1149       14 (B1g) B     18 (Ag) A    ->    20 (B1g) B    
 -0.1149       18 (Ag) A      14 (B1g) A   ->    20 (B1g) A    
  0.1149       14 (B1g) A     18 (Ag) A    ->    20 (B1g) A    
 -0.1146       14 (B1g) A     18 (Ag) B    ->    20 (B1g) B    
  0.1146       18 (Ag) B      14 (B1g) A   ->    20 (B1g) B    
 -0.1016       18 (Ag) A      14 (B1g) A   ->    16 (B1g) A    
  0.1016       14 (B1g) A     18 (Ag) A    ->    16 (B1g) A    
  0.1015       18 (Ag) A      14 (B1g) B   ->    16 (B1g) B    
 -0.1015       14 (B1g) B     18 (Ag) A    ->    16 (B1g) B    
 -0.1013       14 (B1g) A     18 (Ag) B    ->    16 (B1g) B    
  0.1013       18 (Ag) B      14 (B1g) A   ->    16 (B1g) B    

              Summary of significant orbitals:

               Number  Type             Irrep      Energy
               68      Occ  Alpha      18 (Ag)     -0.3163
               78      Occ  Alpha      20 (Ag)     -0.2084
               80      Occ  Alpha      14 (B1g)     -0.1619
               68      Occ  Beta       18 (Ag)     -0.3163
               78      Occ  Beta       20 (Ag)     -0.2084
               80      Occ  Beta       14 (B1g)     -0.1619
               91      Vir  Alpha      15 (B1g)      0.3690
               96      Vir  Alpha      16 (B1g)      0.4054
               101     Vir  Alpha      17 (B1g)      0.4590
               122     Vir  Alpha      20 (B1g)      0.5972
               91      Vir  Beta       15 (B1g)      0.3690
               96      Vir  Beta       16 (B1g)      0.4054
               101     Vir  Beta       17 (B1g)      0.4590
               122     Vir  Beta       20 (B1g)      0.5972


 EOMIP transition 12/Ag
 Total energy = -3620.69219812 a.u.  Excitation energy = 9.5760 eV.
 R1^2 = 0.8714  R2^2 = 0.1286  Res^2 = 5.26e-08
 Conv-d = yes

 Amplitude    Transitions between orbitals
  0.6280       16 (Ag) A                 ->    infty        
  0.6144       15 (Ag) A                 ->    infty        
  0.2719       18 (Ag) A                 ->    infty        
  0.1343       17 (Ag) A                 ->    infty        

              Summary of significant orbitals:

               Number  Type             Irrep      Energy
               56      Occ  Alpha      15 (Ag)     -0.4448
               57      Occ  Alpha      16 (Ag)     -0.3971
               61      Occ  Alpha      17 (Ag)     -0.3721
               68      Occ  Alpha      18 (Ag)     -0.3163


 EOMIP transition 13/Ag
 Total energy = -3620.65820855 a.u.  Excitation energy = 10.5009 eV.
 R1^2 = 0.0594  R2^2 = 0.9406  Res^2 = 1.22e-06
 Conv-d = yes

 Amplitude    Transitions between orbitals
 -0.3570       14 (B1g) A     18 (Ag) B    ->    17 (B1g) B    
  0.3570       18 (Ag) B      14 (B1g) A   ->    17 (B1g) B    
  0.3193       14 (B1g) A     18 (Ag) B    ->    15 (B1g) B    
 -0.3193       18 (Ag) B      14 (B1g) A   ->    15 (B1g) B    
 -0.2814       18 (Ag) A      14 (B1g) B   ->    17 (B1g) B    
  0.2814       14 (B1g) B     18 (Ag) A    ->    17 (B1g) B    
  0.2498       18 (Ag) A      14 (B1g) B   ->    15 (B1g) B    
 -0.2498       14 (B1g) B     18 (Ag) A    ->    15 (B1g) B    
 -0.1878       14 (B1g) A     20 (Ag) B    ->    17 (B1g) B    
  0.1878       20 (Ag) B      14 (B1g) A   ->    17 (B1g) B    
  0.1760       14 (B1g) A     20 (Ag) B    ->    15 (B1g) B    
 -0.1760       20 (Ag) B      14 (B1g) A   ->    15 (B1g) B    
 -0.1484       20 (Ag) A      14 (B1g) B   ->    17 (B1g) B    
  0.1484       14 (B1g) B     20 (Ag) A    ->    17 (B1g) B    
  0.1375       20 (Ag) A      14 (B1g) B   ->    15 (B1g) B    
 -0.1375       14 (B1g) B     20 (Ag) A    ->    15 (B1g) B    
 -0.1314       14 (B1g) A     18 (Ag) B    ->    20 (B1g) B    
  0.1314       18 (Ag) B      14 (B1g) A   ->    20 (B1g) B    
 -0.1293       18 (Ag) A      13 (B1g) B   ->    17 (B1g) B    
  0.1293       13 (B1g) B     18 (Ag) A    ->    17 (B1g) B    
  0.1215       18 (Ag) A      13 (B1g) B   ->    15 (B1g) B    
 -0.1215       13 (B1g) B     18 (Ag) A    ->    15 (B1g) B    
 -0.1178       14 (B1g) A     18 (Ag) B    ->    16 (B1g) B    
  0.1178       18 (Ag) B      14 (B1g) A   ->    16 (B1g) B    
 -0.1137       14 (B1g) A     19 (Ag) B    ->    17 (B1g) B    
  0.1137       19 (Ag) B      14 (B1g) A   ->    17 (B1g) B    
  0.1128       14 (B1g) A     18 (Ag) B    ->    18 (B1g) B    
 -0.1128       18 (Ag) B      14 (B1g) A   ->    18 (B1g) B    
  0.1126       14 (B1g) A     16 (Ag) B    ->    17 (B1g) B    
 -0.1126       16 (Ag) B      14 (B1g) A   ->    17 (B1g) B    
 -0.1053       18 (Ag) A      14 (B1g) B   ->    20 (B1g) B    
  0.1053       14 (B1g) B     18 (Ag) A    ->    20 (B1g) B    
  0.1051       14 (B1g) A     19 (Ag) B    ->    15 (B1g) B    
 -0.1051       19 (Ag) B      14 (B1g) A   ->    15 (B1g) B    
 -0.1034       14 (B1g) A     18 (Ag) B    ->    25 (B1g) B    
  0.1034       18 (Ag) B      14 (B1g) A   ->    25 (B1g) B    

              Summary of significant orbitals:

               Number  Type             Irrep      Energy
               68      Occ  Alpha      18 (Ag)     -0.3163
               78      Occ  Alpha      20 (Ag)     -0.2084
               80      Occ  Alpha      14 (B1g)     -0.1619
               57      Occ  Beta       16 (Ag)     -0.3971
               68      Occ  Beta       18 (Ag)     -0.3163
               73      Occ  Beta       19 (Ag)     -0.2631
               78      Occ  Beta       20 (Ag)     -0.2084
               74      Occ  Beta       13 (B1g)     -0.2540
               80      Occ  Beta       14 (B1g)     -0.1619
               91      Vir  Beta       15 (B1g)      0.3690
               96      Vir  Beta       16 (B1g)      0.4054
               101     Vir  Beta       17 (B1g)      0.4590
               108     Vir  Beta       18 (B1g)      0.5262
               122     Vir  Beta       20 (B1g)      0.5972
               155     Vir  Beta       25 (B1g)      0.8441


 EOMIP transition 14/Ag
 Total energy = -3620.65607091 a.u.  Excitation energy = 10.5591 eV.
 R1^2 = 0.0059  R2^2 = 0.9941  Res^2 = 6.09e-06
 Conv-d = yes

 Amplitude    Transitions between orbitals
  0.3270       2 (B2g) A     4 (B3g) A   ->    17 (B1g) A    
 -0.3270       4 (B3g) A     2 (B2g) A   ->    17 (B1g) A    
 -0.3139       4 (B3g) A     2 (B2g) B   ->    17 (B1g) B    
  0.3139       2 (B2g) B     4 (B3g) A   ->    17 (B1g) B    
 -0.2958       2 (B2g) A     4 (B3g) A   ->    15 (B1g) A    
  0.2958       4 (B3g) A     2 (B2g) A   ->    15 (B1g) A    
  0.2841       4 (B3g) A     2 (B2g) B   ->    15 (B1g) B    
 -0.2841       2 (B2g) B     4 (B3g) A   ->    15 (B1g) B    
  0.2430       3 (B2g) A     4 (B3g) A   ->    17 (B1g) A    
 -0.2430       4 (B3g) A     3 (B2g) A   ->    17 (B1g) A    
 -0.2325       4 (B3g) A     3 (B2g) B   ->    17 (B1g) B    
  0.2325       3 (B2g) B     4 (B3g) A   ->    17 (B1g) B    
 -0.2213       3 (B2g) A     4 (B3g) A   ->    15 (B1g) A    
  0.2213       4 (B3g) A     3 (B2g) A   ->    15 (B1g) A    
  0.2113       4 (B3g) A     3 (B2g) B   ->    15 (B1g) B    
 -0.2113       3 (B2g) B     4 (B3g) A   ->    15 (B1g) B    
 -0.1343       4 (B3g) A     5 (B2g) B   ->    15 (B1g) B    
  0.1343       5 (B2g) B     4 (B3g) A   ->    15 (B1g) B    
  0.1313       5 (B2g) A     4 (B3g) A   ->    15 (B1g) A    
 -0.1313       4 (B3g) A     5 (B2g) A   ->    15 (B1g) A    
  0.1264       4 (B3g) A     5 (B2g) B   ->    17 (B1g) B    
 -0.1264       5 (B2g) B     4 (B3g) A   ->    17 (B1g) B    
 -0.1226       4 (B2g) A     4 (B3g) A   ->    17 (B1g) A    
  0.1226       4 (B3g) A     4 (B2g) A   ->    17 (B1g) A    
 -0.1226       5 (B2g) A     4 (B3g) A   ->    17 (B1g) A    
  0.1226       4 (B3g) A     5 (B2g) A   ->    17 (B1g) A    
  0.1205       2 (B2g) A     4 (B3g) A   ->    20 (B1g) A    
 -0.1205       4 (B3g) A     2 (B2g) A   ->    20 (B1g) A    
  0.1199       4 (B3g) A     4 (B2g) B   ->    17 (B1g) B    
 -0.1199       4 (B2g) B     4 (B3g) A   ->    17 (B1g) B    
  0.1171       4 (B2g) A     4 (B3g) A   ->    15 (B1g) A    
 -0.1171       4 (B3g) A     4 (B2g) A   ->    15 (B1g) A    
 -0.1149       4 (B3g) A     2 (B2g) B   ->    20 (B1g) B    
  0.1149       2 (B2g) B     4 (B3g) A   ->    20 (B1g) B    
 -0.1142       4 (B3g) A     4 (B2g) B   ->    15 (B1g) B    
  0.1142       4 (B2g) B     4 (B3g) A   ->    15 (B1g) B    
  0.1093       2 (B2g) A     4 (B3g) A   ->    16 (B1g) A    
 -0.1093       4 (B3g) A     2 (B2g) A   ->    16 (B1g) A    
 -0.1051       4 (B3g) A     2 (B2g) B   ->    16 (B1g) B    
  0.1051       2 (B2g) B     4 (B3g) A   ->    16 (B1g) B    
 -0.1036       5 (B2g) A     2 (B3g) A   ->    17 (B1g) A    
  0.1036       2 (B3g) A     5 (B2g) A   ->    17 (B1g) A    
 -0.1035       2 (B2g) A     4 (B3g) A   ->    18 (B1g) A    
  0.1035       4 (B3g) A     2 (B2g) A   ->    18 (B1g) A    

              Summary of significant orbitals:

               Number  Type             Irrep      Energy
               62      Occ  Alpha       2 (B2g)     -0.3693
               66      Occ  Alpha       3 (B2g)     -0.3441
               77      Occ  Alpha       4 (B2g)     -0.2210
               85      Occ  Alpha       5 (B2g)     -0.0468
               63      Occ  Alpha       2 (B3g)     -0.3607
               81      Occ  Alpha       4 (B3g)     -0.1467
               62      Occ  Beta        2 (B2g)     -0.3693
               66      Occ  Beta        3 (B2g)     -0.3441
               77      Occ  Beta        4 (B2g)     -0.2210
               85      Occ  Beta        5 (B2g)     -0.0468
               91      Vir  Alpha      15 (B1g)      0.3690
               96      Vir  Alpha      16 (B1g)      0.4054
               101     Vir  Alpha      17 (B1g)      0.4590
               108     Vir  Alpha      18 (B1g)      0.5262
               122     Vir  Alpha      20 (B1g)      0.5972
               91      Vir  Beta       15 (B1g)      0.3690
               96      Vir  Beta       16 (B1g)      0.4054
               101     Vir  Beta       17 (B1g)      0.4590
               122     Vir  Beta       20 (B1g)      0.5972


 EOMIP transition 15/Ag
 Total energy = -3620.63589899 a.u.  Excitation energy = 11.1080 eV.
 R1^2 = 0.0032  R2^2 = 0.9968  Res^2 = 6.99e-07
 Conv-d = yes

 Amplitude    Transitions between orbitals
  0.5145       5 (B2g) A     5 (B2g) B   ->    22 (Ag) B     
 -0.5145       5 (B2g) B     5 (B2g) A   ->    22 (Ag) B     
 -0.4298       5 (B2g) A     5 (B2g) B   ->    21 (Ag) B     
  0.4298       5 (B2g) B     5 (B2g) A   ->    21 (Ag) B     
 -0.3719       5 (B2g) A     5 (B2g) B   ->    24 (Ag) B     
  0.3719       5 (B2g) B     5 (B2g) A   ->    24 (Ag) B     
 -0.2947       5 (B2g) A     5 (B2g) B   ->    23 (Ag) B     
  0.2947       5 (B2g) B     5 (B2g) A   ->    23 (Ag) B     
  0.1519       3 (Au) A      5 (B2g) B   ->    19 (B2u) B    
 -0.1519       5 (B2g) B     3 (Au) A    ->    19 (B2u) B    
  0.1342       6 (B1u) A     6 (B1u) B   ->    21 (Ag) B     
 -0.1342       6 (B1u) B     6 (B1u) A   ->    21 (Ag) B     
  0.1212       3 (Au) A      5 (B2g) B   ->    18 (B2u) B    
 -0.1212       5 (B2g) B     3 (Au) A    ->    18 (B2u) B    
  0.1208       5 (B2g) A     3 (Au) B    ->    19 (B2u) B    
 -0.1208       3 (Au) B      5 (B2g) A   ->    19 (B2u) B    
 -0.1142       6 (B1u) A     6 (B1u) B   ->    22 (Ag) B     
  0.1142       6 (B1u) B     6 (B1u) A   ->    22 (Ag) B     
  0.1072       5 (B2g) A     5 (B2g) B   ->    27 (Ag) B     
 -0.1072       5 (B2g) B     5 (B2g) A   ->    27 (Ag) B     
  0.1009       6 (B1u) A     6 (B1u) B   ->    24 (Ag) B     
 -0.1009       6 (B1u) B     6 (B1u) A   ->    24 (Ag) B     

              Summary of significant orbitals:

               Number  Type             Irrep      Energy
               85      Occ  Alpha       5 (B2g)     -0.0468
               83      Occ  Alpha       3 (Au)     -0.1372
               84      Occ  Alpha       6 (B1u)     -0.0896
               85      Occ  Beta        5 (B2g)     -0.0468
               83      Occ  Beta        3 (Au)     -0.1372
               84      Occ  Beta        6 (B1u)     -0.0896
               88      Vir  Beta       21 (Ag)      0.3157
               89      Vir  Beta       22 (Ag)      0.3391
               92      Vir  Beta       23 (Ag)      0.3722
               99      Vir  Beta       24 (Ag)      0.4275
               115     Vir  Beta       27 (Ag)      0.5644
               95      Vir  Beta       18 (B2u)      0.4003
               100     Vir  Beta       19 (B2u)      0.4364


Running a double precision version
      CD-EOMIP-CCSD/MP2 left amplitudes will be solved using Davidson.
        Amplitudes will be solved using MOM  algorithm.
     Hard-coded thresholds: 
     LinDepThresh=1.00e-15  NormThresh=1.00e-06  ReorthogonThresh=1.00e-02

      Roots     MaxVec    MaxIter   Precond   Conv      Shift    
      15        120       250       1         1.00e-05  0.00e+00  
 ------------------------------------------------------------------------------
      Iter ConvRoots NVecs ResNorm^2 Current eigenvalues (eV)
 ------------------------------------------------------------------------------
      0    0      15    1.38e-02   2.8822   4.4520   5.5471   6.5321   6.7322   6.9313   7.8868   8.2901   8.7811   9.0265   9.0617   9.5760   10.5009   10.5591   11.1080   
[...]
       |Sz=-0.50>           |Sz=0.50>
 <Sz=-0.50|(0.000000,-0.000000)(-0.000000,-0.000000)
 <Sz=0.50|(0.000000,-0.000000)(0.000000,0.000000)
 ______________________________________________________________

State analysis of universal triplet transition OPDM (A->B) using libwa module will be excecuted
 

 ------------------------------------------------------------------------------
 State A: eomip_mp2/a: 1/B2g
 State B: eomip_mp2/a: 12/B2u
 Energy GAP = 0.349781 a.u. = 9.518044 eV
 Transition dipole moment (a.u.):
   A->B: 0.000000 (X 0.000000, Y 0.000000, Z 0.000000)
   B->A: 0.000000 (X 0.000000, Y 0.000000, Z 0.000000)
 Oscillator strength (a.u.): 0.000000
 Transition angular momentum against gauge origin (a.u.):
   A->B:  (X 0.000000i, Y 0.000000i, Z 0.000000i)
   B->A:  (X 0.000000i, Y 0.000000i, Z 0.000000i)
 Norm of one-particle transition density matrix:
   A->B: 0.057952;   B->A: 0.056456
   ||gamma^AB||*||gamma^BA||: 0.003272

 ______________________________________________________________
 A(Ket)->B(Bra) transition SO matrices
Full 2e SOC is not implemented withing libqints. 
I will do mean-field SOC with libqints, which is usually as good as full 2e SOC
 Analysing Sz ans S^2 of the pair of states...
 Ket state:  Computed S^2 = 0.750000 will be treated as 0.750000 Sz = -0.500000
 Bra state:  Computed S^2 = 0.750073 will be treated as 0.750000 Sz = -0.500000
 Clebsh-Gordan coefficient: <0.500,-0.500;1.000,0.000|0.500,-0.500> = -0.577
 _________________________________________________
 One-electron SO (cm-1)
 Reduced matrix elements:
 <S|| Hso(L-) ||S'> = (-0.000000,0.000000)
 <S|| Hso(L0) ||S'> = (0.000000,-0.000000)
 <S|| Hso(L+) ||S'> = (-0.000000,-0.000000)
 SOCC = 0.000000
 Actual matrix elements:
       |Sz=-0.50>           |Sz=0.50>
 <Sz=-0.50|(0.000000,0.000000)(-0.000000,-0.000000)
 <Sz=0.50|(0.000000,-0.000000)(0.000000,-0.000000)
 _________________________________________________
 Mean-field SO (cm-1)
 Reduced matrix elements:
 <S|| Hso(L-) ||S'> = (-0.000000,0.000000)
 <S|| Hso(L0) ||S'> = (0.000000,-0.000000)
 <S|| Hso(L+) ||S'> = (-0.000000,-0.000000)
 SOCC = 0.000000
 Actual matrix elements:
       |Sz=-0.50>           |Sz=0.50>
 <Sz=-0.50|(0.000000,0.000000)(-0.000000,-0.000000)
 <Sz=0.50|(0.000000,-0.000000)(0.000000,-0.000000)
 Singlet part of <S|| Hso(L0) ||S'> = (-0.000000,0.000000) (excluded from all matrix elements)
 L-/L+ Averaged reduced matrix elements:
 <S|| Hso(L-) ||S'> = (-0.000000,0.000000)
 <S|| Hso(L+) ||S'> = (-0.000000,-0.000000)
 ______________________________________________________________
 B(Ket)->A(Bra) transition SO matrices
Full 2e SOC is not implemented withing libqints. 
I will do mean-field SOC with libqints, which is usually as good as full 2e SOC
 Analysing Sz ans S^2 of the pair of states...
 Ket state:  Computed S^2 = 0.750073 will be treated as 0.750000 Sz = -0.500000
 Bra state:  Computed S^2 = 0.750000 will be treated as 0.750000 Sz = -0.500000
 Clebsh-Gordan coefficient: <0.500,-0.500;1.000,0.000|0.500,-0.500> = -0.577
 _________________________________________________
 One-electron SO (cm-1)
 Reduced matrix elements:
 <S|| Hso(L-) ||S'> = (0.000000,-0.000000)
 <S|| Hso(L0) ||S'> = (0.000000,0.000000)
 <S|| Hso(L+) ||S'> = (0.000000,0.000000)
 SOCC = 0.000000
 Actual matrix elements:
       |Sz=-0.50>           |Sz=0.50>
 <Sz=-0.50|(0.000000,-0.000000)(0.000000,0.000000)
 <Sz=0.50|(-0.000000,0.000000)(0.000000,0.000000)
 _________________________________________________
 Mean-field SO (cm-1)
 Reduced matrix elements:
 <S|| Hso(L-) ||S'> = (0.000000,-0.000000)
 <S|| Hso(L0) ||S'> = (0.000000,0.000000)
 <S|| Hso(L+) ||S'> = (0.000000,0.000000)
 SOCC = 0.000000
 Actual matrix elements:
       |Sz=-0.50>           |Sz=0.50>
 <Sz=-0.50|(0.000000,-0.000000)(0.000000,0.000000)
 <Sz=0.50|(-0.000000,0.000000)(0.000000,0.000000)
 Singlet part of <S|| Hso(L0) ||S'> = (-0.000000,-0.000000) (excluded from all matrix elements)
 L-/L+ Averaged reduced matrix elements:
 <S|| Hso(L-) ||S'> = (0.000000,-0.000000)
 <S|| Hso(L+) ||S'> = (0.000000,0.000000)
 ______________________________________________________________
   Arithmetically averaged transition SO matrices
   (The phases shown, Ket and Bra assingment are from A(Ket)->B(Bra))
 _________________________________________________
 One-electron SO (cm-1)
 SOCC = 0.000000
 Actual matrix elements:
       |Sz=-0.50>           |Sz=0.50>
 <Sz=-0.50|(0.000000,0.000000)(-0.000000,-0.000000)
 <Sz=0.50|(0.000000,-0.000000)(0.000000,-0.000000)
 _________________________________________________
 Mean-field SO (cm-1)
 SOCC = 0.000000
 Actual matrix elements:
       |Sz=-0.50>           |Sz=0.50>
 <Sz=-0.50|(0.000000,0.000000)(-0.000000,-0.000000)
 <Sz=0.50|(0.000000,-0.000000)(0.000000,-0.000000)
 ______________________________________________________________

State analysis of universal triplet transition OPDM (A->B) using libwa module will be excecuted
 

 ------------------------------------------------------------------------------
 State A: eomip_mp2/a: 1/B2g
 State B: eomip_mp2/a: 13/B2u
 Energy GAP = 0.360426 a.u. = 9.807695 eV
 Transition dipole moment (a.u.):
   A->B: 0.000000 (X 0.000000, Y 0.000000, Z 0.000000)
   B->A: 0.000000 (X 0.000000, Y 0.000000, Z 0.000000)
 Oscillator strength (a.u.): 0.000000
 Transition angular momentum against gauge origin (a.u.):
   A->B:  (X 0.000000i, Y 0.000000i, Z 0.000000i)
   B->A:  (X 0.000000i, Y 0.000000i, Z 0.000000i)
 Norm of one-particle transition density matrix:
   A->B: 0.012619;   B->A: 0.012202
   ||gamma^AB||*||gamma^BA||: 0.000154

 ______________________________________________________________
 A(Ket)->B(Bra) transition SO matrices
Full 2e SOC is not implemented withing libqints. 
I will do mean-field SOC with libqints, which is usually as good as full 2e SOC
 Analysing Sz ans S^2 of the pair of states...
 Ket state:  Computed S^2 = 0.750000 will be treated as 0.750000 Sz = -0.500000
 Bra state:  Computed S^2 = 3.749319 will be treated as 3.750000 Sz = -0.500000
 Clebsh-Gordan coefficient: <0.500,-0.500;1.000,0.000|1.500,-0.500> = 0.816
 _________________________________________________
 One-electron SO (cm-1)
 Reduced matrix elements:
 <S|| Hso(L-) ||S'> = (-0.000000,0.000000)
 <S|| Hso(L0) ||S'> = (0.000000,-0.000000)
 <S|| Hso(L+) ||S'> = (-0.000000,-0.000000)
 SOCC = 0.000000
 Actual matrix elements:
       |Sz=-0.50>           |Sz=0.50>
 <Sz=-1.50|(-0.000000,-0.000000)(0.000000,0.000000)
 <Sz=-0.50|(0.000000,-0.000000)(-0.000000,-0.000000)
 <Sz=0.50|(-0.000000,0.000000)(0.000000,-0.000000)
 <Sz=1.50|(0.000000,0.000000)(-0.000000,0.000000)
 _________________________________________________
 Mean-field SO (cm-1)
 Reduced matrix elements:
 <S|| Hso(L-) ||S'> = (-0.000000,0.000000)
 <S|| Hso(L0) ||S'> = (0.000000,-0.000000)
 <S|| Hso(L+) ||S'> = (-0.000000,-0.000000)
 SOCC = 0.000000
 Actual matrix elements:
       |Sz=-0.50>           |Sz=0.50>
 <Sz=-1.50|(-0.000000,-0.000000)(0.000000,0.000000)
 <Sz=-0.50|(0.000000,-0.000000)(-0.000000,-0.000000)
 <Sz=0.50|(-0.000000,0.000000)(0.000000,-0.000000)
 <Sz=1.50|(0.000000,0.000000)(-0.000000,0.000000)
 Singlet part of <S|| Hso(L0) ||S'> = (-0.000000,0.000000) (excluded from all matrix elements)
 L-/L+ Averaged reduced matrix elements:
 <S|| Hso(L-) ||S'> = (-0.000000,0.000000)
 <S|| Hso(L+) ||S'> = (-0.000000,-0.000000)
 ______________________________________________________________
 B(Ket)->A(Bra) transition SO matrices
Full 2e SOC is not implemented withing libqints. 
I will do mean-field SOC with libqints, which is usually as good as full 2e SOC
 Analysing Sz ans S^2 of the pair of states...
 Ket state:  Computed S^2 = 3.749319 will be treated as 3.750000 Sz = -0.500000
 Bra state:  Computed S^2 = 0.750000 will be treated as 0.750000 Sz = -0.500000
 Clebsh-Gordan coefficient: <1.500,-0.500;1.000,0.000|0.500,-0.500> = -0.577
 _________________________________________________
 One-electron SO (cm-1)
 Reduced matrix elements:
 <S|| Hso(L-) ||S'> = (-0.000000,0.000000)
 <S|| Hso(L0) ||S'> = (0.000000,-0.000000)
 <S|| Hso(L+) ||S'> = (-0.000000,-0.000000)
 SOCC = 0.000000
 Actual matrix elements:
       |Sz=-1.50>           |Sz=-0.50>           |Sz=0.50>           |Sz=1.50>
 <Sz=-0.50|(-0.000000,0.000000)(0.000000,0.000000)(-0.000000,-0.000000)(0.000000,0.000000)
 <Sz=0.50|(0.000000,0.000000)(-0.000000,0.000000)(0.000000,0.000000)(-0.000000,-0.000000)
 _________________________________________________
 Mean-field SO (cm-1)
 Reduced matrix elements:
 <S|| Hso(L-) ||S'> = (-0.000000,0.000000)
 <S|| Hso(L0) ||S'> = (0.000000,-0.000000)
 <S|| Hso(L+) ||S'> = (-0.000000,-0.000000)
 SOCC = 0.000000
 Actual matrix elements:
       |Sz=-1.50>           |Sz=-0.50>           |Sz=0.50>           |Sz=1.50>
 <Sz=-0.50|(-0.000000,0.000000)(0.000000,0.000000)(-0.000000,-0.000000)(0.000000,0.000000)
 <Sz=0.50|(0.000000,0.000000)(-0.000000,0.000000)(0.000000,0.000000)(-0.000000,-0.000000)
 Singlet part of <S|| Hso(L0) ||S'> = (-0.000000,-0.000000) (excluded from all matrix elements)
 L-/L+ Averaged reduced matrix elements:
 <S|| Hso(L-) ||S'> = (-0.000000,0.000000)
 <S|| Hso(L+) ||S'> = (-0.000000,-0.000000)
 ______________________________________________________________
   Arithmetically averaged transition SO matrices
   (The phases shown, Ket and Bra assingment are from A(Ket)->B(Bra))
 _________________________________________________
 One-electron SO (cm-1)
 SOCC = 0.000000
 Actual matrix elements:
       |Sz=-0.50>           |Sz=0.50>
 <Sz=-1.50|(-0.000000,-0.000000)(0.000000,0.000000)
 <Sz=-0.50|(0.000000,-0.000000)(-0.000000,-0.000000)
 <Sz=0.50|(-0.000000,0.000000)(0.000000,-0.000000)
 <Sz=1.50|(0.000000,0.000000)(-0.000000,0.000000)
 _________________________________________________
 Mean-field SO (cm-1)
 SOCC = 0.000000
 Actual matrix elements:
       |Sz=-0.50>           |Sz=0.50>
 <Sz=-1.50|(-0.000000,-0.000000)(0.000000,0.000000)
 <Sz=-0.50|(0.000000,-0.000000)(-0.000000,-0.000000)
 <Sz=0.50|(-0.000000,0.000000)(0.000000,-0.000000)
 <Sz=1.50|(0.000000,0.000000)(-0.000000,0.000000)
 ______________________________________________________________

State analysis of universal triplet transition OPDM (A->B) using libwa module will be excecuted
 

 ------------------------------------------------------------------------------
 State A: eomip_mp2/a: 1/B2g
 State B: eomip_mp2/a: 14/B2u
 Energy GAP = 0.375145 a.u. = 10.208226 eV
 Transition dipole moment (a.u.):
   A->B: 0.000000 (X 0.000000, Y 0.000000, Z 0.000000)
   B->A: 0.000000 (X 0.000000, Y 0.000000, Z 0.000000)
 Oscillator strength (a.u.): 0.000000
 Transition angular momentum against gauge origin (a.u.):
   A->B:  (X 0.000000i, Y 0.000000i, Z 0.000000i)
   B->A:  (X 0.000000i, Y 0.000000i, Z 0.000000i)
 Norm of one-particle transition density matrix:
   A->B: 0.034639;   B->A: 0.033606
   ||gamma^AB||*||gamma^BA||: 0.001164

 ______________________________________________________________
 A(Ket)->B(Bra) transition SO matrices
Full 2e SOC is not implemented withing libqints. 
I will do mean-field SOC with libqints, which is usually as good as full 2e SOC
 Analysing Sz ans S^2 of the pair of states...
 Ket state:  Computed S^2 = 0.750000 will be treated as 0.750000 Sz = -0.500000
 Bra state:  Computed S^2 = 0.750294 will be treated as 0.750000 Sz = -0.500000
 Clebsh-Gordan coefficient: <0.500,-0.500;1.000,0.000|0.500,-0.500> = -0.577
 _________________________________________________
 One-electron SO (cm-1)
 Reduced matrix elements:
 <S|| Hso(L-) ||S'> = (-0.000000,-0.000000)
 <S|| Hso(L0) ||S'> = (0.000000,0.000000)
 <S|| Hso(L+) ||S'> = (-0.000000,0.000000)
 SOCC = 0.000000
 Actual matrix elements:
       |Sz=-0.50>           |Sz=0.50>
 <Sz=-0.50|(0.000000,-0.000000)(-0.000000,0.000000)
 <Sz=0.50|(0.000000,0.000000)(0.000000,0.000000)
 _________________________________________________
 Mean-field SO (cm-1)
 Reduced matrix elements:
 <S|| Hso(L-) ||S'> = (-0.000000,-0.000000)
 <S|| Hso(L0) ||S'> = (0.000000,0.000000)
 <S|| Hso(L+) ||S'> = (-0.000000,0.000000)
 SOCC = 0.000000
 Actual matrix elements:
       |Sz=-0.50>           |Sz=0.50>
 <Sz=-0.50|(0.000000,-0.000000)(-0.000000,0.000000)
 <Sz=0.50|(0.000000,0.000000)(0.000000,0.000000)
 Singlet part of <S|| Hso(L0) ||S'> = (-0.000000,0.000000) (excluded from all matrix elements)
 L-/L+ Averaged reduced matrix elements:
 <S|| Hso(L-) ||S'> = (-0.000000,-0.000000)
 <S|| Hso(L+) ||S'> = (-0.000000,0.000000)
 ______________________________________________________________
 B(Ket)->A(Bra) transition SO matrices
Full 2e SOC is not implemented withing libqints. 
I will do mean-field SOC with libqints, which is usually as good as full 2e SOC
 Analysing Sz ans S^2 of the pair of states...
 Ket state:  Computed S^2 = 0.750294 will be treated as 0.750000 Sz = -0.500000
 Bra state:  Computed S^2 = 0.750000 will be treated as 0.750000 Sz = -0.500000
 Clebsh-Gordan coefficient: <0.500,-0.500;1.000,0.000|0.500,-0.500> = -0.577
 _________________________________________________
 One-electron SO (cm-1)
 Reduced matrix elements:
 <S|| Hso(L-) ||S'> = (0.000000,-0.000000)
 <S|| Hso(L0) ||S'> = (0.000000,-0.000000)
 <S|| Hso(L+) ||S'> = (0.000000,0.000000)
 SOCC = 0.000000
 Actual matrix elements:
       |Sz=-0.50>           |Sz=0.50>
 <Sz=-0.50|(0.000000,0.000000)(0.000000,0.000000)
 <Sz=0.50|(-0.000000,0.000000)(0.000000,-0.000000)
 _________________________________________________
 Mean-field SO (cm-1)
 Reduced matrix elements:
 <S|| Hso(L-) ||S'> = (0.000000,-0.000000)
 <S|| Hso(L0) ||S'> = (0.000000,-0.000000)
 <S|| Hso(L+) ||S'> = (0.000000,0.000000)
 SOCC = 0.000000
 Actual matrix elements:
       |Sz=-0.50>           |Sz=0.50>
 <Sz=-0.50|(0.000000,0.000000)(0.000000,0.000000)
 <Sz=0.50|(-0.000000,0.000000)(0.000000,-0.000000)
 Singlet part of <S|| Hso(L0) ||S'> = (-0.000000,-0.000000) (excluded from all matrix elements)
 L-/L+ Averaged reduced matrix elements:
 <S|| Hso(L-) ||S'> = (0.000000,-0.000000)
 <S|| Hso(L+) ||S'> = (0.000000,0.000000)
 ______________________________________________________________
   Arithmetically averaged transition SO matrices
   (The phases shown, Ket and Bra assingment are from A(Ket)->B(Bra))
 _________________________________________________
 One-electron SO (cm-1)
 SOCC = 0.000000
 Actual matrix elements:
       |Sz=-0.50>           |Sz=0.50>
 <Sz=-0.50|(0.000000,-0.000000)(-0.000000,-0.000000)
 <Sz=0.50|(0.000000,-0.000000)(0.000000,0.000000)
 _________________________________________________
 Mean-field SO (cm-1)
 SOCC = 0.000000
 Actual matrix elements:
       |Sz=-0.50>           |Sz=0.50>
 <Sz=-0.50|(0.000000,-0.000000)(-0.000000,-0.000000)
 <Sz=0.50|(0.000000,-0.000000)(0.000000,0.000000)
 ______________________________________________________________

State analysis of universal triplet transition OPDM (A->B) using libwa module will be excecuted
 

 ------------------------------------------------------------------------------
 State A: eomip_mp2/a: 1/B2g
 State B: eomip_mp2/a: 15/B2u
 Energy GAP = 0.380785 a.u. = 10.361704 eV
 Transition dipole moment (a.u.):
   A->B: 0.000000 (X 0.000000, Y 0.000000, Z 0.000000)
   B->A: 0.000000 (X 0.000000, Y 0.000000, Z 0.000000)
 Oscillator strength (a.u.): 0.000000
 Transition angular momentum against gauge origin (a.u.):
   A->B:  (X 0.000000i, Y 0.000000i, Z 0.000000i)
   B->A:  (X 0.000000i, Y 0.000000i, Z 0.000000i)
 Norm of one-particle transition density matrix:
   A->B: 0.042634;   B->A: 0.042042
   ||gamma^AB||*||gamma^BA||: 0.001792

 ______________________________________________________________
 A(Ket)->B(Bra) transition SO matrices
Full 2e SOC is not implemented withing libqints. 
I will do mean-field SOC with libqints, which is usually as good as full 2e SOC
 Analysing Sz ans S^2 of the pair of states...
 Ket state:  Computed S^2 = 0.750000 will be treated as 0.750000 Sz = -0.500000
 Bra state:  Computed S^2 = 0.750862 will be treated as 0.750000 Sz = -0.500000
 Clebsh-Gordan coefficient: <0.500,-0.500;1.000,0.000|0.500,-0.500> = -0.577
 _________________________________________________
 One-electron SO (cm-1)
 Reduced matrix elements:
 <S|| Hso(L-) ||S'> = (0.000000,-0.000000)
 <S|| Hso(L0) ||S'> = (0.000000,0.000000)
 <S|| Hso(L+) ||S'> = (0.000000,0.000000)
 SOCC = 0.000000
 Actual matrix elements:
       |Sz=-0.50>           |Sz=0.50>
 <Sz=-0.50|(0.000000,-0.000000)(0.000000,0.000000)
 <Sz=0.50|(-0.000000,0.000000)(0.000000,0.000000)
 _________________________________________________
 Mean-field SO (cm-1)
 Reduced matrix elements:
 <S|| Hso(L-) ||S'> = (0.000000,-0.000000)
 <S|| Hso(L0) ||S'> = (0.000000,0.000000)
 <S|| Hso(L+) ||S'> = (0.000000,0.000000)
 SOCC = 0.000000
 Actual matrix elements:
       |Sz=-0.50>           |Sz=0.50>
 <Sz=-0.50|(0.000000,-0.000000)(0.000000,0.000000)
 <Sz=0.50|(-0.000000,0.000000)(0.000000,0.000000)
 Singlet part of <S|| Hso(L0) ||S'> = (-0.000000,-0.000000) (excluded from all matrix elements)
 L-/L+ Averaged reduced matrix elements:
 <S|| Hso(L-) ||S'> = (0.000000,-0.000000)
 <S|| Hso(L+) ||S'> = (0.000000,0.000000)
 ______________________________________________________________
 B(Ket)->A(Bra) transition SO matrices
Full 2e SOC is not implemented withing libqints. 
I will do mean-field SOC with libqints, which is usually as good as full 2e SOC
 Analysing Sz ans S^2 of the pair of states...
 Ket state:  Computed S^2 = 0.750862 will be treated as 0.750000 Sz = -0.500000
 Bra state:  Computed S^2 = 0.750000 will be treated as 0.750000 Sz = -0.500000
 Clebsh-Gordan coefficient: <0.500,-0.500;1.000,0.000|0.500,-0.500> = -0.577
 _________________________________________________
 One-electron SO (cm-1)
 Reduced matrix elements:
 <S|| Hso(L-) ||S'> = (-0.000000,0.000000)
 <S|| Hso(L0) ||S'> = (0.000000,0.000000)
 <S|| Hso(L+) ||S'> = (-0.000000,-0.000000)
 SOCC = 0.000000
 Actual matrix elements:
       |Sz=-0.50>           |Sz=0.50>
 <Sz=-0.50|(0.000000,-0.000000)(-0.000000,-0.000000)
 <Sz=0.50|(0.000000,-0.000000)(0.000000,0.000000)
 _________________________________________________
 Mean-field SO (cm-1)
 Reduced matrix elements:
 <S|| Hso(L-) ||S'> = (-0.000000,0.000000)
 <S|| Hso(L0) ||S'> = (0.000000,0.000000)
 <S|| Hso(L+) ||S'> = (-0.000000,-0.000000)
 SOCC = 0.000000
 Actual matrix elements:
       |Sz=-0.50>           |Sz=0.50>
 <Sz=-0.50|(0.000000,-0.000000)(-0.000000,-0.000000)
 <Sz=0.50|(0.000000,-0.000000)(0.000000,0.000000)
 Singlet part of <S|| Hso(L0) ||S'> = (-0.000000,0.000000) (excluded from all matrix elements)
 L-/L+ Averaged reduced matrix elements:
 <S|| Hso(L-) ||S'> = (-0.000000,0.000000)
 <S|| Hso(L+) ||S'> = (-0.000000,-0.000000)
 ______________________________________________________________
   Arithmetically averaged transition SO matrices
   (The phases shown, Ket and Bra assingment are from A(Ket)->B(Bra))
 _________________________________________________
 One-electron SO (cm-1)
 SOCC = 0.000000
 Actual matrix elements:
       |Sz=-0.50>           |Sz=0.50>
 <Sz=-0.50|(0.000000,-0.000000)(0.000000,0.000000)
 <Sz=0.50|(-0.000000,0.000000)(0.000000,0.000000)
 _________________________________________________
 Mean-field SO (cm-1)
 SOCC = 0.000000
 Actual matrix elements:
       |Sz=-0.50>           |Sz=0.50>
 <Sz=-0.50|(0.000000,-0.000000)(0.000000,0.000000)
 <Sz=0.50|(-0.000000,0.000000)(0.000000,0.000000)
 ______________________________________________________________

State analysis of universal triplet transition OPDM (A->B) using libwa module will be excecuted
 

 ------------------------------------------------------------------------------
 State A: eomip_mp2/a: 1/B2g
 State B: eomip_mp2/a: 1/B3u

 Q-Chem fatal error occurred in module /qcsoftware/qchem-wojcik/trunk-03242022/ccman2/qchem/ccman2_main.C, line 26:

 libvmm::page_file_posix<T>::write(const pos_t&, size_t, const element_t*), /qcsoftware/qchem-wojcik/trunk-03242022/libvmm/libvmm/page_file_posix.C (237), io_exception
pwrite (No space left on device)


 Please submit a crash report at q-chem.com/reporter 
 
 
