                  Welcome to Q-Chem
     A Quantum Leap Into The Future Of Chemistry


 Q-Chem 6.0 (devel), Q-Chem, Inc., Pleasanton, CA (2022)

 E. Epifanovsky,  A. T. B. Gilbert,  Xintian Feng,  Joonho Lee,  Yuezhi Mao,  
 N. Mardirossian,  P. Pokhilko,  A. White,  M. Wormit,  M. P. Coons,  
 A. L. Dempwolff,  Zhengting Gan,  D. Hait,  P. R. Horn,  L. D. Jacobson,  
 I. Kaliman,  J. Kussmann,  A. W. Lange,  Ka Un Lao,  D. S. Levine,  Jie Liu,  
 S. C. McKenzie,  A. F. Morrison,  K. Nanda,  F. Plasser,  D. R. Rehn,  
 M. L. Vidal,  Zhi-Qiang You,  Ying Zhu,  B. Alam,  B. Albrecht,  
 A. Aldossary,  E. Alguire,  J. H. Andersen,  V. Athavale,  D. Barton,  
 K. Begam,  A. Behn,  N. Bellonzi,  Y. A. Bernard,  E. J. Berquist,  
 H. Burton,  A. Carreras,  K. Carter-Fenk,  Romit Chakraborty,  
 Chandrima Chakravarty,  Junhan Chen,  A. D. Chien,  K. D. Closser,  
 V. Cofer-Shabica,  L. Cunha,  S. Dasgupta,  Jia Deng,  M. de Wergifosse,  
 M. Diedenhofen,  Hainam Do,  S. Ehlert,  Po-Tung Fang,  S. Fatehi,  
 Qingguo Feng,  T. Friedhoff,  B. Ganoe,  J. Gayvert,  Qinghui Ge,  
 G. Gidofalvi,  M. Goldey,  J. Gomes,  C. Gonzalez-Espinoza,  S. Gulania,  
 A. Gunina,  J. A. Gyamfi,  M. W. D. Hanson-Heine,  P. H. P. Harbach,  
 A. W. Hauser,  M. F. Herbst,  M. Hernandez Vera,  M. Hodecker,  
 Z. C. Holden,  S. Houck,  Xunkun Huang,  Kerwin Hui,  B. C. Huynh,  
 K. Ikeda,  M. Ivanov,  Hyunjun Ji,  Zuxin Jin,  Hanjie Jiang,  B. Kaduk,  
 S. Kaehler,  R. Kang,  K. Khistyaev,  Jaehoon Kim,  Yongbin Kim,  
 P. Klunzinger,  Z. Koczor-Benda,  Joong Hoon Koh,  D. Kosenkov,  
 Saikiran Kotaru,  L. Koulias,  T. Kowalczyk,  C. M. Krauter,  K. Kue,  
 A. Kunitsa,  T. Kus,  A. Landau,  K. V. Lawler,  D. Lefrancois,  S. Lehtola,  
 Rain Li,  Shaozhi Li,  Yi-Pei Li,  Jiashu Liang,  M. Liebenthal,  
 Hung-Hsuan Lin,  You-Sheng Lin,  Fenglai Liu,  Kuan-Yu Liu,  
 M. Loipersberger,  A. Luenser,  C. Malbon,  A. Manjanath,  P. Manohar,  
 E. Mansoor,  S. F. Manzer,  Shan-Ping Mao,  A. V. Marenich,  T. Markovich,  
 S. Mason,  F. Matz,  S. A. Maurer,  P. F. McLaughlin,  M. F. S. J. Menger,  
 J.-M. Mewes,  S. A. Mewes,  P. Morgante,  Mohammad Mostafanejad,  
 J. W. Mullinax,  K. J. Oosterbaan,  G. Paran,  V. Parravicini,  
 Alexander C. Paul,  Suranjan K. Paul,  F. Pavosevic,  Zheng Pei,  S. Prager,  
 E. I. Proynov,  E. Ramos,  B. Rana,  A. E. Rask,  A. Rettig,  R. M. Richard,  
 F. Rob,  E. Rossomme,  T. Scheele,  M. Scheurer,  M. Schneider,  
 P. E. Schneider,  N. Sergueev,  S. M. Sharada,  Hengyuan Shen,  
 W. Skomorowski,  D. W. Small,  C. J. Stein,  Yingli Su,  Yu-Chuan Su,  
 E. J. Sundstrom,  Zhen Tao,  J. Thirman,  Hung-Yi Tsai,  T. Tsuchimochi,  
 N. M. Tubman,  C. Utku,  S. P. Veccham,  O. Vydrov,  J. Wenzel,  
 Jonathan Wong,  J. Witte,  A. Yamada,  Chou-Hsun Yang,  Kun Yao,  
 S. Yeganeh,  S. R. Yost,  A. Zech,  F. Zeller,  Igor Ying Zhang,  
 Xing Zhang,  Yu Zhang,  D. Zuev,  A. Aspuru-Guzik,  A. T. Bell,  
 N. A. Besley,  K. B. Bravaya,  B. R. Brooks,  D. Casanova,  Jeng-Da Chai,  
 Hsing-Ta Chen,  S. Coriani,  C. J. Cramer,  A. E. DePrince, III,  
 R. A. DiStasio Jr.,  A. Dreuw,  B. D. Dunietz,  T. R. Furlani,  
 W. A. Goddard III,  S. Grimme,  S. Hammes-Schiffer,  T. Head-Gordon,  
 W. J. Hehre,  Chao-Ping Hsu,  T.-C. Jagau,  Yousung Jung,  A. Klamt,  
 Jing Kong,  D. S. Lambrecht,  Xiangyuan Li,  WanZhen Liang,  N. J. Mayhall,  
 C. W. McCurdy,  J. B. Neaton,  T. Neudecker,  C. Ochsenfeld,  
 J. A. Parkhill,  R. Peverati,  V. A. Rassolov,  Haisheng Ren,  Yihan Shao,  
 L. V. Slipchenko,  R. P. Steele,  J. E. Subotnik,  A. J. W. Thom,  
 A. Tkatchenko,  D. G. Truhlar,  T. Van Voorhis,  Fan Wang,  
 T. A. Wesolowski,  K. B. Whaley,  H. L. Woodcock III,  P. M. Zimmerman,  
 S. Faraji,  P. M. W. Gill,  M. Head-Gordon,  J. M. Herbert,  A. I. Krylov

 Contributors to earlier versions of Q-Chem not listed above: 
 R. D. Adamson,  B. Austin,  R. Baer,  J. Baker,  G. J. O. Beran,  
 K. Brandhorst,  S. T. Brown,  E. F. C. Byrd,  Arup K. Chakraborty,  
 G. K. L. Chan,  Chun-Min Chang,  Yunqing Chen,  C.-L. Cheng,  
 Siu Hung Chien,  D. M. Chipman,  D. L. Crittenden,  H. Dachsel,  
 R. J. Doerksen,  A. D. Dutoi,  R. G. Edgar,  J. Fosso-Tande,  
 L. Fusti-Molnar,  D. Ghosh,  A. Ghysels,  A. Golubeva-Zadorozhnaya,  
 J. Gonthier,  M. S. Gordon,  S. R. Gwaltney,  G. Hawkins,  J. E. Herr,  
 A. Heyden,  S. Hirata,  E. G. Hohenstein,  G. Kedziora,  F. J. Keil,  
 C. Kelley,  Jihan Kim,  R. A. King,  R. Z. Khaliullin,  P. P. Korambath,  
 W. Kurlancheek,  A. Laurent,  A. M. Lee,  M. S. Lee,  S. V. Levchenko,  
 Ching Yeh Lin,  D. Liotard,  E. Livshits,  R. C. Lochan,  I. Lotan,  
 L. A. Martinez-Martinez,  P. E. Maslen,  N. Nair,  D. P. O'Neill,  
 D. Neuhauser,  E. Neuscamman,  C. M. Oana,  R. Olivares-Amaya,  R. Olson,  
 T. M. Perrine,  B. Peters,  P. A. Pieniazek,  A. Prociuk,  Y. M. Rhee,  
 J. Ritchie,  M. A. Rohrdanz,  E. Rosta,  N. J. Russ,  H. F. Schaefer III,  
 M. W. Schmidt,  N. E. Schultz,  S. Sharma,  N. Shenvi,  C. D. Sherrill,  
 A. C. Simmonett,  A. Sodt,  T. Stein,  D. Stuck,  K. S. Thanthiriwatte,  
 V. Vanovschi,  L. Vogt,  Tao Wang,  A. Warshel,  M. A. Watson,  
 C. F. Williams,  Q. Wu,  X. Xu,  Jun Yang,  W. Zhang,  Yan Zhao

   Please cite Q-Chem as follows:
  "Software for the frontiers of quantum chemistry:
   An overview of developments in the Q-Chem 5 package"
   J. Chem. Phys. 155, 084801 (2021)
   https://doi.org/10.1063/5.0055522 (open access)

 Q-Chem 6.0.1 for Intel X86 EM64T Linux

 Parts of Q-Chem use Armadillo 9.900.5 (Nocturnal Misbehaviour).
 http://arma.sourceforge.net/

 Q-Chem begins on Thu Dec 22 15:59:12 2022  

 Host: atlas-210
0

     Scratch files written to ./qchem123416//
 Processing $rem in /scratch/abel/SOFTWARE/qchem/config/preferences:
 Processing $rem in /dipc/acebg/.qchemrc:

 Checking the input file for inconsistencies... 	...done.

--------------------------------------------------------------
User input:
--------------------------------------------------------------
$comment
 RAS-SF CALCULATION
$end

$molecule
 READ co2.molecule
$end

$rem
!**CALCULATION TYPE***     
JOBTYPE            sp    
EXCHANGE           HF
CORRELATION        RASCI    !RASCI=Casanova; RASCI2=Zimmerman
BASIS              6-31G*

!***SCF REFERENCE***
SKIP_SCFMAN        FALSE
UNRESTRICTED       FALSE
!SCF_GUESS          core
!SCF_GUESS_MIX      FALSE
!SCF_GUESS_ALWAYS   FALSE
MAX_SCF_CYCLES     500
SCF_CONVERGENCE    8
!SCF_ALGORITHM      DIIS !DIIS,DM,DIIS_DM,GDM,DIIS_GDM,GD

SYMMETRY           TRUE !use of symmetry for calculating integrals
SYM_IGNORE         FALSE !turn off using symmetry
SYM_TOL            5 !tolerance for determining point group

!THRESH             14
SCF_FINAL_PRINT     1 !0,1,2,3

!****RAS-SF****
RAS_ROOTS          10       !number of RAS-CI roots to be computed
SET_ITER           100     !number of iterations in RASCI
RAS_ELEC           11       !number of electrons in RAS2
!RAS_ELEC_ALPHA            !spin-α electrons in RAS2 
!RAS_ELEC_BETA             !spin-β electrons in RAS2

RAS_ACT            9       !number of orbitals in RAS2 
RAS_ACT_ORB   [7,8,9,10,11,12,13,14,15]  !user-selected RAS2 orbitals
RAS_OCC            6       !number of orbitals in RAS1
N_FROZEN_CORE      0     !Number of frozen core orbitals
N_FROZEN_VIRTUAL   0      !Number of frozen virtual orbitals
RAS_NATORB         TRUE    !computation of the natural orbital occupancies
!RAS_NATORB_STATE  0      !Saves NO of i RAS computed state in .fchk ﬁle

RAS_DO_HOLE        TRUE   !presence of hole excitations in RAS-CI wave function
RAS_DO_PART        TRUE   !presence of particle excitations
RAS_AMPL_PRINT     10     !threshold (×10 2 ) for the CI amplitudes

RAS_GUESS_CS       0      !number of closed shell guess conﬁgurations
RAS_SPIN_MULT      0      !spin multiplicity: 0=any, 2n+1=defined 
RAS_SRDFT          FALSE  !short-range density functional RAS-CI
RAS_NFRAG          0     !fragments of excitation analysis in RASCI

RAS_PRINT          2      !level of information
RAS_NATORB         TRUE   !computation of the natural orbital occupancies
!RAS_NATORB_STATE  0      !Saves NO of i RAS computed state in .fchk ﬁle
RAS_FOD            TRUE

!****RAS-SOC****
CALC_SOC           TRUE   !calculate SOC for EOM-CC, RAS-CI, ADC, TDDFT/TDA and TDDFT
!RAS_SOC_2E        TRUE   !two-electron mean-ﬁeld contribution, default=true
RAS_SOC_SYM_DENS   TRUE   !averaging of α and β densities

!****MEMORY****
MEM_TOTAL          60000 !Default 2000 MB
MEM_STATIC         16000  !Default 64 MB

!**Molecular Properties and Analysis **                                                                                          
GUI                2
STATE_ANALYSIS     TRUE
MOLDEN_FORMAT      TRUE
PRINT_ORBITALS     20
$end                                           

--------------------------------------------------------------
 ----------------------------------------------------------------
             Standard Nuclear Orientation (Angstroms)
    I     Atom           X                Y                Z
 ----------------------------------------------------------------
    1      C      -0.0000000000     0.0000000000     0.3242786145
    2      O      -1.1495552469    -0.0000000000    -0.1216044804
    3      O       1.1495552469     0.0000000000    -0.1216044804
 ----------------------------------------------------------------
 Molecular Point Group                 C2v   NOp =  4
 Largest Abelian Subgroup              C2v   NOp =  4
 Nuclear Repulsion Energy =          55.93177340 hartrees
 There are       12 alpha and       11 beta electrons
 Requested basis set is 6-31G(d)
 There are 12 shells and 45 basis functions

 Q-Chem warning in module libmdc/get_mega.C, line 167:

 Allowed MEM_STATIC has been capped at MEM_STATIC=8191.
 Reduce the value of MEM_STATIC to silence this warning.


 Total QAlloc Memory Limit  60000 MB
 Mega-Array Size      8007 MB
 MEM_STATIC part      8191 MB


                       Distance Matrix (Angstroms)
             C (  1)   O (  2)
   O (  2)  1.233000
   O (  3)  1.233000  2.299110
 
 A cutoff of  1.0D-12 yielded     77 shell pairs
 There are      1115 function pairs
 Smallest overlap matrix eigenvalue = 6.67E-03

 Scale SEOQF with 1.000000e+00/1.000000e+00/1.000000e+00

 Standard Electronic Orientation quadrupole field applied
 Nucleus-field energy     =     0.0000000066 hartrees
 Guess from superposition of atomic densities
 Warning:  Energy on first SCF cycle will be non-variational
 SAD guess density has 22.000000 electrons

 -----------------------------------------------------------------------
  General SCF calculation program by
  Eric Jon Sundstrom, Paul Horn, Yuezhi Mao, Dmitri Zuev, Alec White,
  David Stuck, Shaama M.S., Shane Yost, Joonho Lee, David Small,
  Daniel Levine, Susi Lehtola, Hugh Burton, Evgeny Epifanovsky,
  Bang C. Huynh
 -----------------------------------------------------------------------
 Hartree-Fock
 Orthonormalizing orbitals
 A restricted open-shell SCF calculation will be
 performed using GDM
 SCF converges when RMS gradient is below 1.0e-08
 ---------------------------------------
  Cycle       Energy        RMS Gradient
 ---------------------------------------
    1    -186.7964137758      5.58e-01   Descent step
    2    -187.2014312693      3.57e-01   Descent step
    3    -187.4340756759      1.79e-01   Descent step
    4    -187.5400851751      7.13e-02   Normal BFGS step
    5    -187.5640881923      1.58e-02   Normal BFGS step
    6    -187.5648653554      8.06e-03   Normal BFGS step
    7    -187.5649607414      1.24e-03   Normal BFGS step
    8    -187.5649664939      4.61e-04   Normal BFGS step
    9    -187.5649670795      7.92e-05   Normal BFGS step
   10    -187.5649671048      2.42e-05   Normal BFGS step
   11    -187.5649671075      5.72e-06   Normal BFGS step
   12    -187.5649671076      1.54e-06   Normal BFGS step
   13    -187.5649671077      2.99e-07   Normal BFGS step
   14    -187.5649671077      4.69e-08   Normal BFGS step
   15    -187.5649671077      2.38e-08   Normal BFGS step
   16    -187.5649671077      4.31e-09  Convergence criterion met
The disked orbital energies are calculated using alpha and beta Focks
 ---------------------------------------
 Alpha HF Exchange    Energy = -11.23841083892685
 Beta HF Exchange     Energy = -10.68395613537620
 Nuclear Attraction   Energy =   0.00000000000000
 One-Electron (alpha) Energy = -192.42340098047214
 One-Electron (beta)  Energy = -183.16836569438027
 Total Coulomb        Energy = 154.01739313532383
 Final Alpha MO Eigenvalues
            1           2           3           4           5           6
    1 -20.2814882 -20.2814644 -11.0866820  -1.1491337  -1.0650646  -0.4713238
            7           8           9          10          11          12
    1  -0.3824651  -0.3314068  -0.3717147  -0.2087932  -0.1794073  -0.0740570
           13          14          15          16          17          18
    1   0.4827662   0.7092273   0.7454634   0.9519785   0.9947462   1.1272875
           19          20          21          22          23          24
    1   1.2161793   1.3306473   1.3994675   1.4884327   1.5202238   1.5482588
           25          26          27          28          29          30
    1   1.5837210   1.8868553   1.9902337   2.0229939   2.0522435   2.0755332
           31          32          33          34          35          36
    1   2.2962862   2.3685157   2.4122668   2.4173923   2.4814381   2.7720431
           37          38          39          40          41          42
    1   2.9380000   3.3444616   3.3913875   3.4119285   3.5270848   3.6579883
           43          44          45
    1   4.4354605   4.5536046   4.8440534
 Final Beta MO Eigenvalues
            1           2           3           4           5           6
    1 -20.2748202 -20.2747802 -11.0685188  -1.1205796  -1.0379599  -0.4395918
            7           8           9          10          11          12
    1  -0.3514677  -0.3175587  -0.2942661  -0.1664192  -0.1727513   0.4543925
           13          14          15          16          17          18
    1   0.5203833   0.7183658   0.7778898   1.0331789   1.0092328   1.1451332
           19          20          21          22          23          24
    1   1.2379563   1.3377615   1.4360285   1.4927813   1.5456474   1.5607205
           25          26          27          28          29          30
    1   1.5896349   1.9037991   1.9979803   2.0612784   2.0703696   2.1123510
           31          32          33          34          35          36
    1   2.3122287   2.3767218   2.4196058   2.4489660   2.5089253   2.7951248
           37          38          39          40          41          42
    1   2.9496083   3.3841531   3.4057682   3.4314553   3.5368479   3.6754559
           43          44          45
    1   4.4424014   4.5594864   4.8752983
 SCF time:   CPU 0.85s  wall 2.00s 
<S^2> =          0.750000000
 SCF   energy in the final basis set =     -187.5649671077
 Total energy in the final basis set =     -187.5649671077
Setting RAS_srDFT_COR/EXC
  
     ##========================================##
     ||                                        ||
     ||              R A S M A N 2             ||
     ||________________________________________||
     ||                                        ||
     ||  Author:                               ||
     ||                                        ||
     ||        David Casanova (2010)           ||
     ||                                        ||
     ##========================================##
  
  ***************************************************
  *  RAS-CI Dimensions:                             *
  *                                                 *
  *  Active Elec.:  11 ( 6, 5)   Active Orb.:   9   *
  *  Doubly Occ. :   6           Doubly Vir.:  30   *
  *  Frozen Occ. :   0           Frozen Vir.:   0   *
  *                                                 *
  *  Total CI configurations:    873936             * 
  *    Active configurations:     10584             * 
  *      Hole configurations:     69552             * 
  *  Particle configurations:    793800             * 
  *                                                 *
  *   Requested states:       10                    *
  *  Spin multiplicity: Any multiplicity            *
  *                                                 *
  ***************************************************
-----------------------------------------
    Memory requirements of RASCI

 Each CI-vector requires      6.67 MiB 
 Max. subspace vectors           1000      

 Reduced Lists                0.00 MiB 
 Excitation Lists             0.01 MiB 
 Excitation Lists Sign        0.01 MiB 
 CI-space (Max)            6741.92 MiB 
 Integrals                    2.17 MiB 
 Memory required (Max)     6741.94 MiB 
 Memory available          7811.55 MiB 

    Disk requirements of RASCI

 Fock matrix                  0.03 MiB 
 2-electron integrals         3.04 MiB 
 CI-space                 13335.21 MiB 
 Disk required            13338.27 MiB 
-----------------------------------------
  
RAS1 HF-like energy:           -162.0516620951
 Computing integrals
 Computing J and K matrices
 Computing addressing
 Making amplitude guesses
 
Direct CI diagonalization
 ---------------------------------------------------
 Iter    Rts Conv    Rts Left    Ttl Dev     Max Dev
 ---------------------------------------------------
   1         0          10      0.006030    0.000719
   2         0          10      0.002600    0.000311
   3         0          10      0.003027    0.000338
   4         0          10      0.001669    0.000199
   5         0          10      0.001567    0.000191
   6         0          10      0.001340    0.000185
   7         0          10      0.001076    0.000160
   8         0          10      0.000923    0.000164
   9         0          10      0.000969    0.000214
  10         0          10      0.001107    0.000549
  11         0          10      0.001249    0.000438
  12         0          10      0.000930    0.000306
  13         0          10      0.000687    0.000205
  14         0          10      0.000519    0.000153
  15         0          10      0.000397    0.000117
  16         0          10      0.000359    0.000106
  17         0          10      0.000526    0.000287
  18         0          10      0.000462    0.000239
  19         0          10      0.000383    0.000218
  20         1           9      0.000301    0.000155
  21         1           9      0.000264    0.000144
  22         1           9      0.000456    0.000359
  23         1           9      0.000346    0.000265
  24         2           8      0.000287    0.000213
  25         3           7      0.000240    0.000183
  26         3           7      0.000184    0.000131
  27         3           7      0.000155    0.000114
  28         3           7      0.000152    0.000117
  29         4           6      0.000121    0.000094
  30         4           6      0.000123    0.000100
  31         5           5      0.000111    0.000093
  32         5           5      0.000106    0.000091
  33         5           5      0.000117    0.000105
  34         6           4      0.000121    0.000110
  35         6           4      0.000114    0.000105
  36         7           3      0.000117    0.000109
  37         7           3      0.000300    0.000205
  38         8           2      0.000230    0.000152
  39         8           2      0.000167    0.000109
  40         8           2      0.000137    0.000089
  41         8           2      0.000102    0.000066
  42         8           2      0.000083    0.000053
  43         8           2      0.000065    0.000042
  44         8           2      0.000054    0.000035
  45         8           2      0.000045    0.000029
  46         8           2      0.000042    0.000027
  47         8           2      0.000033    0.000021
  48         8           2      0.000029    0.000018
  49         8           2      0.000023    0.000014
  50         8           2      0.000019    0.000011
  51         8           2      0.000016    0.000008
  52         8           2      0.000014    0.000007
  53         8           2      0.000011    0.000005
  54         9           1      0.000010    0.000004
  55         9           1      0.000009    0.000003
  56         9           1      0.000008    0.000003
  57         9           1      0.000007    0.000002
  58         9           1      0.000007    0.000002
  59         9           1      0.000006    0.000001
  60         9           1      0.000006    0.000001
  61        10           0      0.000006    0.000001    Roots Converged
 ---------------------------------------------------
   
**************************************************
 RAS-CI total energy for state   1:   -187.692741943659
  Excitation energy (eV) =  0.000000000000
  State symmetry: A1    (C2v      )
  <S^2>      :  0.7500
  Dipole Moment:    0.0000 X    -0.0000 Y     0.0468 Z
 NATURAL OCCUPATION NUMBERS (higher than 1.0E-05)
            1           2           3           4           5           6
    1   1.9999998   1.9999997   1.9999992   1.9992246   1.9983062   1.9978979
            7           8           9          10          11          12
    1   1.9859867   1.9816537   1.9719891   1.9709052   1.9554445   1.0140842
           13          14          15          16          17          18
    1   0.0686307   0.0200798   0.0119052   0.0039579   0.0038253   0.0037405
           19          20          21          22          23          24
    1   0.0033148   0.0017245   0.0016949   0.0012318   0.0008217   0.0004905
           25          26          27          28          29          30
    1   0.0004563   0.0003501   0.0003435   0.0002529   0.0002358   0.0002089
           31          32          33          34          35          36
    1   0.0002081   0.0002035   0.0001955   0.0001336   0.0001291   0.0001051
           37          38          39          40          41          42
    1   0.0000878   0.0000609   0.0000336   0.0000332   0.0000325   0.0000142
Natural Orbitals stored in FCHK

  Amplitudes : 
  
 | HOLE  | ALPHA     | BETA      | PART  |    AMPLITUDE 
--------------------------------------------------
 |       | 111111000 | 111110000 |       |     9.5416736852315E-01
--------------------------------------------------
*** Contributions RASCI wfn    Active:  96.13
                                 Hole:   0.51
                                 Part:   3.36

      Mulliken population analysis 
 ---------------------------------------------------
   Atom    Charge (a.u.)   Spin (a.u.)  
 ---------------------------------------------------
   1  C    0.133618        0.740652 
   2  O   -0.566809        0.129674 
   3  O   -0.566809        0.129674 
 ---------------------------------------------------
   Sum:   -1.000000        1.000000 
 ---------------------------------------------------
 
  
 NATURAL OCCUPATION NUMBERS (higher than 1.0E-05)
            1           2           3           4           5           6
    1   1.9999998   1.9999997   1.9999992   1.9992246   1.9983062   1.9978979
            7           8           9          10          11          12
    1   1.9859867   1.9816537   1.9719891   1.9709052   1.9554445   1.0140842
           13          14          15          16          17          18
    1   0.0686307   0.0200798   0.0119052   0.0039579   0.0038253   0.0037405
           19          20          21          22          23          24
    1   0.0033148   0.0017245   0.0016949   0.0012318   0.0008217   0.0004905
           25          26          27          28          29          30
    1   0.0004563   0.0003501   0.0003435   0.0002529   0.0002358   0.0002089
           31          32          33          34          35          36
    1   0.0002081   0.0002035   0.0001955   0.0001336   0.0001291   0.0001051
           37          38          39          40          41          42
    1   0.0000878   0.0000609   0.0000336   0.0000332   0.0000325   0.0000142
  
*** Unpaired Electrons
 Yamaguchi Nd:         1.52
 Head-Gordon Nu:       1.25
 Head-Gordon Nu_nl:    1.04
  
**************************************************
 RAS-CI total energy for state   2:   -187.562689903841
  Excitation energy (eV) =  3.538896056841
  State symmetry: B2    (C2v      )
  <S^2>      :  0.7500
  Dipole Moment:    0.0000 X    -0.0000 Y    -0.0956 Z
  Trans. Moment:   -0.0000 X     0.2483 Y     0.0000 Z
  Strength   :  0.005346
  Natural transition orbitals ( 1 -> 2 ):
   e-/hole pair  1 alpha:  ampl =  0.944394 ( 89.2%)   [9 : 10]
   e-/hole pair  2 alpha:  ampl =  0.044417 (  0.2%)   [8 : 11]
   e-/hole pair  1 beta :  ampl =  0.062447 (  0.4%)   [9 : 10]
   e-/hole pair  2 beta :  ampl =  0.060248 (  0.4%)   [8 : 11]
   Sum of square amplitudes: 0.91

 NATURAL OCCUPATION NUMBERS (higher than 1.0E-05)
            1           2           3           4           5           6
    1   1.9999998   1.9999997   1.9999992   1.9992012   1.9982790   1.9964423
            7           8           9          10          11          12
    1   1.9851271   1.9806608   1.9778394   1.9502033   1.9411782   1.0132823
           13          14          15          16          17          18
    1   0.1036261   0.0184901   0.0099430   0.0052704   0.0041356   0.0035900
           19          20          21          22          23          24
    1   0.0035137   0.0020553   0.0015279   0.0014588   0.0006296   0.0005187
           25          26          27          28          29          30
    1   0.0005061   0.0003989   0.0002952   0.0002642   0.0002367   0.0002147
           31          32          33          34          35          36
    1   0.0001971   0.0001801   0.0001427   0.0001335   0.0001275   0.0000995
           37          38          39          40          41          42
    1   0.0000853   0.0000482   0.0000330   0.0000270   0.0000220   0.0000110
Natural Orbitals stored in FCHK

  Amplitudes : 
  
 | HOLE  | ALPHA     | BETA      | PART  |    AMPLITUDE 
--------------------------------------------------
 |       | 111110100 | 111110000 |       |     9.1417526550384E-01
 |       | 111110100 | 110111000 |       |     1.4504038150828E-01
 |       | 110111100 | 111110000 |       |     1.9432267778685E-01
--------------------------------------------------
*** Contributions RASCI wfn    Active:  94.07
                                 Hole:   1.42
                                 Part:   4.51

      Mulliken population analysis 
 ---------------------------------------------------
   Atom    Charge (a.u.)   Spin (a.u.)  
 ---------------------------------------------------
   1  C    0.109558        0.779529 
   2  O   -0.554779        0.110235 
   3  O   -0.554779        0.110235 
 ---------------------------------------------------
   Sum:   -1.000000        1.000000 
 ---------------------------------------------------
 
  
 NATURAL OCCUPATION NUMBERS (higher than 1.0E-05)
            1           2           3           4           5           6
    1   1.9999998   1.9999997   1.9999992   1.9992012   1.9982790   1.9964423
            7           8           9          10          11          12
    1   1.9851271   1.9806608   1.9778394   1.9502033   1.9411782   1.0132823
           13          14          15          16          17          18
    1   0.1036261   0.0184901   0.0099430   0.0052704   0.0041356   0.0035900
           19          20          21          22          23          24
    1   0.0035137   0.0020553   0.0015279   0.0014588   0.0006296   0.0005187
           25          26          27          28          29          30
    1   0.0005061   0.0003989   0.0002952   0.0002642   0.0002367   0.0002147
           31          32          33          34          35          36
    1   0.0001971   0.0001801   0.0001427   0.0001335   0.0001275   0.0000995
           37          38          39          40          41          42
    1   0.0000853   0.0000482   0.0000330   0.0000270   0.0000220   0.0000110
  
*** Unpaired Electrons
 Yamaguchi Nd:         1.64
 Head-Gordon Nu:       1.32
 Head-Gordon Nu_nl:    1.07
  
**************************************************
 RAS-CI total energy for state   3:   -187.496082029386
  Excitation energy (eV) =  5.351388537505
  State symmetry: B1    (C2v      )
  <S^2>      :  0.7500
  Dipole Moment:   -0.0000 X    -0.0000 Y     0.7326 Z
  Trans. Moment:   -0.2401 X    -0.0000 Y    -0.0000 Z
  Strength   :  0.007560
  Natural transition orbitals ( 1 -> 3 ):
   e-/hole pair  1 alpha:  ampl =  0.179696 (  3.2%)   [9 : 10]
   e-/hole pair  2 alpha:  ampl =  0.049322 (  0.2%)   [8 : 11]
   e-/hole pair  1 beta :  ampl =  0.904744 ( 81.9%)   [9 : 10]
   e-/hole pair  2 beta :  ampl =  0.094068 (  0.9%)   [8 : 11]
   Sum of square amplitudes: 0.87

 NATURAL OCCUPATION NUMBERS (higher than 1.0E-05)
            1           2           3           4           5           6
    1   1.9999998   1.9999997   1.9999996   1.9992169   1.9986681   1.9983986
            7           8           9          10          11          12
    1   1.9897965   1.9760340   1.9649463   1.9099884   1.8624932   1.0906069
           13          14          15          16          17          18
    1   0.1432697   0.0242969   0.0195928   0.0042258   0.0030435   0.0028328
           19          20          21          22          23          24
    1   0.0027870   0.0025336   0.0013733   0.0011767   0.0007039   0.0005379
           25          26          27          28          29          30
    1   0.0005128   0.0004265   0.0003390   0.0002814   0.0002664   0.0002489
           31          32          33          34          35          36
    1   0.0002317   0.0002204   0.0002019   0.0001428   0.0001346   0.0001249
           37          38          39          40          41          42
    1   0.0000986   0.0000952   0.0000464   0.0000447   0.0000376   0.0000172
Natural Orbitals stored in FCHK

  Amplitudes : 
  
 | HOLE  | ALPHA     | BETA      | PART  |    AMPLITUDE 
--------------------------------------------------
 |       | 111111000 | 111011000 |       |     9.0063234101173E-01
 |       | 111110100 | 111010100 |       |    -1.2373900803990E-01
 |       | 111101100 | 111110000 |       |     1.7722173178620E-01
--------------------------------------------------
*** Contributions RASCI wfn    Active:  94.07
                                 Hole:   0.65
                                 Part:   5.28

      Mulliken population analysis 
 ---------------------------------------------------
   Atom    Charge (a.u.)   Spin (a.u.)  
 ---------------------------------------------------
   1  C   -0.258897       -0.026260 
   2  O   -0.370552        0.513130 
   3  O   -0.370552        0.513130 
 ---------------------------------------------------
   Sum:   -1.000000        1.000000 
 ---------------------------------------------------
 
  
 NATURAL OCCUPATION NUMBERS (higher than 1.0E-05)
            1           2           3           4           5           6
    1   1.9999998   1.9999997   1.9999996   1.9992169   1.9986681   1.9983986
            7           8           9          10          11          12
    1   1.9897965   1.9760340   1.9649463   1.9099884   1.8624932   1.0906069
           13          14          15          16          17          18
    1   0.1432697   0.0242969   0.0195928   0.0042258   0.0030435   0.0028328
           19          20          21          22          23          24
    1   0.0027870   0.0025336   0.0013733   0.0011767   0.0007039   0.0005379
           25          26          27          28          29          30
    1   0.0005128   0.0004265   0.0003390   0.0002814   0.0002664   0.0002489
           31          32          33          34          35          36
    1   0.0002317   0.0002204   0.0002019   0.0001428   0.0001346   0.0001249
           37          38          39          40          41          42
    1   0.0000986   0.0000952   0.0000464   0.0000447   0.0000376   0.0000172
  
*** Unpaired Electrons
 Yamaguchi Nd:         1.96
 Head-Gordon Nu:       1.42
 Head-Gordon Nu_nl:    1.16
  
**************************************************
 RAS-CI total energy for state   4:   -187.486717542695
  Excitation energy (eV) =  5.606209185231
  State symmetry: A2    (C2v      )
  <S^2>      :  0.7500
  Dipole Moment:   -0.0000 X    -0.0000 Y     0.8197 Z
  Trans. Moment:    0.0000 X    -0.0000 Y    -0.0000 Z
  Strength   :  0.000000
  Natural transition orbitals ( 1 -> 4 ):
   e-/hole pair  1 alpha:  ampl =  0.063281 (  0.4%)   [9 : 10]
   e-/hole pair  2 alpha:  ampl =  0.013537 (  0.0%)   [8 : 11]
   e-/hole pair  1 beta :  ampl =  0.921540 ( 84.9%)   [9 : 10]
   e-/hole pair  2 beta :  ampl =  0.071897 (  0.5%)   [8 : 11]
   Sum of square amplitudes: 0.86

 NATURAL OCCUPATION NUMBERS (higher than 1.0E-05)
            1           2           3           4           5           6
    1   1.9999998   1.9999997   1.9999996   1.9993099   1.9988802   1.9983382
            7           8           9          10          11          12
    1   1.9916499   1.9909860   1.9752977   1.9336686   1.9219809   1.0240391
           13          14          15          16          17          18
    1   0.1058419   0.0222296   0.0169795   0.0036215   0.0028697   0.0025965
           19          20          21          22          23          24
    1   0.0024346   0.0019125   0.0016024   0.0012011   0.0006034   0.0005806
           25          26          27          28          29          30
    1   0.0004927   0.0003946   0.0002852   0.0002778   0.0002653   0.0002500
           31          32          33          34          35          36
    1   0.0002445   0.0002327   0.0002064   0.0001400   0.0001232   0.0001145
           37          38          39          40          41          42
    1   0.0000954   0.0000928   0.0000642   0.0000392   0.0000344   0.0000171
Natural Orbitals stored in FCHK

  Amplitudes : 
  
 | HOLE  | ALPHA     | BETA      | PART  |    AMPLITUDE 
--------------------------------------------------
 |       | 111111000 | 111101000 |       |     9.2309191358932E-01
 |       | 111110100 | 111100100 |       |    -1.2878054507916E-01
 |       | 111101100 | 101111000 |       |    -1.3473847241313E-01
--------------------------------------------------
*** Contributions RASCI wfn    Active:  94.49
                                 Hole:   0.52
                                 Part:   4.99

      Mulliken population analysis 
 ---------------------------------------------------
   Atom    Charge (a.u.)   Spin (a.u.)  
 ---------------------------------------------------
   1  C   -0.293730       -0.162631 
   2  O   -0.353135        0.581315 
   3  O   -0.353135        0.581315 
 ---------------------------------------------------
   Sum:   -1.000000        1.000000 
 ---------------------------------------------------
 
  
 NATURAL OCCUPATION NUMBERS (higher than 1.0E-05)
            1           2           3           4           5           6
    1   1.9999998   1.9999997   1.9999996   1.9993099   1.9988802   1.9983382
            7           8           9          10          11          12
    1   1.9916499   1.9909860   1.9752977   1.9336686   1.9219809   1.0240391
           13          14          15          16          17          18
    1   0.1058419   0.0222296   0.0169795   0.0036215   0.0028697   0.0025965
           19          20          21          22          23          24
    1   0.0024346   0.0019125   0.0016024   0.0012011   0.0006034   0.0005806
           25          26          27          28          29          30
    1   0.0004927   0.0003946   0.0002852   0.0002778   0.0002653   0.0002500
           31          32          33          34          35          36
    1   0.0002445   0.0002327   0.0002064   0.0001400   0.0001232   0.0001145
           37          38          39          40          41          42
    1   0.0000954   0.0000928   0.0000642   0.0000392   0.0000344   0.0000171
  
*** Unpaired Electrons
 Yamaguchi Nd:         1.69
 Head-Gordon Nu:       1.33
 Head-Gordon Nu_nl:    1.08
  
**************************************************
 RAS-CI total energy for state   5:   -187.447968718598
  Excitation energy (eV) =  6.660618335579
  State symmetry: B1    (C2v      )
  <S^2>      :  3.7500
  Dipole Moment:   -0.0000 X    -0.0000 Y     0.3360 Z
  Trans. Moment:   -0.0000 X    -0.0000 Y     0.0000 Z
  Strength   :  0.000000
  Natural transition orbitals ( 1 -> 5 ):
   e-/hole pair  1 alpha:  ampl =  0.545095 ( 29.7%)   [9 : 10]
   e-/hole pair  2 alpha:  ampl =  0.058276 (  0.3%)   [8 : 11]
   e-/hole pair  1 beta :  ampl =  0.545092 ( 29.7%)   [9 : 10]
   e-/hole pair  2 beta :  ampl =  0.058275 (  0.3%)   [8 : 11]
   Sum of square amplitudes: 0.60

 NATURAL OCCUPATION NUMBERS (higher than 1.0E-05)
            1           2           3           4           5           6
    1   1.9999998   1.9999997   1.9999995   1.9991211   1.9987965   1.9980498
            7           8           9          10          11          12
    1   1.9882926   1.9862295   1.9719279   1.9538957   1.0318710   1.0107283
           13          14          15          16          17          18
    1   0.9988731   0.0246695   0.0122789   0.0045400   0.0041589   0.0034583
           19          20          21          22          23          24
    1   0.0026717   0.0026200   0.0014946   0.0014652   0.0010489   0.0005372
           25          26          27          28          29          30
    1   0.0004820   0.0003688   0.0003396   0.0002847   0.0002493   0.0002247
           31          32          33          34          35          36
    1   0.0002219   0.0002173   0.0002006   0.0001472   0.0001095   0.0001033
           37          38          39          40          41          42
    1   0.0000971   0.0000709   0.0000690   0.0000314   0.0000308   0.0000174
Natural Orbitals stored in FCHK

  Amplitudes : 
  
 | HOLE  | ALPHA     | BETA      | PART  |    AMPLITUDE 
--------------------------------------------------
 |       | 111111000 | 111100100 |       |     5.5004701752897E-01
 |       | 111110100 | 111101000 |       |    -5.5004910951787E-01
 |       | 111101100 | 111110000 |       |     5.5004699224324E-01
--------------------------------------------------
*** Contributions RASCI wfn    Active:  94.31
                                 Hole:   0.62
                                 Part:   5.06

      Mulliken population analysis 
 ---------------------------------------------------
   Atom    Charge (a.u.)   Spin (a.u.)  
 ---------------------------------------------------
   1  C   -0.200355        0.491390 
   2  O   -0.399822        0.254305 
   3  O   -0.399822        0.254305 
 ---------------------------------------------------
   Sum:   -1.000000        1.000000 
 ---------------------------------------------------
 
  
 NATURAL OCCUPATION NUMBERS (higher than 1.0E-05)
            1           2           3           4           5           6
    1   1.9999998   1.9999997   1.9999995   1.9991211   1.9987965   1.9980498
            7           8           9          10          11          12
    1   1.9882926   1.9862295   1.9719279   1.9538957   1.0318710   1.0107283
           13          14          15          16          17          18
    1   0.9988731   0.0246695   0.0122789   0.0045400   0.0041589   0.0034583
           19          20          21          22          23          24
    1   0.0026717   0.0026200   0.0014946   0.0014652   0.0010489   0.0005372
           25          26          27          28          29          30
    1   0.0004820   0.0003688   0.0003396   0.0002847   0.0002493   0.0002247
           31          32          33          34          35          36
    1   0.0002219   0.0002173   0.0002006   0.0001472   0.0001095   0.0001033
           37          38          39          40          41          42
    1   0.0000971   0.0000709   0.0000690   0.0000314   0.0000308   0.0000174
  
*** Unpaired Electrons
 Yamaguchi Nd:         3.33
 Head-Gordon Nu:       3.12
 Head-Gordon Nu_nl:    3.01
  
**************************************************
 RAS-CI total energy for state   6:   -187.413679268861
  Excitation energy (eV) =  7.593681735717
  State symmetry: A2    (C2v      )
  <S^2>      :  0.7500
  Dipole Moment:   -0.0000 X    -0.0000 Y     0.2057 Z
  Trans. Moment:    0.0000 X    -0.0000 Y     0.0000 Z
  Strength   :  0.000000
  Natural transition orbitals ( 1 -> 6 ):
   e-/hole pair  1 alpha:  ampl =  0.703380 ( 49.5%)   [9 : 10]
   e-/hole pair  2 alpha:  ampl =  0.041777 (  0.2%)   [8 : 11]
   e-/hole pair  1 beta :  ampl =  0.568764 ( 32.3%)   [9 : 10]
   e-/hole pair  2 beta :  ampl =  0.072597 (  0.5%)   [8 : 11]
   Sum of square amplitudes: 0.83

 NATURAL OCCUPATION NUMBERS (higher than 1.0E-05)
            1           2           3           4           5           6
    1   1.9999998   1.9999997   1.9999993   1.9991265   1.9982568   1.9976398
            7           8           9          10          11          12
    1   1.9870948   1.9853422   1.9551875   1.9292099   1.0525455   1.0295140
           13          14          15          16          17          18
    1   1.0055506   0.0263959   0.0098669   0.0041536   0.0036872   0.0035373
           19          20          21          22          23          24
    1   0.0023717   0.0023348   0.0016697   0.0012746   0.0011680   0.0005916
           25          26          27          28          29          30
    1   0.0005018   0.0004982   0.0003624   0.0002710   0.0002431   0.0002364
           31          32          33          34          35          36
    1   0.0002187   0.0001899   0.0001883   0.0001535   0.0001452   0.0001149
           37          38          39          40          41          42
    1   0.0001066   0.0001006   0.0000663   0.0000376   0.0000288   0.0000125
Natural Orbitals stored in FCHK

  Amplitudes : 
  
 | HOLE  | ALPHA     | BETA      | PART  |    AMPLITUDE 
--------------------------------------------------
 |       | 111111000 | 111010100 |       |    -5.7373052538401E-01
 |       | 111110100 | 111100100 |       |    -1.1757041140987E-01
 |       | 111110100 | 111011000 |       |     1.4141269915194E-01
 |       | 111011100 | 111110000 |       |     7.1514322453501E-01
 |       | 110111100 | 111011000 |       |    -1.0260284347901E-01
--------------------------------------------------
*** Contributions RASCI wfn    Active:  94.47
                                 Hole:   0.75
                                 Part:   4.78

      Mulliken population analysis 
 ---------------------------------------------------
   Atom    Charge (a.u.)   Spin (a.u.)  
 ---------------------------------------------------
   1  C   -0.119492        0.922511 
   2  O   -0.440254        0.038744 
   3  O   -0.440254        0.038744 
 ---------------------------------------------------
   Sum:   -1.000000        1.000000 
 ---------------------------------------------------
 
  
 NATURAL OCCUPATION NUMBERS (higher than 1.0E-05)
            1           2           3           4           5           6
    1   1.9999998   1.9999997   1.9999993   1.9991265   1.9982568   1.9976398
            7           8           9          10          11          12
    1   1.9870948   1.9853422   1.9551875   1.9292099   1.0525455   1.0295140
           13          14          15          16          17          18
    1   1.0055506   0.0263959   0.0098669   0.0041536   0.0036872   0.0035373
           19          20          21          22          23          24
    1   0.0023717   0.0023348   0.0016697   0.0012746   0.0011680   0.0005916
           25          26          27          28          29          30
    1   0.0005018   0.0004982   0.0003624   0.0002710   0.0002431   0.0002364
           31          32          33          34          35          36
    1   0.0002187   0.0001899   0.0001883   0.0001535   0.0001452   0.0001149
           37          38          39          40          41          42
    1   0.0001066   0.0001006   0.0000663   0.0000376   0.0000288   0.0000125
  
*** Unpaired Electrons
 Yamaguchi Nd:         3.41
 Head-Gordon Nu:       3.12
 Head-Gordon Nu_nl:    3.02
  
**************************************************
 RAS-CI total energy for state   7:   -187.399181053256
  Excitation energy (eV) =  7.988198254698
  State symmetry: B1    (C2v      )
  <S^2>      :  0.7500
  Dipole Moment:   -0.0000 X    -0.0000 Y     0.3439 Z
  Trans. Moment:    0.4115 X     0.0000 Y    -0.0000 Z
  Strength   :  0.033143
  Natural transition orbitals ( 1 -> 7 ):
   e-/hole pair  1 alpha:  ampl =  0.561619 ( 31.5%)   [9 : 10]
   e-/hole pair  2 alpha:  ampl =  0.054968 (  0.3%)   [8 : 11]
   e-/hole pair  1 beta :  ampl =  0.191644 (  3.7%)   [9 : 10]
   e-/hole pair  2 beta :  ampl =  0.151882 (  2.3%)   [8 : 11]
   Sum of square amplitudes: 0.39

 NATURAL OCCUPATION NUMBERS (higher than 1.0E-05)
            1           2           3           4           5           6
    1   1.9999998   1.9999997   1.9999994   1.9991137   1.9980754   1.9978529
            7           8           9          10          11          12
    1   1.9822723   1.9794450   1.9392896   1.9319588   1.0807741   1.0501079
           13          14          15          16          17          18
    1   0.9681843   0.0336431   0.0127179   0.0044524   0.0038472   0.0037862
           19          20          21          22          23          24
    1   0.0027255   0.0026153   0.0015582   0.0015214   0.0012006   0.0008619
           25          26          27          28          29          30
    1   0.0006537   0.0006042   0.0003542   0.0003417   0.0002935   0.0002919
           31          32          33          34          35          36
    1   0.0002642   0.0002249   0.0002133   0.0001735   0.0001262   0.0001074
           37          38          39          40          41          42
    1   0.0000979   0.0000865   0.0000750   0.0000377   0.0000277   0.0000170
Natural Orbitals stored in FCHK

  Amplitudes : 
  
 | HOLE  | ALPHA     | BETA      | PART  |    AMPLITUDE 
--------------------------------------------------
 |       | 111111000 | 111100100 |       |     1.3758240932401E-01
 |       | 111111000 | 111011000 |       |    -1.4140679745941E-01
 |       | 111110100 | 111101000 |       |     7.0962610493087E-01
 |       | 111101100 | 111110000 |       |     5.7203532315455E-01
--------------------------------------------------
*** Contributions RASCI wfn    Active:  94.39
                                 Hole:   0.70
                                 Part:   4.91

      Mulliken population analysis 
 ---------------------------------------------------
   Atom    Charge (a.u.)   Spin (a.u.)  
 ---------------------------------------------------
   1  C   -0.190978        0.499140 
   2  O   -0.404511        0.250430 
   3  O   -0.404511        0.250430 
 ---------------------------------------------------
   Sum:   -1.000000        1.000000 
 ---------------------------------------------------
 
  
 NATURAL OCCUPATION NUMBERS (higher than 1.0E-05)
            1           2           3           4           5           6
    1   1.9999998   1.9999997   1.9999994   1.9991137   1.9980754   1.9978529
            7           8           9          10          11          12
    1   1.9822723   1.9794450   1.9392896   1.9319588   1.0807741   1.0501079
           13          14          15          16          17          18
    1   0.9681843   0.0336431   0.0127179   0.0044524   0.0038472   0.0037862
           19          20          21          22          23          24
    1   0.0027255   0.0026153   0.0015582   0.0015214   0.0012006   0.0008619
           25          26          27          28          29          30
    1   0.0006537   0.0006042   0.0003542   0.0003417   0.0002935   0.0002919
           31          32          33          34          35          36
    1   0.0002642   0.0002249   0.0002133   0.0001735   0.0001262   0.0001074
           37          38          39          40          41          42
    1   0.0000979   0.0000865   0.0000750   0.0000377   0.0000277   0.0000170
  
*** Unpaired Electrons
 Yamaguchi Nd:         3.47
 Head-Gordon Nu:       3.08
 Head-Gordon Nu_nl:    3.02
  
**************************************************
 RAS-CI total energy for state   8:   -187.379017353036
  Excitation energy (eV) =  8.536880453760
  State symmetry: A1    (C2v      )
  <S^2>      :  0.7500
  Dipole Moment:   -0.0000 X    -0.0000 Y     0.4656 Z
  Trans. Moment:   -0.0000 X    -0.0000 Y     0.4736 Z
  Strength   :  0.046919
  Natural transition orbitals ( 1 -> 8 ):
   e-/hole pair  1 alpha:  ampl =  0.203680 (  4.1%)   [9 : 10]
   e-/hole pair  2 alpha:  ampl =  0.178399 (  3.2%)   [8 : 11]
   e-/hole pair  1 beta :  ampl =  0.871143 ( 75.9%)   [9 : 10]
   e-/hole pair  2 beta :  ampl =  0.096111 (  0.9%)   [8 : 11]
   Sum of square amplitudes: 0.85

 NATURAL OCCUPATION NUMBERS (higher than 1.0E-05)
            1           2           3           4           5           6
    1   1.9999998   1.9999997   1.9999996   1.9992258   1.9981219   1.9979177
            7           8           9          10          11          12
    1   1.9874746   1.9174732   1.9108718   1.8958409   1.7965368   1.1853521
           13          14          15          16          17          18
    1   0.1937874   0.0602695   0.0294922   0.0049543   0.0038167   0.0036907
           19          20          21          22          23          24
    1   0.0034862   0.0028140   0.0019098   0.0015391   0.0008715   0.0007601
           25          26          27          28          29          30
    1   0.0005768   0.0004441   0.0003932   0.0002909   0.0002812   0.0002799
           31          32          33          34          35          36
    1   0.0002570   0.0002308   0.0002268   0.0001623   0.0001479   0.0001199
           37          38          39          40          41          42
    1   0.0001101   0.0001082   0.0000526   0.0000486   0.0000373   0.0000176
Natural Orbitals stored in FCHK

  Amplitudes : 
  
 | HOLE  | ALPHA     | BETA      | PART  |    AMPLITUDE 
--------------------------------------------------
 |       | 111111000 | 111001100 |       |     1.2793271628737E-01
 |       | 111111000 | 110111000 |       |     8.5601090037043E-01
 |       | 111110100 | 110110100 |       |    -1.1276443678268E-01
 |       | 111110100 | 101111000 |       |    -1.0782160313029E-01
 |       | 111110010 | 111110000 |       |     1.5778774998813E-01
 |       | 111101100 | 111011000 |       |     1.3456862193282E-01
 |       | 101111100 | 111110000 |       |    -2.0659169946373E-01
--------------------------------------------------
*** Contributions RASCI wfn    Active:  94.33
                                 Hole:   0.62
                                 Part:   5.05

      Mulliken population analysis 
 ---------------------------------------------------
   Atom    Charge (a.u.)   Spin (a.u.)  
 ---------------------------------------------------
   1  C   -0.175742        0.427969 
   2  O   -0.412129        0.286016 
   3  O   -0.412129        0.286016 
 ---------------------------------------------------
   Sum:   -1.000000        1.000000 
 ---------------------------------------------------
 
  
 NATURAL OCCUPATION NUMBERS (higher than 1.0E-05)
            1           2           3           4           5           6
    1   1.9999998   1.9999997   1.9999996   1.9992258   1.9981219   1.9979177
            7           8           9          10          11          12
    1   1.9874746   1.9174732   1.9108718   1.8958409   1.7965368   1.1853521
           13          14          15          16          17          18
    1   0.1937874   0.0602695   0.0294922   0.0049543   0.0038167   0.0036907
           19          20          21          22          23          24
    1   0.0034862   0.0028140   0.0019098   0.0015391   0.0008715   0.0007601
           25          26          27          28          29          30
    1   0.0005768   0.0004441   0.0003932   0.0002909   0.0002812   0.0002799
           31          32          33          34          35          36
    1   0.0002570   0.0002308   0.0002268   0.0001623   0.0001479   0.0001199
           37          38          39          40          41          42
    1   0.0001101   0.0001082   0.0000526   0.0000486   0.0000373   0.0000176
  
*** Unpaired Electrons
 Yamaguchi Nd:         2.47
 Head-Gordon Nu:       1.62
 Head-Gordon Nu_nl:    1.30
  
**************************************************
 RAS-CI total energy for state   9:   -187.367103644840
  Excitation energy (eV) =  8.861068947965
  State symmetry: B2    (C2v      )
  <S^2>      :  0.7500
  Dipole Moment:   -0.0000 X    -0.0000 Y     0.6847 Z
  Trans. Moment:    0.0000 X    -0.2685 Y    -0.0000 Z
  Strength   :  0.015655
  Natural transition orbitals ( 1 -> 9 ):
   e-/hole pair  1 alpha:  ampl =  0.097933 (  1.0%)   [9 : 10]
   e-/hole pair  2 alpha:  ampl =  0.037220 (  0.1%)   [8 : 11]
   e-/hole pair  1 beta :  ampl =  0.901153 ( 81.2%)   [9 : 10]
   e-/hole pair  2 beta :  ampl =  0.076851 (  0.6%)   [8 : 11]
   Sum of square amplitudes: 0.83

 NATURAL OCCUPATION NUMBERS (higher than 1.0E-05)
            1           2           3           4           5           6
    1   1.9999998   1.9999997   1.9999997   1.9992850   1.9986514   1.9977478
            7           8           9          10          11          12
    1   1.9911508   1.9759216   1.9738151   1.9137355   1.7912153   1.1123003
           13          14          15          16          17          18
    1   0.1670062   0.0304794   0.0261640   0.0040546   0.0031091   0.0029248
           19          20          21          22          23          24
    1   0.0026872   0.0023376   0.0016736   0.0012150   0.0007014   0.0004896
           25          26          27          28          29          30
    1   0.0004735   0.0004023   0.0002915   0.0002713   0.0002524   0.0002228
           31          32          33          34          35          36
    1   0.0002215   0.0002139   0.0002084   0.0001734   0.0001357   0.0001229
           37          38          39          40          41          42
    1   0.0001020   0.0000964   0.0000569   0.0000388   0.0000277   0.0000165
Natural Orbitals stored in FCHK

  Amplitudes : 
  
 | HOLE  | ALPHA     | BETA      | PART  |    AMPLITUDE 
--------------------------------------------------
 |       | 111111000 | 101111000 |       |     8.8851571370379E-01
 |       | 111110100 | 101110100 |       |    -1.2646480738222E-01
 |       | 111110010 | 101111000 |       |     1.0197835905844E-01
 |       | 111101100 | 111101000 |       |    -2.5253410677765E-01
--------------------------------------------------
*** Contributions RASCI wfn    Active:  94.57
                                 Hole:   0.70
                                 Part:   4.73

      Mulliken population analysis 
 ---------------------------------------------------
   Atom    Charge (a.u.)   Spin (a.u.)  
 ---------------------------------------------------
   1  C   -0.186836        0.498191 
   2  O   -0.406582        0.250905 
   3  O   -0.406582        0.250905 
 ---------------------------------------------------
   Sum:   -1.000000        1.000000 
 ---------------------------------------------------
 
  
 NATURAL OCCUPATION NUMBERS (higher than 1.0E-05)
            1           2           3           4           5           6
    1   1.9999998   1.9999997   1.9999997   1.9992850   1.9986514   1.9977478
            7           8           9          10          11          12
    1   1.9911508   1.9759216   1.9738151   1.9137355   1.7912153   1.1123003
           13          14          15          16          17          18
    1   0.1670062   0.0304794   0.0261640   0.0040546   0.0031091   0.0029248
           19          20          21          22          23          24
    1   0.0026872   0.0023376   0.0016736   0.0012150   0.0007014   0.0004896
           25          26          27          28          29          30
    1   0.0004735   0.0004023   0.0002915   0.0002713   0.0002524   0.0002228
           31          32          33          34          35          36
    1   0.0002215   0.0002139   0.0002084   0.0001734   0.0001357   0.0001229
           37          38          39          40          41          42
    1   0.0001020   0.0000964   0.0000569   0.0000388   0.0000277   0.0000165
  
*** Unpaired Electrons
 Yamaguchi Nd:         2.11
 Head-Gordon Nu:       1.49
 Head-Gordon Nu_nl:    1.25
  
**************************************************
 RAS-CI total energy for state  10:   -187.362528807254
  Excitation energy (eV) =  8.985556612405
  State symmetry: A2    (C2v      )
  <S^2>      :  0.7500
  Dipole Moment:   -0.0000 X    -0.0000 Y     0.3237 Z
  Trans. Moment:    0.0000 X    -0.0000 Y     0.0000 Z
  Strength   :  0.000000
  Natural transition orbitals ( 1 -> 10 ):
   e-/hole pair  1 alpha:  ampl =  0.231755 (  5.4%)   [9 : 10]
   e-/hole pair  2 alpha:  ampl =  0.036080 (  0.1%)   [8 : 11]
   e-/hole pair  1 beta :  ampl =  0.513419 ( 26.4%)   [9 : 10]
   e-/hole pair  2 beta :  ampl =  0.065648 (  0.4%)   [8 : 11]
   Sum of square amplitudes: 0.33

 NATURAL OCCUPATION NUMBERS (higher than 1.0E-05)
            1           2           3           4           5           6
    1   1.9999998   1.9999997   1.9999994   1.9989807   1.9983451   1.9963495
            7           8           9          10          11          12
    1   1.9822593   1.9768550   1.9560746   1.9253363   1.0537034   1.0315932
           13          14          15          16          17          18
    1   1.0163939   0.0278983   0.0095769   0.0052617   0.0041512   0.0027965
           19          20          21          22          23          24
    1   0.0027173   0.0024114   0.0016917   0.0012829   0.0012552   0.0008745
           25          26          27          28          29          30
    1   0.0008058   0.0005233   0.0004113   0.0003460   0.0003052   0.0002773
           31          32          33          34          35          36
    1   0.0002608   0.0002410   0.0002095   0.0001625   0.0001484   0.0001262
           37          38          39          40          41          42
    1   0.0001176   0.0000967   0.0000727   0.0000367   0.0000311   0.0000139
Natural Orbitals stored in FCHK

  Amplitudes : 
  
 | HOLE  | ALPHA     | BETA      | PART  |    AMPLITUDE 
--------------------------------------------------
 |       | 111111000 | 111010100 |       |    -5.0892104383829E-01
 |       | 111110100 | 111100100 |       |     1.0969418910177E-01
 |       | 111110100 | 111011000 |       |    -7.3659729861000E-01
 |       | 111011100 | 111110000 |       |    -2.2767625477248E-01
 |       | 111011100 | 110111000 |       |     1.1137260567986E-01
--------------------------------------------------
*** Contributions RASCI wfn    Active:  93.91
                                 Hole:   0.81
                                 Part:   5.28

      Mulliken population analysis 
 ---------------------------------------------------
   Atom    Charge (a.u.)   Spin (a.u.)  
 ---------------------------------------------------
   1  C   -0.178191       -0.004399 
   2  O   -0.410904        0.502200 
   3  O   -0.410904        0.502200 
 ---------------------------------------------------
   Sum:   -1.000000        1.000000 
 ---------------------------------------------------
 
  
 NATURAL OCCUPATION NUMBERS (higher than 1.0E-05)
            1           2           3           4           5           6
    1   1.9999998   1.9999997   1.9999994   1.9989807   1.9983451   1.9963495
            7           8           9          10          11          12
    1   1.9822593   1.9768550   1.9560746   1.9253363   1.0537034   1.0315932
           13          14          15          16          17          18
    1   1.0163939   0.0278983   0.0095769   0.0052617   0.0041512   0.0027965
           19          20          21          22          23          24
    1   0.0027173   0.0024114   0.0016917   0.0012829   0.0012552   0.0008745
           25          26          27          28          29          30
    1   0.0008058   0.0005233   0.0004113   0.0003460   0.0003052   0.0002773
           31          32          33          34          35          36
    1   0.0002608   0.0002410   0.0002095   0.0001625   0.0001484   0.0001262
           37          38          39          40          41          42
    1   0.0001176   0.0000967   0.0000727   0.0000367   0.0000311   0.0000139
  
*** Unpaired Electrons
 Yamaguchi Nd:         3.45
 Head-Gordon Nu:       3.13
 Head-Gordon Nu_nl:    3.03
  
--------------------------------------------------
 Interstate Transition Properties
--------------------------------------------------
State A: Root  1
State B: Root  2
  
Angular momentum components
< B | Lx | A > =    -0.866139471i
< B | Ly | A > =     0.000000000i
< B | Lz | A > =     0.000000000i
  
Norm of one-particle transition density matrix
||gamma^AB||_total       =  0.951499
||gamma^AB||_symmetrized =  0.679357
||gamma^AB||_anti-symm   =  0.666202
  
Spin-orbit couplings
 Using HF (reference) density for the 2-elec mean-field SOC contribution
KET: S',Sz' (Root   1) =  0.500 0.500
BRA: S ,Sz  (Root   2) =  0.500 0.500
Clebsh-Gordan coefficient: < 0.500, 0.500; 1.000, 0.000| 0.500, 0.500> = -0.577
 Computing 1e-SO integrals
 1e Reduced matrix elements (cm-1)
<S|| Hso(L-) ||S'> =    -0.0000000000   -86.1801907056
<S|| Hso(L0) ||S'> =     0.0000000000    -0.0000000000
<S|| Hso(L+) ||S'> =    -0.0000000000    86.1801907056
 1-elec SOC matrix (cm-1): < B(S,Sz) | Hso(1e) | A(S',Sz') >
                     |Sz'=-0.50>              |Sz'= 0.50>
 <Sz=-0.50|    0.000000   -0.000000i     0.000000  -70.365831i
 <Sz= 0.50|   -0.000000  -70.365831i    -0.000000    0.000000i
1-elec SOCC =    99.512312605 cm-1
 Computing 2e-SOMF integrals
 Averagin spin alpha/beta reference densities
 2e-SOMF Reduced matrix elements (cm-1)
<S|| Hso(L-) ||S'> =     0.0000000000    34.1124402387
<S|| Hso(L0) ||S'> =     0.0000000000     0.0000000000
<S|| Hso(L+) ||S'> =     0.0000000000   -34.1124402387
 2-elec mean-field SOC matrix (cm-1): < B(S,Sz) | Hso(2e-mf) | A(S',Sz') >
                     |Sz'=-0.50>              |Sz'= 0.50>
 <Sz=-0.50|    0.000000    0.000000i    -0.000000   27.852691i
 <Sz= 0.50|    0.000000   27.852691i     0.000000   -0.000000i
 Total mean-field SOC matrix (cm-1): < B(S,Sz) | Hsomf | A(S',Sz') >
                     |Sz'=-0.50>              |Sz'= 0.50>
 <Sz=-0.50|    0.000000   -0.000000i     0.000000  -42.513140i
 <Sz= 0.50|   -0.000000  -42.513140i    -0.000000    0.000000i
Mean-Field SOCC =    60.122659496 cm-1
   
**************************************************
State A: Root  1
State B: Root  3
  
Angular momentum components
< B | Lx | A > =     0.000000000i
< B | Ly | A > =    -0.055118408i
< B | Lz | A > =     0.000000000i
  
Norm of one-particle transition density matrix
||gamma^AB||_total       =  0.934466
||gamma^AB||_symmetrized =  0.684242
||gamma^AB||_anti-symm   =  0.636427
  
Spin-orbit couplings
 Using HF (reference) density for the 2-elec mean-field SOC contribution
KET: S',Sz' (Root   1) =  0.500 0.500
BRA: S ,Sz  (Root   3) =  0.500 0.500
Clebsh-Gordan coefficient: < 0.500, 0.500; 1.000, 0.000| 0.500, 0.500> = -0.577
 Reading 1e-SO integrals
 1e Reduced matrix elements (cm-1)
<S|| Hso(L-) ||S'> =   -56.4341629200     0.0000000000
<S|| Hso(L0) ||S'> =     0.0000000000     0.0000000000
<S|| Hso(L+) ||S'> =   -56.4341629200    -0.0000000000
 1-elec SOC matrix (cm-1): < B(S,Sz) | Hso(1e) | A(S',Sz') >
                     |Sz'=-0.50>              |Sz'= 0.50>
 <Sz=-0.50|    0.000000    0.000000i    46.078301    0.000000i
 <Sz= 0.50|  -46.078301    0.000000i    -0.000000   -0.000000i
1-elec SOCC =    65.164558307 cm-1
 Reading 2e-SOMF integrals
 2e-SOMF Reduced matrix elements (cm-1)
<S|| Hso(L-) ||S'> =    19.0797601673    -0.0000000000
<S|| Hso(L0) ||S'> =     0.0000000000    -0.0000000000
<S|| Hso(L+) ||S'> =    19.0797601673     0.0000000000
 2-elec mean-field SOC matrix (cm-1): < B(S,Sz) | Hso(2e-mf) | A(S',Sz') >
                     |Sz'=-0.50>              |Sz'= 0.50>
 <Sz=-0.50|    0.000000   -0.000000i   -15.578559   -0.000000i
 <Sz= 0.50|   15.578559   -0.000000i     0.000000    0.000000i
 Total mean-field SOC matrix (cm-1): < B(S,Sz) | Hsomf | A(S',Sz') >
                     |Sz'=-0.50>              |Sz'= 0.50>
 <Sz=-0.50|    0.000000    0.000000i    30.499742    0.000000i
 <Sz= 0.50|  -30.499742    0.000000i    -0.000000   -0.000000i
Mean-Field SOCC =    43.133148969 cm-1
   
**************************************************
State A: Root  1
State B: Root  4
  
Angular momentum components
< B | Lx | A > =    -0.000000000i
< B | Ly | A > =    -0.000000000i
< B | Lz | A > =     0.255324880i
  
Norm of one-particle transition density matrix
||gamma^AB||_total       =  0.928032
||gamma^AB||_symmetrized =  0.657643
||gamma^AB||_anti-symm   =  0.654790
  
Spin-orbit couplings
 Using HF (reference) density for the 2-elec mean-field SOC contribution
KET: S',Sz' (Root   1) =  0.500 0.500
BRA: S ,Sz  (Root   4) =  0.500 0.500
Clebsh-Gordan coefficient: < 0.500, 0.500; 1.000, 0.000| 0.500, 0.500> = -0.577
 Reading 1e-SO integrals
 1e Reduced matrix elements (cm-1)
<S|| Hso(L-) ||S'> =     0.0000000000     0.0000000000
<S|| Hso(L0) ||S'> =     0.0000000000   -30.8357632262
<S|| Hso(L+) ||S'> =     0.0000000000    -0.0000000000
 1-elec SOC matrix (cm-1): < B(S,Sz) | Hso(1e) | A(S',Sz') >
                     |Sz'=-0.50>              |Sz'= 0.50>
 <Sz=-0.50|    0.000000  -17.803036i    -0.000000    0.000000i
 <Sz= 0.50|    0.000000    0.000000i     0.000000   17.803036i
1-elec SOCC =    25.177295244 cm-1
 Reading 2e-SOMF integrals
 2e-SOMF Reduced matrix elements (cm-1)
<S|| Hso(L-) ||S'> =    -0.0000000000    -0.0000000000
<S|| Hso(L0) ||S'> =     0.0000000000    10.0368944490
<S|| Hso(L+) ||S'> =    -0.0000000000     0.0000000000
 2-elec mean-field SOC matrix (cm-1): < B(S,Sz) | Hso(2e-mf) | A(S',Sz') >
                     |Sz'=-0.50>              |Sz'= 0.50>
 <Sz=-0.50|    0.000000    5.794804i     0.000000   -0.000000i
 <Sz= 0.50|   -0.000000   -0.000000i    -0.000000   -5.794804i
 Total mean-field SOC matrix (cm-1): < B(S,Sz) | Hsomf | A(S',Sz') >
                     |Sz'=-0.50>              |Sz'= 0.50>
 <Sz=-0.50|    0.000000  -12.008232i    -0.000000    0.000000i
 <Sz= 0.50|    0.000000    0.000000i     0.000000   12.008232i
Mean-Field SOCC =    16.982205244 cm-1
   
**************************************************
State A: Root  1
State B: Root  5
  
Angular momentum components
< B | Lx | A > =     0.000000000i
< B | Ly | A > =     0.000028094i
< B | Lz | A > =    -0.000000000i
  
Norm of one-particle transition density matrix
||gamma^AB||_total       =  0.777472
||gamma^AB||_symmetrized =  0.602781
||gamma^AB||_anti-symm   =  0.491037
  
Spin-orbit couplings
 Using HF (reference) density for the 2-elec mean-field SOC contribution
KET: S',Sz' (Root   1) =  0.500 0.500
BRA: S ,Sz  (Root   5) =  1.500 0.500
Clebsh-Gordan coefficient: < 0.500, 0.500; 1.000, 0.000| 1.500, 0.500> =  0.816
 Reading 1e-SO integrals
 1e Reduced matrix elements (cm-1)
<S|| Hso(L-) ||S'> =    -1.0892267182    -0.0000000000
<S|| Hso(L0) ||S'> =     0.0000000000     0.0000000000
<S|| Hso(L+) ||S'> =    -1.0892267182     0.0000000000
 1-elec SOC matrix (cm-1): < B(S,Sz) | Hso(1e) | A(S',Sz') >
                     |Sz'=-0.50>              |Sz'= 0.50>
 <Sz=-1.50|   -1.089227    0.000000i     0.000000    0.000000i
 <Sz=-0.50|    0.000000    0.000000i    -0.628865    0.000000i
 <Sz= 0.50|   -0.628865   -0.000000i    -0.000000    0.000000i
 <Sz= 1.50|    0.000000    0.000000i    -1.089227   -0.000000i
1-elec SOCC =     1.778699782 cm-1
 Reading 2e-SOMF integrals
 2e-SOMF Reduced matrix elements (cm-1)
<S|| Hso(L-) ||S'> =     0.6132087088     0.0000000000
<S|| Hso(L0) ||S'> =     0.0000000000    -0.0000000000
<S|| Hso(L+) ||S'> =     0.6132087088    -0.0000000000
 2-elec mean-field SOC matrix (cm-1): < B(S,Sz) | Hso(2e-mf) | A(S',Sz') >
                     |Sz'=-0.50>              |Sz'= 0.50>
 <Sz=-1.50|    0.613209   -0.000000i     0.000000    0.000000i
 <Sz=-0.50|   -0.000000   -0.000000i     0.354036   -0.000000i
 <Sz= 0.50|    0.354036    0.000000i     0.000000   -0.000000i
 <Sz= 1.50|    0.000000    0.000000i     0.613209    0.000000i
 Total mean-field SOC matrix (cm-1): < B(S,Sz) | Hsomf | A(S',Sz') >
                     |Sz'=-0.50>              |Sz'= 0.50>
 <Sz=-1.50|   -0.476018    0.000000i     0.000000    0.000000i
 <Sz=-0.50|    0.000000    0.000000i    -0.274829    0.000000i
 <Sz= 0.50|   -0.274829   -0.000000i    -0.000000    0.000000i
 <Sz= 1.50|    0.000000    0.000000i    -0.476018   -0.000000i
Mean-Field SOCC =     0.777334154 cm-1
   
**************************************************
State A: Root  1
State B: Root  6
  
Angular momentum components
< B | Lx | A > =     0.000000000i
< B | Ly | A > =    -0.000000000i
< B | Lz | A > =     0.323994012i
  
Norm of one-particle transition density matrix
||gamma^AB||_total       =  0.909421
||gamma^AB||_symmetrized =  0.639041
||gamma^AB||_anti-symm   =  0.647050
  
Spin-orbit couplings
 Using HF (reference) density for the 2-elec mean-field SOC contribution
KET: S',Sz' (Root   1) =  0.500 0.500
BRA: S ,Sz  (Root   6) =  0.500 0.500
Clebsh-Gordan coefficient: < 0.500, 0.500; 1.000, 0.000| 0.500, 0.500> = -0.577
 Reading 1e-SO integrals
 1e Reduced matrix elements (cm-1)
<S|| Hso(L-) ||S'> =    -0.0000000000     0.0000000000
<S|| Hso(L0) ||S'> =     0.0000000000   -14.3414907855
<S|| Hso(L+) ||S'> =    -0.0000000000    -0.0000000000
 1-elec SOC matrix (cm-1): < B(S,Sz) | Hso(1e) | A(S',Sz') >
                     |Sz'=-0.50>              |Sz'= 0.50>
 <Sz=-0.50|    0.000000   -8.280064i     0.000000    0.000000i
 <Sz= 0.50|   -0.000000    0.000000i    -0.000000    8.280064i
1-elec SOCC =    11.709778192 cm-1
 Reading 2e-SOMF integrals
 2e-SOMF Reduced matrix elements (cm-1)
<S|| Hso(L-) ||S'> =    -0.0000000000    -0.0000000000
<S|| Hso(L0) ||S'> =     0.0000000000     5.4192950309
<S|| Hso(L+) ||S'> =    -0.0000000000     0.0000000000
 2-elec mean-field SOC matrix (cm-1): < B(S,Sz) | Hso(2e-mf) | A(S',Sz') >
                     |Sz'=-0.50>              |Sz'= 0.50>
 <Sz=-0.50|    0.000000    3.128831i     0.000000   -0.000000i
 <Sz= 0.50|   -0.000000   -0.000000i    -0.000000   -3.128831i
 Total mean-field SOC matrix (cm-1): < B(S,Sz) | Hsomf | A(S',Sz') >
                     |Sz'=-0.50>              |Sz'= 0.50>
 <Sz=-0.50|    0.000000   -5.151232i     0.000000    0.000000i
 <Sz= 0.50|   -0.000000    0.000000i    -0.000000    5.151232i
Mean-Field SOCC =     7.284942328 cm-1
   
**************************************************
State A: Root  1
State B: Root  7
  
Angular momentum components
< B | Lx | A > =     0.000000000i
< B | Ly | A > =     0.022887846i
< B | Lz | A > =     0.000000000i
  
Norm of one-particle transition density matrix
||gamma^AB||_total       =  0.624263
||gamma^AB||_symmetrized =  0.464501
||gamma^AB||_anti-symm   =  0.417065
  
Spin-orbit couplings
 Using HF (reference) density for the 2-elec mean-field SOC contribution
KET: S',Sz' (Root   1) =  0.500 0.500
BRA: S ,Sz  (Root   7) =  0.500 0.500
Clebsh-Gordan coefficient: < 0.500, 0.500; 1.000, 0.000| 0.500, 0.500> = -0.577
 Reading 1e-SO integrals
 1e Reduced matrix elements (cm-1)
<S|| Hso(L-) ||S'> =    16.8326554365     0.0000000000
<S|| Hso(L0) ||S'> =     0.0000000000     0.0000000000
<S|| Hso(L+) ||S'> =    16.8326554365    -0.0000000000
 1-elec SOC matrix (cm-1): < B(S,Sz) | Hso(1e) | A(S',Sz') >
                     |Sz'=-0.50>              |Sz'= 0.50>
 <Sz=-0.50|    0.000000    0.000000i   -13.743806    0.000000i
 <Sz= 0.50|   13.743806    0.000000i     0.000000   -0.000000i
1-elec SOCC =    19.436676295 cm-1
 Reading 2e-SOMF integrals
 2e-SOMF Reduced matrix elements (cm-1)
<S|| Hso(L-) ||S'> =    -6.1842942729    -0.0000000000
<S|| Hso(L0) ||S'> =     0.0000000000    -0.0000000000
<S|| Hso(L+) ||S'> =    -6.1842942729     0.0000000000
 2-elec mean-field SOC matrix (cm-1): < B(S,Sz) | Hso(2e-mf) | A(S',Sz') >
                     |Sz'=-0.50>              |Sz'= 0.50>
 <Sz=-0.50|    0.000000   -0.000000i     5.049455   -0.000000i
 <Sz= 0.50|   -5.049455   -0.000000i    -0.000000    0.000000i
 Total mean-field SOC matrix (cm-1): < B(S,Sz) | Hsomf | A(S',Sz') >
                     |Sz'=-0.50>              |Sz'= 0.50>
 <Sz=-0.50|    0.000000    0.000000i    -8.694350    0.000000i
 <Sz= 0.50|    8.694350    0.000000i     0.000000   -0.000000i
Mean-Field SOCC =    12.295668369 cm-1
   
**************************************************
State A: Root  1
State B: Root  8
  
Angular momentum components
< B | Lx | A > =     0.000000000i
< B | Ly | A > =    -0.000000000i
< B | Lz | A > =    -0.000000000i
  
Norm of one-particle transition density matrix
||gamma^AB||_total       =  0.924164
||gamma^AB||_symmetrized =  0.678015
||gamma^AB||_anti-symm   =  0.627992
  
Spin-orbit couplings
 Using HF (reference) density for the 2-elec mean-field SOC contribution
KET: S',Sz' (Root   1) =  0.500 0.500
BRA: S ,Sz  (Root   8) =  0.500 0.500
Clebsh-Gordan coefficient: < 0.500, 0.500; 1.000, 0.000| 0.500, 0.500> = -0.577
 Reading 1e-SO integrals
 1e Reduced matrix elements (cm-1)
<S|| Hso(L-) ||S'> =    -0.0000000000    -0.0000000000
<S|| Hso(L0) ||S'> =     0.0000000000    -0.0000000000
<S|| Hso(L+) ||S'> =    -0.0000000000     0.0000000000
 1-elec SOC matrix (cm-1): < B(S,Sz) | Hso(1e) | A(S',Sz') >
                     |Sz'=-0.50>              |Sz'= 0.50>
 <Sz=-0.50|    0.000000   -0.000000i     0.000000   -0.000000i
 <Sz= 0.50|   -0.000000   -0.000000i    -0.000000    0.000000i
1-elec SOCC =     0.000000000 cm-1
 Reading 2e-SOMF integrals
 2e-SOMF Reduced matrix elements (cm-1)
<S|| Hso(L-) ||S'> =     0.0000000000     0.0000000000
<S|| Hso(L0) ||S'> =     0.0000000000     0.0000000000
<S|| Hso(L+) ||S'> =     0.0000000000    -0.0000000000
 2-elec mean-field SOC matrix (cm-1): < B(S,Sz) | Hso(2e-mf) | A(S',Sz') >
                     |Sz'=-0.50>              |Sz'= 0.50>
 <Sz=-0.50|    0.000000    0.000000i    -0.000000    0.000000i
 <Sz= 0.50|    0.000000    0.000000i     0.000000   -0.000000i
 Total mean-field SOC matrix (cm-1): < B(S,Sz) | Hsomf | A(S',Sz') >
                     |Sz'=-0.50>              |Sz'= 0.50>
 <Sz=-0.50|    0.000000   -0.000000i     0.000000   -0.000000i
 <Sz= 0.50|   -0.000000   -0.000000i    -0.000000    0.000000i
Mean-Field SOCC =     0.000000000 cm-1
   
**************************************************
State A: Root  1
State B: Root  9
  
Angular momentum components
< B | Lx | A > =     0.135452682i
< B | Ly | A > =    -0.000000000i
< B | Lz | A > =    -0.000000000i
  
Norm of one-particle transition density matrix
||gamma^AB||_total       =  0.912817
||gamma^AB||_symmetrized =  0.646609
||gamma^AB||_anti-symm   =  0.644306
  
Spin-orbit couplings
 Using HF (reference) density for the 2-elec mean-field SOC contribution
KET: S',Sz' (Root   1) =  0.500 0.500
BRA: S ,Sz  (Root   9) =  0.500 0.500
Clebsh-Gordan coefficient: < 0.500, 0.500; 1.000, 0.000| 0.500, 0.500> = -0.577
 Reading 1e-SO integrals
 1e Reduced matrix elements (cm-1)
<S|| Hso(L-) ||S'> =    -0.0000000000   -43.5725887457
<S|| Hso(L0) ||S'> =     0.0000000000    -0.0000000000
<S|| Hso(L+) ||S'> =    -0.0000000000    43.5725887457
 1-elec SOC matrix (cm-1): < B(S,Sz) | Hso(1e) | A(S',Sz') >
                     |Sz'=-0.50>              |Sz'= 0.50>
 <Sz=-0.50|    0.000000   -0.000000i     0.000000  -35.576870i
 <Sz= 0.50|   -0.000000  -35.576870i    -0.000000    0.000000i
1-elec SOCC =    50.313291683 cm-1
 Reading 2e-SOMF integrals
 2e-SOMF Reduced matrix elements (cm-1)
<S|| Hso(L-) ||S'> =     0.0000000000    14.1247477343
<S|| Hso(L0) ||S'> =     0.0000000000     0.0000000000
<S|| Hso(L+) ||S'> =     0.0000000000   -14.1247477343
 2-elec mean-field SOC matrix (cm-1): < B(S,Sz) | Hso(2e-mf) | A(S',Sz') >
                     |Sz'=-0.50>              |Sz'= 0.50>
 <Sz=-0.50|    0.000000    0.000000i    -0.000000   11.532808i
 <Sz= 0.50|    0.000000   11.532808i     0.000000   -0.000000i
 Total mean-field SOC matrix (cm-1): < B(S,Sz) | Hsomf | A(S',Sz') >
                     |Sz'=-0.50>              |Sz'= 0.50>
 <Sz=-0.50|    0.000000   -0.000000i     0.000000  -24.044062i
 <Sz= 0.50|   -0.000000  -24.044062i    -0.000000    0.000000i
Mean-Field SOCC =    34.003437870 cm-1
   
**************************************************
State A: Root  1
State B: Root 10
  
Angular momentum components
< B | Lx | A > =     0.000000000i
< B | Ly | A > =    -0.000000000i
< B | Lz | A > =    -0.030528405i
  
Norm of one-particle transition density matrix
||gamma^AB||_total       =  0.570261
||gamma^AB||_symmetrized =  0.402157
||gamma^AB||_anti-symm   =  0.404311
  
Spin-orbit couplings
 Using HF (reference) density for the 2-elec mean-field SOC contribution
KET: S',Sz' (Root   1) =  0.500 0.500
BRA: S ,Sz  (Root  10) =  0.500 0.500
Clebsh-Gordan coefficient: < 0.500, 0.500; 1.000, 0.000| 0.500, 0.500> = -0.577
 Reading 1e-SO integrals
 1e Reduced matrix elements (cm-1)
<S|| Hso(L-) ||S'> =    -0.0000000000     0.0000000000
<S|| Hso(L0) ||S'> =     0.0000000000    53.8981194581
<S|| Hso(L+) ||S'> =    -0.0000000000    -0.0000000000
 1-elec SOC matrix (cm-1): < B(S,Sz) | Hso(1e) | A(S',Sz') >
                     |Sz'=-0.50>              |Sz'= 0.50>
 <Sz=-0.50|    0.000000   31.118094i     0.000000    0.000000i
 <Sz= 0.50|   -0.000000    0.000000i    -0.000000  -31.118094i
1-elec SOCC =    44.007630256 cm-1
 Reading 2e-SOMF integrals
 2e-SOMF Reduced matrix elements (cm-1)
<S|| Hso(L-) ||S'> =     0.0000000000    -0.0000000000
<S|| Hso(L0) ||S'> =     0.0000000000   -19.7207490051
<S|| Hso(L+) ||S'> =     0.0000000000     0.0000000000
 2-elec mean-field SOC matrix (cm-1): < B(S,Sz) | Hso(2e-mf) | A(S',Sz') >
                     |Sz'=-0.50>              |Sz'= 0.50>
 <Sz=-0.50|    0.000000  -11.385780i    -0.000000   -0.000000i
 <Sz= 0.50|    0.000000   -0.000000i     0.000000   11.385780i
 Total mean-field SOC matrix (cm-1): < B(S,Sz) | Hsomf | A(S',Sz') >
                     |Sz'=-0.50>              |Sz'= 0.50>
 <Sz=-0.50|    0.000000   19.732314i     0.000000    0.000000i
 <Sz= 0.50|   -0.000000    0.000000i    -0.000000  -19.732314i
Mean-Field SOCC =    27.905706120 cm-1
   
**************************************************
State A: Root  2
State B: Root  1
  
Angular momentum components
< B | Lx | A > =     0.866139471i
< B | Ly | A > =    -0.000000000i
< B | Lz | A > =    -0.000000000i
  
Norm of one-particle transition density matrix
||gamma^AB||_total       =  0.951499
||gamma^AB||_symmetrized =  0.679357
||gamma^AB||_anti-symm   =  0.666202
  
Spin-orbit couplings
 Using HF (reference) density for the 2-elec mean-field SOC contribution
KET: S',Sz' (Root   2) =  0.500 0.500
BRA: S ,Sz  (Root   1) =  0.500 0.500
Clebsh-Gordan coefficient: < 0.500, 0.500; 1.000, 0.000| 0.500, 0.500> = -0.577
 Reading 1e-SO integrals
 1e Reduced matrix elements (cm-1)
<S|| Hso(L-) ||S'> =     0.0000000000    86.1801907056
<S|| Hso(L0) ||S'> =     0.0000000000     0.0000000000
<S|| Hso(L+) ||S'> =     0.0000000000   -86.1801907056
 1-elec SOC matrix (cm-1): < B(S,Sz) | Hso(1e) | A(S',Sz') >
                     |Sz'=-0.50>              |Sz'= 0.50>
 <Sz=-0.50|    0.000000    0.000000i    -0.000000   70.365831i
 <Sz= 0.50|    0.000000   70.365831i     0.000000   -0.000000i
1-elec SOCC =    99.512312605 cm-1
[...]
    20    1.203859150208e-01
    21   -3.399752804104e-01
    22    5.002614862697e-03
    23   -3.116149123644e-15
    24   -2.282070773035e-02
    25   -1.468264351466e-01
    26    5.296442340616e-02
    27    4.860918997956e-02
    28   -7.597259842066e-16
    29   -5.005174589121e-02
    30   -3.346515482014e-16
    31   -2.484705176172e-02
    32    9.595075378586e-02
    33   -2.749615513283e-01
    34   -1.505251067587e-15
    35    1.203859150208e-01
    36   -3.399752804104e-01
    37   -5.002614862677e-03
    38   -1.301912281255e-16
    39   -2.282070773035e-02
    40   -1.468264351466e-01
    41    5.296442340617e-02
    42    4.860918997957e-02
    43    1.236620131270e-15
    44    5.005174589121e-02
    45   -3.184582305866e-16
Sym=X
Ene= 1.216179
Spin=Alpha
Occup=0
     1   -1.129417056572e-15
     2   -9.106688930903e-15
     3    1.094334892717e+00
     4   -1.339242468608e-15
     5    1.198936052284e-15
     6   -3.607946735572e-14
     7   -5.827326066058e-01
     8    2.421376916659e-15
     9    1.070098664906e-14
    10   -3.288197166486e-15
    11    4.708186811896e-15
    12    3.771569715573e-15
    13   -1.285326895912e-15
    14    8.742620981177e-02
    15   -3.952739697873e-17
    16   -3.692504335018e-02
    17    2.627719028374e-01
    18    7.584554442174e-02
    19    2.816455370211e-15
    20    6.240762478247e-03
    21   -2.441002536298e-01
    22    5.134795631536e-01
    23   -4.377091453718e-15
    24    2.488366592169e-01
    25   -1.796106712233e-02
    26    1.111962124618e-01
    27    5.850301907259e-02
    28   -4.254220380161e-16
    29   -9.609268320198e-02
    30   -7.947800160168e-17
    31    3.692504335018e-02
    32   -2.627719028374e-01
    33    7.584554442176e-02
    34   -3.671469239941e-15
    35   -6.240762478245e-03
    36    2.441002536298e-01
    37    5.134795631535e-01
    38    3.805058849532e-15
    39   -2.488366592169e-01
    40    1.796106712233e-02
    41   -1.111962124618e-01
    42   -5.850301907260e-02
    43    5.383206030451e-16
    44   -9.609268320198e-02
    45    8.734694689402e-16
Sym=X
Ene= 1.330647
Spin=Alpha
Occup=0
     1    7.348220494587e-02
     2    5.484327851123e-01
     3    5.737717179791e-15
     4    6.338321722386e-16
     5   -1.391532068376e-01
     6    9.219494609302e-02
     7   -1.878355329380e-14
     8   -2.273625886798e-15
     9    5.203162185179e-02
    10    3.718750304182e-01
    11   -7.333591141481e-02
    12    2.057201569208e-02
    13    9.234310854320e-16
    14   -2.531890962365e-15
    15    4.484428843865e-18
    16   -3.175343623250e-03
    17   -3.389328031942e-01
    18    4.936004405254e-01
    19   -2.173240663974e-15
    20    7.743645211164e-02
    21    4.291218561688e-01
    22   -8.406772045366e-01
    23    3.268478499530e-15
    24   -3.027131121700e-01
    25   -2.301278906127e-01
    26   -1.411823298533e-01
    27   -1.407351321508e-01
    28   -7.385873608941e-16
    29   -2.883006673077e-02
    30    6.508332815400e-16
    31   -3.175343623251e-03
    32   -3.389328031942e-01
    33   -4.936004405254e-01
    34   -1.718675803514e-15
    35    7.743645211166e-02
    36    4.291218561689e-01
    37    8.406772045366e-01
    38    2.051686222015e-15
    39   -3.027131121701e-01
    40   -2.301278906127e-01
    41   -1.411823298533e-01
    42   -1.407351321508e-01
    43   -9.343046243398e-16
    44    2.883006673077e-02
    45   -1.176162899717e-16
Sym=X
Ene= 1.399468
Spin=Alpha
Occup=0
     1    2.670394184464e-16
     2    1.844176286763e-14
     3    2.015194435443e-01
     4    3.024744391098e-15
     5   -1.997912824517e-15
     6   -4.123577856305e-14
     7    3.737686409770e-01
     8   -3.357986390629e-15
     9    1.921119587941e-14
    10    3.758813011771e-15
    11   -2.230117401123e-15
    12   -9.286608076805e-16
    13   -2.600483793130e-15
    14    2.249902745223e-01
    15   -1.013021359483e-15
    16   -3.351238498729e-02
    17   -4.038584167115e-01
    18    4.602300984058e-01
    19    6.695530145792e-15
    20    3.826527254588e-01
    21    1.074548137513e+00
    22   -3.997378947114e-01
    23   -8.477731769197e-15
    24   -2.225519611024e-01
    25   -2.277070157473e-01
    26   -1.432525723390e-01
    27   -2.029561448450e-01
    28    3.413921537627e-16
    29   -6.961144192310e-02
    30   -9.548716343616e-16
    31    3.351238498729e-02
    32    4.038584167115e-01
    33    4.602300984058e-01
    34   -1.174412809241e-14
    35   -3.826527254588e-01
    36   -1.074548137512e+00
    37   -3.997378947114e-01
    38    1.361832504381e-14
    39    2.225519611024e-01
    40    2.277070157473e-01
    41    1.432525723390e-01
    42    2.029561448450e-01
    43   -5.449528222641e-16
    44   -6.961144192310e-02
    45    7.420625445553e-16
Sym=X
Ene= 1.488433
Spin=Alpha
Occup=0
     1   -1.495832514490e-16
     2   -8.342232486893e-15
     3    7.500561624740e-15
     4    2.271182962266e-15
     5    1.800782611230e-15
     6   -4.427661868947e-15
     7    9.179175028243e-15
     8   -2.124253321470e-14
     9   -6.485881633686e-15
    10   -2.459983426458e-15
    11    9.542165785027e-17
    12    2.884251232183e-16
    13    1.219639937897e-01
    14    7.415541270429e-15
    15    2.517864770585e-15
    16   -1.042390661760e-15
    17   -5.262298452221e-15
    18    1.640970428498e-14
    19   -6.784700246280e-01
    20   -1.350751421955e-14
    21    2.170387436056e-14
    22   -1.096846296384e-14
    23    7.877100788173e-01
    24    2.530911690652e-14
    25   -2.318329786429e-15
    26   -2.410302247112e-15
    27   -3.998208479311e-15
    28   -3.818809695475e-02
    29   -3.692409203504e-15
    30   -2.244229859333e-03
    31    2.455612252775e-16
    32   -1.657856725883e-15
    33    1.005065254539e-14
    34    6.784700246279e-01
    35   -6.211351153623e-15
    36   -2.634190004315e-15
    37   -1.464286004930e-14
    38   -7.877100788172e-01
    39    4.749836391469e-15
    40    2.735294546750e-16
    41    3.945237667814e-16
    42    1.672475658682e-15
    43   -3.818809695475e-02
    44   -2.598527011021e-15
    45    2.244229859331e-03
Sym=X
Ene= 1.520224
Spin=Alpha
Occup=0
     1   -1.688268282821e-02
     2   -2.083837009389e-01
     3    8.298449577137e-15
     4   -2.096598840563e-16
     5    1.349111604873e-01
     6   -1.096718588278e-01
     7    1.302092647103e-14
     8   -1.708327245080e-16
     9   -6.733160390736e-01
    10   -1.549610760541e-01
    11    6.946485307560e-02
    12    3.160206147370e-02
    13   -8.169777560780e-16
    14   -1.479011578261e-15
    15   -2.032058006889e-17
    16   -7.173727713176e-03
    17   -1.343719302427e-01
    18    2.050284515809e-01
    19    1.073803369570e-14
    20   -6.213952014394e-01
    21    2.316728693855e-01
    22   -1.140585150085e-01
    23   -1.191974381903e-14
    24    9.466577405667e-01
    25   -2.695947479608e-02
    26   -3.333646281085e-03
    27   -6.300316494694e-02
    28   -1.471827399262e-16
    29   -1.519866915656e-02
    30   -4.012930183335e-16
    31   -7.173727713174e-03
    32   -1.343719302427e-01
    33   -2.050284515809e-01
    34   -1.185953109248e-14
    35   -6.213952014395e-01
    36    2.316728693854e-01
    37    1.140585150085e-01
    38    1.342512551349e-14
    39    9.466577405667e-01
    40   -2.695947479607e-02
    41   -3.333646281078e-03
    42   -6.300316494693e-02
    43    6.113495340549e-16
    44    1.519866915656e-02
    45    6.205889857832e-16
Sym=X
Ene= 1.548259
Spin=Alpha
Occup=0
     1   -1.932092273670e-16
     2    8.497254390420e-15
     3    1.012628784313e-01
     4   -2.770705393375e-15
     5   -2.681628968041e-15
     6   -3.101963468004e-14
     7   -3.992528211910e-01
     8    1.971337718579e-15
     9    1.669792984707e-14
    10    3.506341834785e-15
    11    3.803071609950e-15
    12    1.925277281988e-15
    13    3.216794617603e-15
    14   -1.955084671801e-01
    15   -2.375987128909e-15
    16   -4.743714906823e-04
    17   -8.827206118207e-02
    18   -3.391758309373e-01
    19   -1.530025798769e-14
    20    5.259763117519e-01
    21    1.049058887946e-02
    22    5.454889827292e-01
    23    1.773034703849e-14
    24   -6.866611008930e-01
    25   -8.019617640489e-02
    26    6.182005792943e-03
    27    3.673592637771e-02
    28   -2.915379938311e-15
    29    6.636980661799e-02
    30   -4.618256594635e-16
    31    4.743714906814e-04
    32    8.827206118205e-02
    33   -3.391758309373e-01
    34    9.567793701607e-15
    35   -5.259763117519e-01
    36   -1.049058887941e-02
    37    5.454889827292e-01
    38   -1.204873560119e-14
    39    6.866611008930e-01
    40    8.019617640489e-02
    41   -6.182005792952e-03
    42   -3.673592637772e-02
    43   -1.933813185520e-16
    44    6.636980661798e-02
    45   -7.170058795906e-16
Sym=X
Ene= 1.583721
Spin=Alpha
Occup=0
     1   -1.428040767343e-16
     2   -1.511589902939e-15
     3   -1.405999614251e-15
     4    1.482224189622e-01
     5    1.041345527718e-15
     6   -8.428742046391e-16
     7   -8.608302395565e-15
     8   -8.006544920203e-01
     9    5.308595752618e-16
    10   -1.282695357863e-15
    11    1.719277679217e-15
    12   -1.822322098159e-15
    13   -5.275623818896e-15
    14   -1.335375948032e-16
    15   -2.256608359226e-02
    16    3.051885179274e-16
    17    7.516468687756e-15
    18   -1.012423919026e-15
    19   -6.891955728324e-01
    20   -2.144770907090e-15
    21   -1.794896337451e-14
    22   -7.902318760679e-16
    23    9.884541371849e-01
    24    4.933888781866e-16
    25    4.003335675139e-15
    26    2.242632856767e-15
    27    7.693985643712e-16
    28   -3.341960979185e-02
    29    3.550957179081e-16
    30   -4.558195876283e-02
    31   -4.402120483228e-16
    32   -4.248890616980e-15
    33    1.694435058049e-15
    34   -6.891955728324e-01
    35    2.940874854401e-15
    36    1.524671704455e-14
    37   -6.768550788104e-15
    38    9.884541371849e-01
    39   -8.469453970149e-16
    40   -2.888747196936e-15
    41   -9.775509151092e-16
    42   -5.295369142903e-16
    43    3.341960979185e-02
    44   -3.241371773061e-16
    45   -4.558195876283e-02
Sym=X
Ene= 1.886855
Spin=Alpha
Occup=0
     1    3.546994003236e-02
     2    6.148736737769e-02
     3    5.571570858963e-15
     4    8.789908313565e-16
     5   -1.563587593006e-01
     6    3.611918965895e+00
     7   -1.643320030624e-13
     8   -9.065896882612e-17
     9   -1.120502806104e+00
    10    2.395781597057e-01
    11    1.995535416636e-01
    12   -3.885714492890e-01
    13   -5.221287073804e-15
    14    1.515463193407e-14
    15    4.330610224447e-15
    16    7.623367160299e-02
    17    1.083211556006e+00
    18    1.939856897477e-01
    19   -7.122117631731e-16
    20   -7.492390275107e-02
    21   -3.451593141251e+00
    22   -1.295862317376e+00
    23   -3.611002421528e-16
    24   -1.430354058807e-01
    25    2.974713760476e-01
    26    4.494316705552e-01
    27    1.622391070804e-01
    28   -2.562880187704e-15
    29    1.373996110828e-01
    30    5.895444321381e-16
    31    7.623367160299e-02
    32    1.083211556006e+00
    33   -1.939856897477e-01
    34    3.249637887809e-15
    35   -7.492390275111e-02
    36   -3.451593141251e+00
    37    1.295862317376e+00
    38   -1.426913301293e-15
    39   -1.430354058806e-01
    40    2.974713760476e-01
    41    4.494316705552e-01
    42    1.622391070803e-01
    43    5.087937511651e-16
    44   -1.373996110829e-01
    45    7.176512183616e-16
Sym=X
Ene= 1.990234
Spin=Alpha
Occup=0
     1   -2.978558102442e-16
     2   -6.802429894969e-16
     3    1.262242497287e-15
     4    8.774302158083e-16
     5   -1.351506432455e-15
     6   -3.380432715405e-15
     7   -1.805222198172e-14
     8   -4.780700460243e-15
     9    5.046486202252e-15
    10   -9.523128418657e-16
    11    4.466859456778e-15
    12   -6.420874617842e-15
    13    5.710324113261e-01
    14   -9.332186299925e-16
    15   -6.008522593946e-15
    16    2.216620841518e-16
    17    1.131652620685e-14
    18    2.467451633128e-15
    19    1.603742765223e-01
    20    1.461750479071e-15
    21   -2.583144237204e-14
    22   -4.876729909085e-15
    23    3.355755990712e-02
    24   -6.266736608901e-15
    25    1.012397865921e-15
    26    5.018707538673e-15
    27    1.933004061454e-15
    28   -3.406218299679e-01
    29    5.821381166384e-15
    30   -2.393220960626e-01
    31   -5.319705909209e-16
    32   -1.105627659249e-14
    33    5.050772113503e-15
    34   -1.603742765223e-01
    35    7.168854775417e-16
    36    3.232585717304e-14
    37   -1.290395429507e-14
    38   -3.355755990712e-02
    39    1.594038352667e-15
    40   -2.899352618785e-15
    41   -2.416069920940e-15
    42   -2.849720277253e-15
    43   -3.406218299679e-01
    44    1.280917461284e-15
    45    2.393220960626e-01
Sym=X
Ene= 2.022994
Spin=Alpha
Occup=0
     1   -6.036003254343e-17
     2    3.391517572076e-16
     3    6.372749711633e-15
     4    1.551012290049e-01
     5    2.841236115379e-15
     6   -1.279555843010e-14
     7    2.932155927502e-13
     8   -1.689617878666e-01
     9    4.415511288467e-15
    10   -2.078805195229e-15
    11   -2.983535755386e-15
    12    3.730894784096e-15
    13   -5.019064374096e-16
    14   -1.552185492052e-14
    15    7.209467485029e-01
    16   -7.211757197289e-15
    17   -1.285511524933e-13
    18   -1.979000270577e-14
    19    9.666503624190e-03
    20   -2.209416477989e-14
    21    4.095295499994e-13
    22    1.046078170224e-13
    23    1.204347905491e-01
    24    8.248838691153e-14
    25   -3.788400035621e-14
    26   -1.688327675092e-14
    27   -4.194836453677e-14
    28   -2.890979714070e-01
    29   -1.079739915153e-14
    30    2.686164099234e-01
    31    7.097406223368e-15
    32    1.224402240013e-13
    33   -1.963622198602e-14
    34    9.666503624185e-03
    35    2.425525027354e-14
    36   -3.902769841552e-13
    37    9.520090568631e-14
    38    1.204347905491e-01
    39   -8.275242165683e-14
    40    4.230038553341e-14
    41    1.312035849731e-14
    42    4.146905971490e-14
    43    2.890979714070e-01
    44   -4.826640626822e-15
    45    2.686164099234e-01
Sym=X
Ene= 2.052243
Spin=Alpha
Occup=0
     1   -1.623488279705e-14
     2    7.931237927459e-15
     3    8.721918477992e-02
     4   -1.519088848075e-14
     5   -7.430463392128e-14
     6   -1.384658348149e-12
     7    3.108360895392e+00
     8    1.288055800351e-14
     9    5.596533803270e-13
    10   -3.872383063380e-14
    11    3.791317151282e-13
    12   -3.774077168392e-13
    13    5.109327042798e-15
    14   -1.957858112895e-01
    15   -7.027441364820e-14
    16   -7.356258073749e-02
    17   -1.288152095103e+00
    18   -1.820212434455e-01
    19   -3.081981588366e-15
    20   -2.569151752190e-01
    21    4.161282576995e+00
    22    1.034477602347e+00
    23   -6.319358789075e-15
    24    8.881411134535e-01
    25   -4.203051800084e-01
    26   -1.725313463674e-01
    27   -3.738652563968e-01
    28    2.550957221970e-14
    29   -8.629673369070e-02
    30   -2.454954731341e-14
    31    7.356258073744e-02
    32    1.288152095102e+00
    33   -1.820212434453e-01
    34   -4.735154497460e-15
    35    2.569151752191e-01
    36   -4.161282576992e+00
    37    1.034477602346e+00
    38   -8.151237707445e-15
    39   -8.881411134535e-01
    40    4.203051800080e-01
    41    1.725313463675e-01
    42    3.738652563966e-01
    43   -3.308971563393e-14
    44   -8.629673369105e-02
    45   -2.530219007118e-14
Sym=X
Ene= 2.075533
Spin=Alpha
Occup=0
     1    2.440048731599e-02
     2   -1.499762968777e-02
     3    5.606637683484e-14
     4   -1.321852380492e-15
     5    1.073322628450e-01
     6    2.300950781554e+00
     7    2.099674328439e-12
     8    4.369716398407e-16
     9   -9.058581879570e-01
    10    5.737820275094e-02
    11   -5.309677543675e-01
    12    5.207383485642e-01
    13    3.748799489037e-15
    14   -1.302116505081e-13
    15   -2.978778264632e-15
    16    3.673258668225e-02
    17    6.873635453408e-01
    18    1.301231490946e-01
    19   -1.565414389207e-16
    20    2.124906799996e-04
    21   -2.121252320939e+00
    22   -8.520922261440e-01
    23    1.019646274065e-15
    24    2.640053905960e-02
    25    3.599510790702e-01
    26   -8.631001535736e-02
    27    1.911173937957e-01
    28   -2.056550285399e-15
    29   -2.468229582949e-01
    30   -2.902277152418e-15
    31    3.673258668234e-02
    32    6.873635453425e-01
    33   -1.301231490949e-01
    34   -2.482909103949e-15
    35    2.124906803369e-04
    36   -2.121252320945e+00
    37    8.520922261454e-01
    38    9.957809469245e-16
    39    2.640053905842e-02
    40    3.599510790707e-01
    41   -8.631001535712e-02
    42    1.911173937962e-01
    43   -5.152880664833e-15
    44    2.468229582948e-01
    45   -1.840816862356e-15
Sym=X
Ene= 2.296286
Spin=Alpha
Occup=0
     1    6.267601371508e-16
     2    5.557257529905e-17
     3    2.242669728588e-01
     4    5.184670961143e-15
     5    5.375544456582e-15
     6   -2.166498941627e-14
     7    9.707438920054e-01
     8   -1.205294068149e-16
     9    8.448100125605e-15
    10   -8.195687711688e-15
    11    8.528125331032e-15
    12   -1.141765312028e-15
    13   -3.842864732017e-16
    14   -4.202733509061e-01
    15    9.409315614388e-15
    16   -2.398639668287e-02
    17   -6.042328325702e-02
    18    2.960800584393e-01
    19    1.453018242494e-15
    20   -5.642624105813e-02
    21    8.702862946697e-01
    22    2.594489229707e-02
    23   -1.782509163782e-15
    24    2.344747549744e-01
    25   -2.337805444219e-01
    26   -3.631157733864e-01
    27    5.353842529714e-01
    28   -2.573760219662e-14
    29    7.757317512064e-02
    30    2.817181190033e-14
    31    2.398639668287e-02
    32    6.042328325702e-02
    33    2.960800584393e-01
    34   -1.958431649084e-15
    35    5.642624105813e-02
    36   -8.702862946697e-01
    37    2.594489229706e-02
    38    2.519040072942e-15
    39   -2.344747549744e-01
    40    2.337805444219e-01
    41    3.631157733864e-01
    42   -5.353842529714e-01
    43   -1.434786391714e-14
    44    7.757317512065e-02
    45   -3.969582883374e-14
Sym=X
Ene= 2.368516
Spin=Alpha
Occup=0
     1   -1.273356160840e-15
     2   -2.157731444378e-15
     3   -2.537468632000e-14
     4    1.391777209112e-15
     5   -8.217998601010e-15
     6    2.338837730236e-14
     7   -8.882054713747e-14
     8   -1.971062455349e-15
     9   -9.651515105552e-15
    10    6.273925170198e-15
    11    4.725123558754e-16
    12   -1.094267570161e-14
    13   -4.084058259200e-03
    14    3.955077594048e-14
    15    8.719531609642e-15
    16    2.758132439746e-15
    17    1.487979959066e-15
    18   -3.487749953162e-14
    19    3.342843110734e-02
    20    1.710411568545e-15
    21   -8.803909308856e-14
    22   -2.089611141120e-15
    23   -3.922234415234e-02
    24   -2.002669005052e-14
    25    2.812567996475e-14
    26   -2.407039954140e-14
    27    3.381459834992e-16
    28   -3.806036020425e-01
    29   -3.193702379048e-14
    30    5.968649437863e-01
    31   -2.247191003148e-15
    32    1.248159445556e-15
    33   -2.635375094205e-14
    34   -3.342843110734e-02
    35   -1.199868824411e-14
    36    6.137138899706e-14
    37    5.099093076608e-15
    38    3.922234415234e-02
    39    2.887188589036e-14
    40   -3.634598078711e-14
    41   -4.822851045589e-15
    42    3.441124488699e-14
    43   -3.806036020425e-01
    44   -3.914408752521e-14
    45   -5.968649437863e-01

======= END OF MOLDEN-FORMATTED INPUT FILE =======


        *************************************************************
        *                                                           *
        *  Thank you very much for using Q-Chem.  Have a nice day.  *
        *                                                           *
        *************************************************************


