                  Welcome to Q-Chem
     A Quantum Leap Into The Future Of Chemistry
m

 Q-Chem 6.0 (devel), Q-Chem, Inc., Pleasanton, CA (2022)

 E. Epifanovsky,  A. T. B. Gilbert,  Xintian Feng,  Joonho Lee,  Yuezhi Mao,  
 N. Mardirossian,  P. Pokhilko,  A. White,  M. Wormit,  M. P. Coons,  
 A. L. Dempwolff,  Zhengting Gan,  D. Hait,  P. R. Horn,  L. D. Jacobson,  
 I. Kaliman,  J. Kussmann,  A. W. Lange,  Ka Un Lao,  D. S. Levine,  Jie Liu,  
 S. C. McKenzie,  A. F. Morrison,  K. Nanda,  F. Plasser,  D. R. Rehn,  
 M. L. Vidal,  Zhi-Qiang You,  Ying Zhu,  B. Alam,  B. Albrecht,  
 A. Aldossary,  E. Alguire,  J. H. Andersen,  V. Athavale,  D. Barton,  
 K. Begam,  A. Behn,  N. Bellonzi,  Y. A. Bernard,  E. J. Berquist,  
 H. Burton,  A. Carreras,  K. Carter-Fenk,  Romit Chakraborty,  
 Chandrima Chakravarty,  Junhan Chen,  A. D. Chien,  K. D. Closser,  
 V. Cofer-Shabica,  L. Cunha,  S. Dasgupta,  Jia Deng,  M. de Wergifosse,  
 M. Diedenhofen,  Hainam Do,  S. Ehlert,  Po-Tung Fang,  S. Fatehi,  
 Qingguo Feng,  T. Friedhoff,  B. Ganoe,  J. Gayvert,  Qinghui Ge,  
 G. Gidofalvi,  M. Goldey,  J. Gomes,  C. Gonzalez-Espinoza,  S. Gulania,  
 A. Gunina,  J. A. Gyamfi,  M. W. D. Hanson-Heine,  P. H. P. Harbach,  
 A. W. Hauser,  M. F. Herbst,  M. Hernandez Vera,  M. Hodecker,  
 Z. C. Holden,  S. Houck,  Xunkun Huang,  Kerwin Hui,  B. C. Huynh,  
 K. Ikeda,  M. Ivanov,  Hyunjun Ji,  Zuxin Jin,  Hanjie Jiang,  B. Kaduk,  
 S. Kaehler,  R. Kang,  K. Khistyaev,  Jaehoon Kim,  Yongbin Kim,  
 P. Klunzinger,  Z. Koczor-Benda,  Joong Hoon Koh,  D. Kosenkov,  
 Saikiran Kotaru,  L. Koulias,  T. Kowalczyk,  C. M. Krauter,  K. Kue,  
 A. Kunitsa,  T. Kus,  A. Landau,  K. V. Lawler,  D. Lefrancois,  S. Lehtola,  
 Rain Li,  Shaozhi Li,  Yi-Pei Li,  Jiashu Liang,  M. Liebenthal,  
 Hung-Hsuan Lin,  You-Sheng Lin,  Fenglai Liu,  Kuan-Yu Liu,  
 M. Loipersberger,  A. Luenser,  C. Malbon,  A. Manjanath,  P. Manohar,  
 E. Mansoor,  S. F. Manzer,  Shan-Ping Mao,  A. V. Marenich,  T. Markovich,  
 S. Mason,  F. Matz,  S. A. Maurer,  P. F. McLaughlin,  M. F. S. J. Menger,  
 J.-M. Mewes,  S. A. Mewes,  P. Morgante,  Mohammad Mostafanejad,  
 J. W. Mullinax,  K. J. Oosterbaan,  G. Paran,  V. Parravicini,  
 Alexander C. Paul,  Suranjan K. Paul,  F. Pavosevic,  Zheng Pei,  S. Prager,  
 E. I. Proynov,  E. Ramos,  B. Rana,  A. E. Rask,  A. Rettig,  R. M. Richard,  
 F. Rob,  E. Rossomme,  T. Scheele,  M. Scheurer,  M. Schneider,  
 P. E. Schneider,  N. Sergueev,  S. M. Sharada,  Hengyuan Shen,  
 W. Skomorowski,  D. W. Small,  C. J. Stein,  Yingli Su,  Yu-Chuan Su,  
 E. J. Sundstrom,  Zhen Tao,  J. Thirman,  Hung-Yi Tsai,  T. Tsuchimochi,  
 N. M. Tubman,  C. Utku,  S. P. Veccham,  O. Vydrov,  J. Wenzel,  
 Jonathan Wong,  J. Witte,  A. Yamada,  Chou-Hsun Yang,  Kun Yao,  
 S. Yeganeh,  S. R. Yost,  A. Zech,  F. Zeller,  Igor Ying Zhang,  
 Xing Zhang,  Yu Zhang,  D. Zuev,  A. Aspuru-Guzik,  A. T. Bell,  
 N. A. Besley,  K. B. Bravaya,  B. R. Brooks,  D. Casanova,  Jeng-Da Chai,  
 Hsing-Ta Chen,  S. Coriani,  C. J. Cramer,  A. E. DePrince, III,  
 R. A. DiStasio Jr.,  A. Dreuw,  B. D. Dunietz,  T. R. Furlani,  
 W. A. Goddard III,  S. Grimme,  S. Hammes-Schiffer,  T. Head-Gordon,  
 W. J. Hehre,  Chao-Ping Hsu,  T.-C. Jagau,  Yousung Jung,  A. Klamt,  
 Jing Kong,  D. S. Lambrecht,  Xiangyuan Li,  WanZhen Liang,  N. J. Mayhall,  
 C. W. McCurdy,  J. B. Neaton,  T. Neudecker,  C. Ochsenfeld,  
 J. A. Parkhill,  R. Peverati,  V. A. Rassolov,  Haisheng Ren,  Yihan Shao,  
 L. V. Slipchenko,  R. P. Steele,  J. E. Subotnik,  A. J. W. Thom,  
 A. Tkatchenko,  D. G. Truhlar,  T. Van Voorhis,  Fan Wang,  
 T. A. Wesolowski,  K. B. Whaley,  H. L. Woodcock III,  P. M. Zimmerman,  
 S. Faraji,  P. M. W. Gill,  M. Head-Gordon,  J. M. Herbert,  A. I. Krylov

 Contributors to earlier versions of Q-Chem not listed above: 
 R. D. Adamson,  B. Austin,  R. Baer,  J. Baker,  G. J. O. Beran,  
 K. Brandhorst,  S. T. Brown,  E. F. C. Byrd,  Arup K. Chakraborty,  
 G. K. L. Chan,  Chun-Min Chang,  Yunqing Chen,  C.-L. Cheng,  
 Siu Hung Chien,  D. M. Chipman,  D. L. Crittenden,  H. Dachsel,  
 R. J. Doerksen,  A. D. Dutoi,  R. G. Edgar,  J. Fosso-Tande,  
 L. Fusti-Molnar,  D. Ghosh,  A. Ghysels,  A. Golubeva-Zadorozhnaya,  
 J. Gonthier,  M. S. Gordon,  S. R. Gwaltney,  G. Hawkins,  J. E. Herr,  
 A. Heyden,  S. Hirata,  E. G. Hohenstein,  G. Kedziora,  F. J. Keil,  
 C. Kelley,  Jihan Kim,  R. A. King,  R. Z. Khaliullin,  P. P. Korambath,  
 W. Kurlancheek,  A. Laurent,  A. M. Lee,  M. S. Lee,  S. V. Levchenko,  
 Ching Yeh Lin,  D. Liotard,  E. Livshits,  R. C. Lochan,  I. Lotan,  
 L. A. Martinez-Martinez,  P. E. Maslen,  N. Nair,  D. P. O'Neill,  
 D. Neuhauser,  E. Neuscamman,  C. M. Oana,  R. Olivares-Amaya,  R. Olson,  
 T. M. Perrine,  B. Peters,  P. A. Pieniazek,  A. Prociuk,  Y. M. Rhee,  
 J. Ritchie,  M. A. Rohrdanz,  E. Rosta,  N. J. Russ,  H. F. Schaefer III,  
 M. W. Schmidt,  N. E. Schultz,  S. Sharma,  N. Shenvi,  C. D. Sherrill,  
 A. C. Simmonett,  A. Sodt,  T. Stein,  D. Stuck,  K. S. Thanthiriwatte,  
 V. Vanovschi,  L. Vogt,  Tao Wang,  A. Warshel,  M. A. Watson,  
 C. F. Williams,  Q. Wu,  X. Xu,  Jun Yang,  W. Zhang,  Yan Zhao

   Please cite Q-Chem as follows:
  "Software for the frontiers of quantum chemistry:
   An overview of developments in the Q-Chem 5 package"
   J. Chem. Phys. 155, 084801 (2021)
   https://doi.org/10.1063/5.0055522 (open access)

 Q-Chem 6.0.1 for Intel X86 EM64T Linux

 Parts of Q-Chem use Armadillo 9.900.5 (Nocturnal Misbehaviour).
 http://arma.sourceforge.net/

 Q-Chem begins on Thu Dec 22 19:38:29 2022  

 Host: atlas-197
0

     Scratch files written to ./qchem354081//
 Processing $rem in /scratch/abel/SOFTWARE/qchem/config/preferences:
 Processing $rem in /dipc/acebg/.qchemrc:

 Checking the input file for inconsistencies... 	...done.

--------------------------------------------------------------
User input:
--------------------------------------------------------------
$comment
 RAS-SF CALCULATION
$end

$molecule
 READ mncn5no_2-.molecule 
$end

$rem
!**CALCULATION TYPE***
JOBTYPE            sp
EXCHANGE           HF
CORRELATION        RASCI    !RASCI=Casanova; RASCI2=Zimmerman
BASIS              def2-TZVP
BASIS2             STO-3G

!***SCF REFERENCE***
SKIP_SCFMAN        FALSE
UNRESTRICTED       FALSE
!SCF_GUESS          read
!SCF_GUESS_MIX      FALSE
!SCF_GUESS_ALWAYS   FALSE
MAX_SCF_CYCLES     500
SCF_CONVERGENCE    8
!SCF_ALGORITHM      DIIS !DIIS,DM,DIIS_DM,GDM,DIIS_GDM,GD

SYMMETRY           TRUE !use of symmetry for calculating integrals
SYM_IGNORE         FALSE !turn off using symmetry
SYM_TOL            5 !tolerance for determining point group

!THRESH             14
SCF_FINAL_PRINT     1 !0,1,2,3

!****RAS-SF****
RAS_ROOTS          10       !number of RAS-CI roots to be computed
SET_ITER           150     !number of iterations in RASCI
RAS_ELEC           7       !number of electrons in RAS2
!RAS_ELEC_ALPHA            !spin-α electrons in RAS2
!RAS_ELEC_BETA             !spin-β electrons in RAS2

RAS_ACT            7       !number of orbitals in RAS2
RAS_ACT_ORB    [51,52,53,54,55,56,57]  !user-selected RAS2 orbitals
RAS_OCC            50       !number of orbitals in RAS1
N_FROZEN_CORE      35     !Number of frozen core orbitals
N_FROZEN_VIRTUAL   320      !Number of frozen virtual orbitals
RAS_NATORB         TRUE    !computation of the natural orbital occupancies
!RAS_NATORB_STATE  0      !Saves NO of i RAS computed state in .fchk ﬁle

RAS_DO_HOLE        TRUE   !presence of hole excitations in RAS-CI wave function
RAS_DO_PART        TRUE   !presence of particle excitations
RAS_AMPL_PRINT     10     !threshold (×10 2 ) for the CI amplitudes

RAS_GUESS_CS       0      !number of closed shell guess conﬁgurations
RAS_SPIN_MULT      0      !spin multiplicity: 0=any, 2n+1=defined
RAS_SRDFT          FALSE  !short-range density functional RAS-CI
RAS_NFRAG          0     !fragments of excitation analysis in RASCI

RAS_PRINT          2      !level of information
RAS_NATORB         TRUE   !computation of the natural orbital occupancies
!RAS_NATORB_STATE  0      !Saves NO of i RAS computed state in .fchk ﬁle
RAS_FOD            TRUE

!****RAS-SOC****
CALC_SOC           TRUE   !calculate SOC for EOM-CC, RAS-CI, ADC, TDDFT/TDA and TDDFT
!RAS_SOC_2E        TRUE   !two-electron mean-ﬁeld contribution, default=true
RAS_SOC_SYM_DENS   TRUE   !averaging of α and β densities

!****MEMORY****
MEM_TOTAL          60000 !Default 2000 MB
MEM_STATIC         16000  !Default 64 MB

!**Molecular Properties and Analysis **
GUI                2
STATE_ANALYSIS     TRUE
MOLDEN_FORMAT      TRUE
PRINT_ORBITALS     20
$end

--------------------------------------------------------------
 ----------------------------------------------------------------
             Standard Nuclear Orientation (Angstroms)
    I     Atom           X                Y                Z
 ----------------------------------------------------------------
    1      Mn      0.0000000000     0.0000000000     0.1157786495
    2      C       1.9695731070    -0.0000000000    -0.0682623505
    3      N       3.1365373081    -0.0000000000    -0.1732398505
    4      N       0.0000000000     0.0000000000     1.7907724495
    5      C      -0.0000000000    -1.9695731070    -0.0682623505
    6      N      -0.0000000000    -3.1365373081    -0.1732398505
    7      C       0.0000000000     1.9695731070    -0.0682623505
    8      N       0.0000000000     3.1365373081    -0.1732398505
    9      C       0.0000000000     0.0000000000    -1.8704679505
   10      N       0.0000000000     0.0000000000    -3.0413905505
   11      C      -1.9695731070     0.0000000000    -0.0682623505
   12      N      -3.1365373081     0.0000000000    -0.1732398505
   13      O       0.0000000000     0.0000000000     2.9464600495
 ----------------------------------------------------------------
 Molecular Point Group                 C2v   NOp =  4
 Largest Abelian Subgroup              C2v   NOp =  4
 Nuclear Repulsion Energy =         934.97505434 hartrees
 There are       56 alpha and       51 beta electrons
 Requested basis set is def2-TZVP
 There are 147 shells and 417 basis functions

 Q-Chem warning in module libmdc/get_mega.C, line 167:

 Allowed MEM_STATIC has been capped at MEM_STATIC=8191.
 Reduce the value of MEM_STATIC to silence this warning.


 Total QAlloc Memory Limit  60000 MB
 Mega-Array Size      8007 MB
 MEM_STATIC part      8191 MB


                       Distance Matrix (Angstroms)
             Mn(  1)   C (  2)   N (  3)   N (  4)   C (  5)   N (  6)
   C (  2)  1.978153
   N (  3)  3.149825  1.171676
   N (  4)  1.674994  2.708363  3.700704
   C (  5)  1.978153  2.785397  3.705146  2.708363
   N (  6)  3.149825  3.705146  4.435734  3.700704  1.171676
   C (  7)  1.978153  2.785397  3.705146  2.708363  3.939146  5.107189
   N (  8)  3.149825  3.705146  4.435734  3.700704  5.107189  6.273075
   C (  9)  1.986247  2.669675  3.566294  3.661240  2.669675  3.566294
   N ( 10)  3.157169  3.566330  4.250195  4.832163  3.566330  4.250195
   C ( 11)  1.978153  3.939146  5.107189  2.708363  2.785397  3.705146
   N ( 12)  3.149825  5.107189  6.273075  3.700704  3.705146  4.435734
   O ( 13)  2.830681  3.601079  4.423844  1.155688  3.601079  4.423844
             C (  7)   N (  8)   C (  9)   N ( 10)   C ( 11)   N ( 12)
   N (  8)  1.171676
   C (  9)  2.669675  3.566294
   N ( 10)  3.566330  4.250195  1.170923
   C ( 11)  2.785397  3.705146  2.669675  3.566330
   N ( 12)  3.705146  4.435734  3.566294  4.250195  1.171676
   O ( 13)  3.601079  4.423844  4.816928  5.987851  3.601079  4.423844

 
 A cutoff of  1.0D-12 yielded   9054 shell pairs
 There are     74564 function pairs (     99797 Cartesian)
 Smallest overlap matrix eigenvalue = 4.95E-05

 Scale SEOQF with 1.000000e-01/1.000000e-01/1.000000e-01

 Standard Electronic Orientation quadrupole field applied
 Nucleus-field energy     =     0.0000000006 hartrees
 Requested basis set is STO-3G
 There are 29 shells and 78 basis functions
 A cutoff of  1.0D-12 yielded    343 shell pairs
 There are      3029 function pairs (      3113 Cartesian)
 Smallest overlap matrix eigenvalue = 1.36E-01
 Constructing guess Fock matrix from core Hamiltonian
 Applying Wolfsberg-Helmholtz approximation
 A restricted Hartree-Fock SCF calculation will be
 performed using Geometric Direct Minimization
 SCF converges when RMS gradient is below 1.0E-04
 ---------------------------------------
  Cycle       Energy        RMS Gradient
 ---------------------------------------
    1   -1693.8561359931      4.05E+00 Descent step
    2   -1696.2896648677      1.15E+04 Line search: understep
    3   -1706.2408002432      1.76E+00 Descent step
    4   -1707.6530335823      6.04E+03 Line search: understep
    5   -1712.1680060702      2.16E+00 Descent step
    6   -1713.6478096777      1.31E+00 Descent step
    7   -1714.8062561520      1.65E+00 Descent step
    8   -1715.8075418148      1.44E+00 Descent step
    9   -1716.6130913451      9.04E-01 Descent step
   10   -1717.2030391651      8.08E-01 Descent step
   11   -1717.7149287687      6.96E-01 Descent step
   12   -1718.1016233124      5.28E-01 Descent step
   13   -1718.3971375979      4.30E-01 Descent step
   14   -1718.4906389476      8.54E-01 Descent step
   15   -1718.4886703025      9.13E+01 Line search: overstep
   16   -1718.6346918573      2.03E-01 Descent step
   17   -1718.6875927100      2.00E-01 Descent step
   18   -1718.7609994704      9.14E-01 Descent step
   19   -1718.7817820063      7.13E-01 Descent step
   20   -1718.9991379332      5.15E-01 Descent step
   21   -1719.3534928467      9.88E-01 Descent step
   22   -1719.6885909499      4.05E-01 Descent step
   23   -1719.8138508432      1.64E-01 Dog-leg BFGS step
   24   -1719.8371156889      9.29E-02 Dog-leg BFGS step
   25   -1719.8284856562      1.01E+01 Line search: overstep
   26   -1719.8555344732      3.94E-02 Descent step
   27   -1719.8585058269      4.81E-02 Normal BFGS step
   28   -1719.8616702528      2.67E-02 Normal BFGS step
   29   -1719.8569767908      7.76E+00 Line search: overstep
   30   -1719.8622194228      2.09E-02 Normal BFGS step
   31   -1719.8632717705      1.52E-02 Normal BFGS step
   32   -1719.8640257760      7.07E-03 Normal BFGS step
   33   -1719.8641808887      4.96E-03 Normal BFGS step
   34   -1719.8642509974      2.58E-03 Normal BFGS step
   35   -1719.8642737827      1.01E-03 Normal BFGS step
   36   -1719.8642785492      3.32E-04 Normal BFGS step
   37   -1719.8642799614      1.53E-04 Normal BFGS step
   38   -1719.8642802079      2.34E-04 Normal BFGS step
   39   -1719.8642803472      4.63E-04 Normal BFGS step
   40   -1719.8642871844      1.82E-01 Line search: understep
   41   -1719.8647347174      1.83E+00 Line search: understep
   GDM::BFGS:   rebuilding Hinv to be positive definite
   42   -1719.8886994909      8.82E-01 Descent step
   43   -1720.1973925838      4.33E-01 Descent step
   44   -1720.3248116449      1.38E-01 Descent step
   45   -1720.3648067359      1.37E-01 Dog-leg BFGS step
   46   -1720.3385715038      2.76E-01 Line search: overstep
   47   -1720.3846591983      5.27E-02 Dog-leg BFGS step
   48   -1720.3932678867      7.81E-02 Dog-leg BFGS step
   GDM::BFGS:   rebuilding Hinv to be positive definite
   49   -1720.4105308436      2.52E-01 Descent step
   GDM::BFGS:   rebuilding Hinv to be positive definite
   50   -1720.5030895615      3.65E-01 Descent step
   51   -1720.6360168500      2.51E-01 Descent step
   52   -1720.6603742200      3.78E-01 Descent step
   53   -1720.6330996271      1.69E-01 Line search: overstep
   54   -1720.6933511888      3.10E-02 Dog-leg BFGS step
   55   -1720.6911924263      8.64E-01 Line search: overstep
   56   -1720.6943065653      2.73E-02 Descent step
   57   -1720.6949980426      1.88E-02 Normal BFGS step
   58   -1720.6940259375      3.63E-01 Line search: overstep
   59   -1720.6951738181      1.25E-02 Dog-leg BFGS step
   60   -1720.6907883625      9.52E-01 Line search: overstep
   61   -1720.6953213843      7.53E-03 Normal BFGS step
   62   -1720.6953276561      1.32E-02 Normal BFGS step
   63   -1720.6954904155      5.10E-03 Normal BFGS step
   64   -1720.6954939522      5.16E-03 Normal BFGS step
   65   -1720.6955220360      1.54E-03 Normal BFGS step
   66   -1720.6955223693      1.72E-03 Normal BFGS step
   67   -1720.6955253772      3.25E-04 Normal BFGS step
   68   -1720.6955253927      3.58E-04 Normal BFGS step
   69   -1720.6955255808      6.71E-05 Convergence criterion met
 ---------------------------------------
 One-Electron    Energy = -4259.4016602285
 Total Coulomb   Energy =  1729.1951165455
 Alpha Exchange  Energy =   -65.0395427998
 Beta  Exchange  Energy =   -60.4244934377
 DFT   Exchange  Energy =     0.0000000000
 DFT Correlation Energy =     0.0000000000
 Nuclear Repu.   Energy =   934.9750543397
 Nuclear Attr.   Energy = -5972.3516984238
 Kinetic         Energy =  1712.9500381953
 SCF time:  CPU 32.84 s  wall 46.12 s
 SCF   energy in the small basis set = -1720.69552558
 Total energy in the small basis set = -1720.69552558
 ----------------------------------------------------
  Cycle       Energy    
 ----------------------------------------------------
    1    -114.7154918907     -1.15E+02
 A restricted Hartree-Fock SCF calculation will be
 performed using Geometric Direct Minimization
 SCF converges when RMS gradient is below 1.0E-08
 ---------------------------------------
  Cycle       Energy        RMS Gradient
 ---------------------------------------
    1   -1730.8922565832      3.38E+00 Descent step
    2   -1732.1037761312      1.32E+00 Descent step
    3   -1734.0686188572      1.34E+00 Descent step
    4   -1735.7175203597      1.44E+00 Descent step
    5   -1737.0523104619      2.94E+00 Descent step
    6   -1738.0919347943      1.17E+00 Descent step
    7   -1738.7450254199      3.16E-01 Descent step
    8   -1739.1475572863      2.84E-01 Descent step
    9   -1739.4617661777      2.04E-01 Descent step
   10   -1739.6869038111      1.69E-01 Descent step
   11   -1739.8588840687      3.00E-01 Descent step
   GDM::BFGS:   rebuilding Hinv to be positive definite
   12   -1740.0574759611      2.26E-01 Descent step
   13   -1740.2126978793      1.43E-01 Descent step
   14   -1740.2847760138      1.12E-01 Dog-leg BFGS step
   15   -1740.2492007659      5.94E-02 Line search: overstep
   16   -1740.3036000934      6.92E-02 Descent step
   17   -1740.3114400726      6.39E-02 Dog-leg BFGS step
   18   -1740.2735652346      1.16E-01 Line search: overstep
   19   -1740.3149905187      2.45E-02 Dog-leg BFGS step
   20   -1740.3199236773      3.77E-02 Dog-leg BFGS step
   21   -1740.3154547864      8.31E-02 Line search: overstep
   22   -1740.3220721424      2.19E-02 Descent step
   23   -1740.3230978855      1.39E-02 Dog-leg BFGS step
   24   -1740.2979804441      3.22E-02 Line search: overstep
   25   -1740.3239499717      8.78E-03 Dog-leg BFGS step
   26   -1740.3149907201      6.74E-02 Line search: overstep
   27   -1740.3240392680      1.13E-02 Dog-leg BFGS step
   28   -1740.3240219250      3.60E-03 Line search: overstep
   29   -1740.3243033542      5.45E-03 Descent step
   30   -1740.3244216781      6.11E-03 Normal BFGS step
   31   -1740.3244500727      1.06E-02 Normal BFGS step
   32   -1740.3241570740      1.16E-02 Line search: overstep
   33   -1740.3245827249      2.44E-03 Normal BFGS step
   34   -1740.3246233088      1.72E-03 Normal BFGS step
   35   -1740.3246320147      7.56E-04 Normal BFGS step
   36   -1740.3246357440      2.75E-04 Normal BFGS step
   37   -1740.3246361227      1.85E-04 Normal BFGS step
   38   -1740.3246362109      4.47E-05 Normal BFGS step
   39   -1740.3246362417      4.07E-05 Normal BFGS step
   40   -1740.3246362474      2.36E-05 Normal BFGS step
   41   -1740.3246362495      2.12E-05 Normal BFGS step
   42   -1740.3246362532      3.64E-05 Normal BFGS step
   43   -1740.3246364364      1.56E-04 Line search: understep
   44   -1740.3246471886      1.55E-03 Line search: understep
   GDM::BFGS:   rebuilding Hinv to be positive definite
   45   -1740.3256219644      4.21E-02 Normal BFGS step
   46   -1740.3210928750      3.26E-02 Line search: overstep
   47   -1740.3265674709      3.45E-02 Normal BFGS step
   48   -1740.3302553830      3.79E-02 Dog-leg BFGS step
   GDM::BFGS:   rebuilding Hinv to be positive definite
   49   -1740.3542009667      6.99E-02 Dog-leg BFGS step
   50   -1740.4022384415      1.63E-01 Descent step
   51   -1740.4078217500      2.62E-01 Descent step
   52   -1740.4091722332      2.59E-01 Descent step
   53   -1740.4863443179      2.66E-01 Descent step
   54   -1740.4893650928      1.79E-01 Descent step
   55   -1740.5422793242      2.78E-01 Descent step
   56   -1740.5447842780      1.94E-01 Descent step
   57   -1740.5830072110      2.31E-01 Descent step
   58   -1740.5690339348      1.78E-01 Line search: overstep
   59   -1740.6188378118      7.90E-02 Descent step
   60   -1740.6316410303      6.22E-02 Dog-leg BFGS step
   61   -1740.5767356674      4.06E-02 Line search: overstep
   62   -1740.6331814265      5.35E-02 Descent step
   63   -1740.6405173224      5.12E-02 Dog-leg BFGS step
   64   -1740.5599180921      6.09E-02 Line search: overstep
   65   -1740.6416345065      3.83E-02 Dog-leg BFGS step
   66   -1740.6414290605      1.56E-02 Line search: overstep
   67   -1740.6444649838      3.07E-02 Descent step
   68   -1740.6460865710      2.88E-02 Normal BFGS step
   69   -1740.6491734524      2.02E-02 Normal BFGS step
   70   -1740.6487575170      9.52E-03 Line search: overstep
   71   -1740.6498673105      1.38E-02 Normal BFGS step
   72   -1740.6502976342      5.90E-03 Normal BFGS step
   73   -1740.6503675377      3.49E-03 Normal BFGS step
   74   -1740.6503871678      1.62E-03 Normal BFGS step
   75   -1740.6503932926      1.07E-03 Normal BFGS step
   76   -1740.6503961283      8.32E-04 Normal BFGS step
   77   -1740.6503992989      7.65E-04 Normal BFGS step
   78   -1740.6504061703      8.13E-04 Normal BFGS step
   79   -1740.6504158367      1.76E-03 Normal BFGS step
   80   -1740.6504300128      1.70E-03 Normal BFGS step
   81   -1740.6504526481      1.90E-03 Normal BFGS step
   82   -1740.6504812112      2.06E-03 Normal BFGS step
   83   -1740.6505048237      1.69E-03 Normal BFGS step
   84   -1740.6505176280      1.17E-03 Normal BFGS step
   85   -1740.6505236919      1.15E-03 Normal BFGS step
   86   -1740.6505254542      8.97E-04 Normal BFGS step
   87   -1740.6505263658      3.59E-04 Normal BFGS step
   88   -1740.6505267211      2.46E-04 Normal BFGS step
   89   -1740.6505269847      2.40E-04 Normal BFGS step
   90   -1740.6505272244      2.29E-04 Normal BFGS step
   91   -1740.6505275469      2.23E-04 Normal BFGS step
   92   -1740.6505280900      2.62E-04 Normal BFGS step
   93   -1740.6505289941      3.04E-04 Normal BFGS step
   94   -1740.6505300770      2.21E-04 Normal BFGS step
   95   -1740.6505307524      2.98E-04 Normal BFGS step
   96   -1740.6505310398      2.82E-04 Normal BFGS step
   97   -1740.6505310988      2.32E-04 Normal BFGS step
   98   -1740.6505311463      6.48E-05 Normal BFGS step
   99   -1740.6505311554      3.43E-05 Normal BFGS step
  100   -1740.6505311602      2.01E-05 Normal BFGS step
  101   -1740.6505311612      1.72E-05 Normal BFGS step
  102   -1740.6505311617      1.27E-05 Normal BFGS step
  103   -1740.6505311619      1.02E-05 Normal BFGS step
  104   -1740.6505311621      2.98E-06 Normal BFGS step
   GDM::WARNING energy changes are now smaller than effective accuracy.
   GDM::        calculation will continue, but THRESH should be increased
   GDM::        or SCF_CONVERGENCE decreased.
   GDM::        effective_thresh =   3.117578445399616E-009
  105   -1740.6505311617      3.05E-06 Normal BFGS step
   GDM::WARNING energy changes are now smaller than effective accuracy.
   GDM::        calculation will continue, but THRESH should be increased
   GDM::        or SCF_CONVERGENCE decreased.
   GDM::        effective_thresh =   3.117578445399616E-009
  106   -1740.6505311616      1.37E-06 Normal BFGS step
   GDM::WARNING energy changes are now smaller than effective accuracy.
   GDM::        calculation will continue, but THRESH should be increased
   GDM::        or SCF_CONVERGENCE decreased.
   GDM::        effective_thresh =   3.117578445399616E-009
  107   -1740.6505311615      1.47E-06 Normal BFGS step
  108   -1740.6505311616      2.47E-07 Normal BFGS step
  109   -1740.6505311618      3.31E-07 Normal BFGS step
   GDM::WARNING energy changes are now smaller than effective accuracy.
   GDM::        calculation will continue, but THRESH should be increased
   GDM::        or SCF_CONVERGENCE decreased.
   GDM::        effective_thresh =   3.117578445399616E-009
  110   -1740.6505311616      8.57E-08 Normal BFGS step
  111   -1740.6505311616      9.56E-08 Normal BFGS step
   GDM::WARNING energy changes are now smaller than effective accuracy.
   GDM::        calculation will continue, but THRESH should be increased
   GDM::        or SCF_CONVERGENCE decreased.
   GDM::        effective_thresh =   3.117578445399616E-009
  112   -1740.6505311607      2.66E-08 Normal BFGS step
  113   -1740.6505311609      2.74E-08 Normal BFGS step
   GDM::WARNING energy changes are now smaller than effective accuracy.
   GDM::        calculation will continue, but THRESH should be increased
   GDM::        or SCF_CONVERGENCE decreased.
   GDM::        effective_thresh =   3.117578445399616E-009
  114   -1740.6505311596      8.85E-09 Convergence criterion met
 ---------------------------------------
 One-Electron    Energy = -4279.9648758833
 Total Coulomb   Energy =  1729.2296705209
 Alpha Exchange  Energy =   -64.8151888885
 Beta  Exchange  Energy =   -60.0751912484
 DFT   Exchange  Energy =     0.0000000000
 DFT Correlation Energy =     0.0000000000
 Nuclear Repu.   Energy =   934.9750543397
 Nuclear Attr.   Energy = -6021.5238102428
 Kinetic         Energy =  1741.5589343594
 SCF time:  CPU 8104.64 s  wall 8254.39 s

 Q-Chem warning in module 0, line  204:

 Quadrupole field failed to resolve orbital degeneracies.


 Q-Chem warning in module 0, line  204:

 Quadrupole field failed to resolve orbital degeneracies.

 SCF   energy in the final basis set = -1740.65053116
 Total energy in the final basis set = -1740.65053116
Setting RAS_srDFT_COR/EXC
  
     ##========================================##
     ||                                        ||
     ||              R A S M A N 2             ||
     ||________________________________________||
     ||                                        ||
     ||  Author:                               ||
     ||                                        ||
     ||        David Casanova (2010)           ||
     ||                                        ||
     ##========================================##
  
  ***************************************************
  *  RAS-CI Dimensions:                             *
  *                                                 *
  *  Active Elec.:   7 ( 4, 3)   Active Orb.:   7   *
  *  Doubly Occ. :  50           Doubly Vir.: 360   *
  *  Frozen Occ. :  35           Frozen Vir.: 320   *
  *                                                 *
  *  Total CI configurations:    109025             * 
  *    Active configurations:      1225             * 
  *      Hole configurations:     29400             * 
  *  Particle configurations:     78400             * 
  *                                                 *
  *   Requested states:       10                    *
  *  Spin multiplicity: Any multiplicity            *
  *                                                 *
  ***************************************************
-----------------------------------------
    Memory requirements of RASCI

 Each CI-vector requires      0.83 MiB 
 Max. subspace vectors           1500      

 Reduced Lists                0.00 MiB 
 Excitation Lists             0.00 MiB 
 Excitation Lists Sign        0.00 MiB 
 CI-space (Max)            1273.19 MiB 
 Integrals                  142.92 MiB 
 Memory required (Max)     1273.19 MiB 
 Memory available          7811.55 MiB 

    Disk requirements of RASCI

 Fock matrix                  2.65 MiB 
 2-electron integrals         3.50 MiB 
 CI-space                  2495.38 MiB 
 Disk required             2501.54 MiB 
-----------------------------------------
  
RAS1 HF-like energy:          -1730.6951670222
 Computing integrals
 Computing J and K matrices
 Computing addressing
 Making amplitude guesses
 
Direct CI diagonalization
 ---------------------------------------------------
 Iter    Rts Conv    Rts Left    Ttl Dev     Max Dev
 ---------------------------------------------------
   1         0          10      0.011535    0.001870
   2         0          10      0.007320    0.001209
   3         0          10      0.017904    0.002590
   4         0          10      0.013999    0.002972
   5         0          10      0.010260    0.002046
   6         0          10      0.008459    0.001309
   7         0          10      0.008948    0.001562
   8         0          10      0.009819    0.001501
   9         0          10      0.009530    0.001276
  10         0          10      0.008034    0.001202
  11         0          10      0.006143    0.000904
  12         0          10      0.005956    0.000746
  13         0          10      0.006598    0.000930
  14         0          10      0.006602    0.000945
  15         0          10      0.006045    0.000794
  16         0          10      0.004640    0.000620
  17         0          10      0.004067    0.000524
  18         0          10      0.003708    0.000650
  19         0          10      0.004078    0.000691
  20         0          10      0.003611    0.000950
  21         0          10      0.003009    0.000739
  22         0          10      0.003000    0.000545
  23         0          10      0.003204    0.000559
  24         0          10      0.003080    0.000616
  25         0          10      0.002543    0.000474
  26         0          10      0.002517    0.000643
  27         0          10      0.002098    0.000481
  28         0          10      0.001743    0.000310
  29         0          10      0.001587    0.000383
  30         0          10      0.001304    0.000314
  31         0          10      0.001406    0.000598
  32         0          10      0.001088    0.000385
  33         0          10      0.001018    0.000272
  34         0          10      0.000839    0.000190
  35         0          10      0.000718    0.000174
  36         0          10      0.000628    0.000139
  37         0          10      0.000873    0.000343
  38         1           9      0.000738    0.000246
  39         2           8      0.000555    0.000193
  40         2           8      0.000427    0.000157
  41         2           8      0.000324    0.000121
  42         2           8      0.000253    0.000094
  43         2           8      0.000203    0.000068
  44         2           8      0.000153    0.000044
  45         2           8      0.000122    0.000032
  46         2           8      0.000100    0.000025
  47         3           7      0.000077    0.000019
  48         3           7      0.000061    0.000017
  49         3           7      0.000049    0.000015
  50         5           5      0.000040    0.000013
  51         5           5      0.000032    0.000011
  52         6           4      0.000025    0.000009
  53         6           4      0.000020    0.000007
  54         6           4      0.000016    0.000005
  55         6           4      0.000013    0.000004
  56         8           2      0.000010    0.000003
  57         8           2      0.000009    0.000002
  58         8           2      0.000008    0.000002
  59         8           2      0.000007    0.000001
  60        10           0      0.000007    0.000001    Roots Converged
 ---------------------------------------------------
   
**************************************************
 RAS-CI total energy for state   1:  -1740.776559860350
  Excitation energy (eV) =  0.000000000000
  Warning: not all configurations have same symmetry
  State symmetry: *B1    (C2v      )
  <S^2>      :  0.7500
  Dipole Moment:   -0.0000 X    -0.0000 Y    -2.8721 Z
 NATURAL OCCUPATION NUMBERS (higher than 1.0E-05)
            1           2           3           4           5           6
    1   2.0000000   2.0000000   2.0000000   2.0000000   2.0000000   2.0000000
            7           8           9          10          11          12
    1   2.0000000   2.0000000   2.0000000   2.0000000   2.0000000   2.0000000
           13          14          15          16          17          18
    1   2.0000000   2.0000000   2.0000000   2.0000000   2.0000000   2.0000000
           19          20          21          22          23          24
    1   2.0000000   2.0000000   2.0000000   2.0000000   2.0000000   2.0000000
           25          26          27          28          29          30
    1   2.0000000   2.0000000   2.0000000   2.0000000   2.0000000   2.0000000
           31          32          33          34          35          36
    1   2.0000000   2.0000000   2.0000000   2.0000000   2.0000000   1.9999998
           37          38          39          40          41          42
    1   1.9999996   1.9999996   1.9999991   1.9999986   1.9999960   1.9999933
           43          44          45          46          47          48
    1   1.9999582   1.9998694   1.9998287   1.9998129   1.9997448   1.9996756
           49          50          51          52          53          54
    1   1.9992730   1.9981198   1.9802972   1.8246788   1.7445239   1.0002396
           55          56          57          58          59          60
    1   0.2515114   0.1707578   0.0261442   0.0017676   0.0014555   0.0008568
           61          62          63          64          65          66
    1   0.0006804   0.0005611   0.0001239   0.0000401   0.0000307   0.0000213
           67
    1   0.0000156
Natural Orbitals stored in FCHK

  Amplitudes : 
  
 | HOLE  | ALPHA   | BETA    | PART  |    AMPLITUDE 
--------------------------------------------------
 |       | 1111000 | 1101000 |       |    -7.3245619454387E-01
 |       | 1111000 | 1100001 |       |    -2.9351905696721E-01
 |       | 1111000 | 1000101 |       |     1.5080861791885E-01
 |       | 1110001 | 1101000 |       |    -2.0293545955747E-01
 |       | 1110001 | 1001100 |       |    -1.4426163688589E-01
 |       | 1101100 | 1011000 |       |     1.4195369853806E-01
 |       | 1011100 | 1101000 |       |     2.2313247009992E-01
 |       | 1011100 | 1100001 |       |     2.1955333252733E-01
 |       | 1011100 | 1001100 |       |    -2.3369945734251E-01
 |       | 1010101 | 1101000 |       |    -1.3504730060866E-01
--------------------------------------------------
*** Contributions RASCI wfn    Active:  93.48
                                 Hole:   5.52
                                 Part:   1.00

      Mulliken population analysis 
 ---------------------------------------------------
   Atom    Charge (a.u.)   Spin (a.u.)  
 ---------------------------------------------------
   1 Mn    0.946905        1.241671 
   2  C   -0.288011       -0.000120 
   3  N   -0.317164        0.006992 
   4  N    0.266053       -0.166458 
   5  C   -0.244238       -0.003140 
   6  N   -0.309377        0.006134 
   7  C   -0.244238       -0.003140 
   8  N   -0.309377        0.006134 
   9  C   -0.219366       -0.019580 
  10  N   -0.312017        0.001507 
  11  C   -0.288011       -0.000120 
  12  N   -0.317164        0.006992 
  13  O   -0.363995       -0.076871 
 ---------------------------------------------------
   Sum:   -2.000000        1.000000 
 ---------------------------------------------------
 
  
 NATURAL OCCUPATION NUMBERS (higher than 1.0E-05)
            1           2           3           4           5           6
    1   2.0000000   2.0000000   2.0000000   2.0000000   2.0000000   2.0000000
            7           8           9          10          11          12
    1   2.0000000   2.0000000   2.0000000   2.0000000   2.0000000   2.0000000
           13          14          15          16          17          18
    1   2.0000000   2.0000000   2.0000000   2.0000000   2.0000000   2.0000000
           19          20          21          22          23          24
    1   2.0000000   2.0000000   2.0000000   2.0000000   2.0000000   2.0000000
           25          26          27          28          29          30
    1   2.0000000   2.0000000   2.0000000   2.0000000   2.0000000   2.0000000
           31          32          33          34          35          36
    1   2.0000000   2.0000000   2.0000000   2.0000000   2.0000000   1.9999998
           37          38          39          40          41          42
    1   1.9999996   1.9999996   1.9999991   1.9999986   1.9999960   1.9999933
           43          44          45          46          47          48
    1   1.9999582   1.9998694   1.9998287   1.9998129   1.9997448   1.9996756
           49          50          51          52          53          54
    1   1.9992730   1.9981198   1.9802972   1.8246788   1.7445239   1.0002396
           55          56          57          58          59          60
    1   0.2515114   0.1707578   0.0261442   0.0017676   0.0014555   0.0008568
           61          62          63          64          65          66
    1   0.0006804   0.0005611   0.0001239   0.0000401   0.0000307   0.0000213
           67
    1   0.0000156
  
*** Unpaired Electrons
 Yamaguchi Nd:         2.63
 Head-Gordon Nu:       1.91
 Head-Gordon Nu_nl:    1.60
  
**************************************************
 RAS-CI total energy for state   2:  -1740.712824869064
  Excitation energy (eV) =  1.734317352216
  Warning: not all configurations have same symmetry
  State symmetry: *A1    (C2v      )
  <S^2>      :  0.7500
  Dipole Moment:   -0.0000 X    -0.0000 Y    -3.4003 Z
  Trans. Moment:   -0.0172 X     0.0000 Y     0.0000 Z
  Strength   :  0.000013
  Natural transition orbitals ( 1 -> 2 ):
   e-/hole pair  1 alpha:  ampl =  0.091322 (  0.8%)   [7 : 8]
   e-/hole pair  2 alpha:  ampl =  0.072039 (  0.5%)   [6 : 9]
   e-/hole pair  1 beta :  ampl =  0.881543 ( 77.7%)   [7 : 8]
   e-/hole pair  2 beta :  ampl =  0.050854 (  0.3%)   [6 : 9]
   Sum of square amplitudes: 0.80

 NATURAL OCCUPATION NUMBERS (higher than 1.0E-05)
            1           2           3           4           5           6
    1   2.0000000   2.0000000   2.0000000   2.0000000   2.0000000   2.0000000
            7           8           9          10          11          12
    1   2.0000000   2.0000000   2.0000000   2.0000000   2.0000000   2.0000000
           13          14          15          16          17          18
    1   2.0000000   2.0000000   2.0000000   2.0000000   2.0000000   2.0000000
           19          20          21          22          23          24
    1   2.0000000   2.0000000   2.0000000   2.0000000   2.0000000   2.0000000
           25          26          27          28          29          30
    1   2.0000000   2.0000000   2.0000000   2.0000000   2.0000000   2.0000000
           31          32          33          34          35          36
    1   2.0000000   2.0000000   2.0000000   2.0000000   2.0000000   1.9999998
           37          38          39          40          41          42
    1   1.9999991   1.9999990   1.9999988   1.9999972   1.9999969   1.9999941
           43          44          45          46          47          48
    1   1.9999548   1.9999303   1.9998689   1.9997423   1.9995454   1.9994415
           49          50          51          52          53          54
    1   1.9985670   1.9972367   1.9884230   1.9497698   1.6598295   0.9705520
           55          56          57          58          59          60
    1   0.3341311   0.0582347   0.0365708   0.0044918   0.0021436   0.0005759
           61          62          63          64          65          66
    1   0.0005108   0.0002230   0.0000862   0.0000529   0.0000404   0.0000219
           67          68
    1   0.0000217   0.0000130
Natural Orbitals stored in FCHK

  Amplitudes : 
  
 | HOLE  | ALPHA   | BETA    | PART  |    AMPLITUDE 
--------------------------------------------------
 |       | 1111000 | 1110000 |       |     8.3548126440128E-01
 |       | 1110100 | 1011000 |       |    -1.4343728005167E-01
 |       | 1110001 | 1110000 |       |     1.7257993448725E-01
 |       | 1110001 | 1010100 |       |     1.2753249280922E-01
 |       | 1011100 | 1110000 |       |    -1.5521012950123E-01
 |       | 1011100 | 1010100 |       |     3.4712523041673E-01
 |       | 1010101 | 1110000 |       |     1.1549839600685E-01
--------------------------------------------------
*** Contributions RASCI wfn    Active:  94.95
                                 Hole:   3.44
                                 Part:   1.61

      Mulliken population analysis 
 ---------------------------------------------------
   Atom    Charge (a.u.)   Spin (a.u.)  
 ---------------------------------------------------
   1 Mn    0.878592        0.951021 
   2  C   -0.286334       -0.000336 
   3  N   -0.327061       -0.000091 
   4  N    0.317193        0.000773 
   5  C   -0.248422       -0.002807 
   6  N   -0.309179        0.011472 
   7  C   -0.248422       -0.002807 
   8  N   -0.309179        0.011472 
   9  C   -0.246155       -0.012817 
  10  N   -0.303679        0.019648 
  11  C   -0.286334       -0.000336 
  12  N   -0.327061       -0.000091 
  13  O   -0.303957        0.024897 
 ---------------------------------------------------
   Sum:   -2.000000        1.000000 
 ---------------------------------------------------
 
  
 NATURAL OCCUPATION NUMBERS (higher than 1.0E-05)
            1           2           3           4           5           6
    1   2.0000000   2.0000000   2.0000000   2.0000000   2.0000000   2.0000000
            7           8           9          10          11          12
    1   2.0000000   2.0000000   2.0000000   2.0000000   2.0000000   2.0000000
           13          14          15          16          17          18
    1   2.0000000   2.0000000   2.0000000   2.0000000   2.0000000   2.0000000
           19          20          21          22          23          24
    1   2.0000000   2.0000000   2.0000000   2.0000000   2.0000000   2.0000000
           25          26          27          28          29          30
    1   2.0000000   2.0000000   2.0000000   2.0000000   2.0000000   2.0000000
           31          32          33          34          35          36
    1   2.0000000   2.0000000   2.0000000   2.0000000   2.0000000   1.9999998
           37          38          39          40          41          42
    1   1.9999991   1.9999990   1.9999988   1.9999972   1.9999969   1.9999941
           43          44          45          46          47          48
    1   1.9999548   1.9999303   1.9998689   1.9997423   1.9995454   1.9994415
           49          50          51          52          53          54
    1   1.9985670   1.9972367   1.9884230   1.9497698   1.6598295   0.9705520
           55          56          57          58          59          60
    1   0.3341311   0.0582347   0.0365708   0.0044918   0.0021436   0.0005759
           61          62          63          64          65          66
    1   0.0005108   0.0002230   0.0000862   0.0000529   0.0000404   0.0000219
           67          68
    1   0.0000217   0.0000130
  
*** Unpaired Electrons
 Yamaguchi Nd:         2.45
 Head-Gordon Nu:       1.82
 Head-Gordon Nu_nl:    1.66
  
**************************************************
 RAS-CI total energy for state   3:  -1740.699188370413
  Excitation energy (eV) =  2.105385359854
  Warning: not all configurations have same symmetry
  State symmetry: *B1    (C2v      )
  <S^2>      :  0.7500
  Dipole Moment:   -0.0000 X    -0.0000 Y    -3.2321 Z
  Trans. Moment:   -0.0000 X     0.0152 Y     0.0000 Z
  Strength   :  0.000012
  Natural transition orbitals ( 1 -> 3 ):
   e-/hole pair  1 alpha:  ampl =  0.132090 (  1.7%)   [7 : 8]
   e-/hole pair  2 alpha:  ampl =  0.118946 (  1.4%)   [6 : 9]
   e-/hole pair  1 beta :  ampl =  0.839183 ( 70.4%)   [7 : 8]
   e-/hole pair  2 beta :  ampl =  0.053810 (  0.3%)   [6 : 9]
   Sum of square amplitudes: 0.74

 NATURAL OCCUPATION NUMBERS (higher than 1.0E-05)
            1           2           3           4           5           6
    1   2.0000000   2.0000000   2.0000000   2.0000000   2.0000000   2.0000000
            7           8           9          10          11          12
    1   2.0000000   2.0000000   2.0000000   2.0000000   2.0000000   2.0000000
           13          14          15          16          17          18
    1   2.0000000   2.0000000   2.0000000   2.0000000   2.0000000   2.0000000
           19          20          21          22          23          24
    1   2.0000000   2.0000000   2.0000000   2.0000000   2.0000000   2.0000000
           25          26          27          28          29          30
    1   2.0000000   2.0000000   2.0000000   2.0000000   2.0000000   2.0000000
           31          32          33          34          35          36
    1   2.0000000   2.0000000   2.0000000   2.0000000   2.0000000   1.9999997
           37          38          39          40          41          42
    1   1.9999996   1.9999990   1.9999978   1.9999977   1.9999966   1.9999946
           43          44          45          46          47          48
    1   1.9999757   1.9998703   1.9997979   1.9997686   1.9995585   1.9992941
           49          50          51          52          53          54
    1   1.9990154   1.9969640   1.9865438   1.9038901   1.7254090   0.9571063
           55          56          57          58          59          60
    1   0.2661553   0.1208155   0.0369638   0.0047845   0.0025655   0.0005632
           61          62          63          64          65          66
    1   0.0004347   0.0002648   0.0001132   0.0000378   0.0000323   0.0000321
           67          68
    1   0.0000141   0.0000134
Natural Orbitals stored in FCHK

  Amplitudes : 
  
 | HOLE  | ALPHA   | BETA    | PART  |    AMPLITUDE 
--------------------------------------------------
 |       | 1111000 | 1011000 |       |    -6.2902164660422E-01
 |       | 1111000 | 1010001 |       |    -4.5484130138932E-01
 |       | 1110001 | 1011000 |       |    -3.7507095147339E-01
 |       | 1101100 | 1101000 |       |     1.3464971758437E-01
 |       | 1101100 | 1001100 |       |     1.0178741843024E-01
 |       | 1011100 | 1010001 |       |     2.9484988983260E-01
 |       | 1010101 | 1011000 |       |    -2.1780324197450E-01
--------------------------------------------------
*** Contributions RASCI wfn    Active:  93.92
                                 Hole:   4.26
                                 Part:   1.82

      Mulliken population analysis 
 ---------------------------------------------------
   Atom    Charge (a.u.)   Spin (a.u.)  
 ---------------------------------------------------
   1 Mn    0.889250        0.793675 
   2  C   -0.283516       -0.000413 
   3  N   -0.314502        0.011639 
   4  N    0.332707        0.134878 
   5  C   -0.244670       -0.001470 
   6  N   -0.318885       -0.000392 
   7  C   -0.244670       -0.001470 
   8  N   -0.318885       -0.000392 
   9  C   -0.234766       -0.009247 
  10  N   -0.311455        0.008218 
  11  C   -0.283516       -0.000413 
  12  N   -0.314502        0.011639 
  13  O   -0.352590        0.053747 
 ---------------------------------------------------
   Sum:   -2.000000        1.000000 
 ---------------------------------------------------
 
  
 NATURAL OCCUPATION NUMBERS (higher than 1.0E-05)
            1           2           3           4           5           6
    1   2.0000000   2.0000000   2.0000000   2.0000000   2.0000000   2.0000000
            7           8           9          10          11          12
    1   2.0000000   2.0000000   2.0000000   2.0000000   2.0000000   2.0000000
           13          14          15          16          17          18
    1   2.0000000   2.0000000   2.0000000   2.0000000   2.0000000   2.0000000
           19          20          21          22          23          24
    1   2.0000000   2.0000000   2.0000000   2.0000000   2.0000000   2.0000000
           25          26          27          28          29          30
    1   2.0000000   2.0000000   2.0000000   2.0000000   2.0000000   2.0000000
           31          32          33          34          35          36
    1   2.0000000   2.0000000   2.0000000   2.0000000   2.0000000   1.9999997
           37          38          39          40          41          42
    1   1.9999996   1.9999990   1.9999978   1.9999977   1.9999966   1.9999946
           43          44          45          46          47          48
    1   1.9999757   1.9998703   1.9997979   1.9997686   1.9995585   1.9992941
           49          50          51          52          53          54
    1   1.9990154   1.9969640   1.9865438   1.9038901   1.7254090   0.9571063
           55          56          57          58          59          60
    1   0.2661553   0.1208155   0.0369638   0.0047845   0.0025655   0.0005632
           61          62          63          64          65          66
    1   0.0004347   0.0002648   0.0001132   0.0000378   0.0000323   0.0000321
           67          68
    1   0.0000141   0.0000134
  
*** Unpaired Electrons
 Yamaguchi Nd:         2.47
 Head-Gordon Nu:       1.78
 Head-Gordon Nu_nl:    1.52
  
**************************************************
 RAS-CI total energy for state   4:  -1740.674595845512
  Excitation energy (eV) =  2.774582010066
  State symmetry: B1    (C2v      )
  <S^2>      :  0.7500
  Dipole Moment:   -0.0000 X    -0.0000 Y    -3.5069 Z
  Trans. Moment:    0.0000 X     0.0000 Y    -0.0000 Z
  Strength   :  0.000000
  Natural transition orbitals ( 1 -> 4 ):
   e-/hole pair  1 alpha:  ampl =  0.307610 (  9.5%)   [7 : 8]
   e-/hole pair  2 alpha:  ampl =  0.085272 (  0.7%)   [6 : 9]
   e-/hole pair  1 beta :  ampl =  0.717657 ( 51.5%)   [7 : 8]
   e-/hole pair  2 beta :  ampl =  0.141158 (  2.0%)   [6 : 9]
   Sum of square amplitudes: 0.64

 NATURAL OCCUPATION NUMBERS (higher than 1.0E-05)
            1           2           3           4           5           6
    1   2.0000000   2.0000000   2.0000000   2.0000000   2.0000000   2.0000000
            7           8           9          10          11          12
    1   2.0000000   2.0000000   2.0000000   2.0000000   2.0000000   2.0000000
           13          14          15          16          17          18
    1   2.0000000   2.0000000   2.0000000   2.0000000   2.0000000   2.0000000
           19          20          21          22          23          24
    1   2.0000000   2.0000000   2.0000000   2.0000000   2.0000000   2.0000000
           25          26          27          28          29          30
    1   2.0000000   2.0000000   2.0000000   2.0000000   2.0000000   2.0000000
           31          32          33          34          35          36
    1   2.0000000   2.0000000   2.0000000   2.0000000   2.0000000   1.9999997
           37          38          39          40          41          42
    1   1.9999994   1.9999991   1.9999983   1.9999979   1.9999978   1.9999915
           43          44          45          46          47          48
    1   1.9999743   1.9999623   1.9999232   1.9997848   1.9994930   1.9989275
           49          50          51          52          53          54
    1   1.9989056   1.9981493   1.9910015   1.9641173   1.0045244   0.9981092
           55          56          57          58          59          60
    1   0.9930147   0.0338480   0.0137359   0.0036152   0.0012905   0.0005674
           61          62          63          64          65          66
    1   0.0004599   0.0002917   0.0001638   0.0000625   0.0000221   0.0000201
Natural Orbitals stored in FCHK

  Amplitudes : 
  
 | HOLE  | ALPHA   | BETA    | PART  |    AMPLITUDE 
--------------------------------------------------
 |       | 1111000 | 1100100 |       |    -6.5018053055151E-01
 |       | 1110100 | 1101000 |       |    -3.1806440197118E-01
 |       | 1110100 | 1001100 |       |    -2.1938841241446E-01
 |       | 1101100 | 1110000 |       |     3.3211612857925E-01
 |       | 1101100 | 1010100 |       |     2.3496429172826E-01
 |       | 1011100 | 1100100 |       |     4.5435270414332E-01
--------------------------------------------------
*** Contributions RASCI wfn    Active:  96.71
                                 Hole:   2.20
                                 Part:   1.09

      Mulliken population analysis 
 ---------------------------------------------------
   Atom    Charge (a.u.)   Spin (a.u.)  
 ---------------------------------------------------
   1 Mn    0.933019        1.243824 
   2  C   -0.297210       -0.002503 
   3  N   -0.320656        0.003589 
   4  N    0.286736       -0.198495 
   5  C   -0.257022       -0.002666 
   6  N   -0.302748        0.011297 
   7  C   -0.257022       -0.002666 
   8  N   -0.302748        0.011297 
   9  C   -0.266871       -0.013717 
  10  N   -0.313519        0.011879 
  11  C   -0.297210       -0.002503 
  12  N   -0.320656        0.003589 
  13  O   -0.284093       -0.062927 
 ---------------------------------------------------
   Sum:   -2.000000        1.000000 
 ---------------------------------------------------
 
  
 NATURAL OCCUPATION NUMBERS (higher than 1.0E-05)
            1           2           3           4           5           6
    1   2.0000000   2.0000000   2.0000000   2.0000000   2.0000000   2.0000000
            7           8           9          10          11          12
    1   2.0000000   2.0000000   2.0000000   2.0000000   2.0000000   2.0000000
           13          14          15          16          17          18
    1   2.0000000   2.0000000   2.0000000   2.0000000   2.0000000   2.0000000
           19          20          21          22          23          24
    1   2.0000000   2.0000000   2.0000000   2.0000000   2.0000000   2.0000000
           25          26          27          28          29          30
    1   2.0000000   2.0000000   2.0000000   2.0000000   2.0000000   2.0000000
           31          32          33          34          35          36
    1   2.0000000   2.0000000   2.0000000   2.0000000   2.0000000   1.9999997
           37          38          39          40          41          42
    1   1.9999994   1.9999991   1.9999983   1.9999979   1.9999978   1.9999915
           43          44          45          46          47          48
    1   1.9999743   1.9999623   1.9999232   1.9997848   1.9994930   1.9989275
           49          50          51          52          53          54
    1   1.9989056   1.9981493   1.9910015   1.9641173   1.0045244   0.9981092
           55          56          57          58          59          60
    1   0.9930147   0.0338480   0.0137359   0.0036152   0.0012905   0.0005674
           61          62          63          64          65          66
    1   0.0004599   0.0002917   0.0001638   0.0000625   0.0000221   0.0000201
  
*** Unpaired Electrons
 Yamaguchi Nd:         3.21
 Head-Gordon Nu:       3.09
 Head-Gordon Nu_nl:    3.01
  
**************************************************
 RAS-CI total energy for state   5:  -1740.664753471664
  Excitation energy (eV) =  3.042406628963
  Warning: not all configurations have same symmetry
  State symmetry: *B1    (C2v      )
  <S^2>      :  0.7500
  Dipole Moment:   -0.0000 X    -0.0000 Y    -3.3523 Z
  Trans. Moment:   -0.0000 X     0.0000 Y     0.1258 Z
  Strength   :  0.001180
  Natural transition orbitals ( 1 -> 5 ):
   e-/hole pair  1 alpha:  ampl =  0.219766 (  4.8%)   [7 : 8]
   e-/hole pair  2 alpha:  ampl =  0.121532 (  1.5%)   [6 : 9]
   e-/hole pair  1 beta :  ampl =  0.544676 ( 29.7%)   [7 : 8]
   e-/hole pair  2 beta :  ampl =  0.404889 ( 16.4%)   [6 : 9]
   Sum of square amplitudes: 0.55

 NATURAL OCCUPATION NUMBERS (higher than 1.0E-05)
            1           2           3           4           5           6
    1   2.0000000   2.0000000   2.0000000   2.0000000   2.0000000   2.0000000
            7           8           9          10          11          12
    1   2.0000000   2.0000000   2.0000000   2.0000000   2.0000000   2.0000000
           13          14          15          16          17          18
    1   2.0000000   2.0000000   2.0000000   2.0000000   2.0000000   2.0000000
           19          20          21          22          23          24
    1   2.0000000   2.0000000   2.0000000   2.0000000   2.0000000   2.0000000
           25          26          27          28          29          30
    1   2.0000000   2.0000000   2.0000000   2.0000000   2.0000000   2.0000000
           31          32          33          34          35          36
    1   2.0000000   2.0000000   2.0000000   2.0000000   2.0000000   1.9999991
           37          38          39          40          41          42
    1   1.9999989   1.9999988   1.9999984   1.9999983   1.9999947   1.9999904
           43          44          45          46          47          48
    1   1.9999602   1.9998312   1.9995715   1.9995067   1.9993452   1.9988179
           49          50          51          52          53          54
    1   1.9988179   1.9981482   1.9885978   1.5912196   1.3955499   0.9997951
           55          56          57          58          59          60
    1   0.5957971   0.3994650   0.0269609   0.0052340   0.0010200   0.0008943
           61          62          63          64          65          66
    1   0.0006719   0.0004613   0.0001384   0.0000944   0.0000381   0.0000299
           67          68
    1   0.0000109   0.0000102
Natural Orbitals stored in FCHK

  Amplitudes : 
  
 | HOLE  | ALPHA   | BETA    | PART  |    AMPLITUDE 
--------------------------------------------------
 |       | 1111000 | 1101000 |       |     2.2087126334442E-01
 |       | 1111000 | 1100001 |       |    -3.2905759307620E-01
 |       | 1111000 | 1001100 |       |    -3.7962877183271E-01
 |       | 1111000 | 1000101 |       |     2.5854358940009E-01
 |       | 1110001 | 1101000 |       |    -1.9985351510117E-01
 |       | 1110001 | 1001100 |       |    -1.6501773431637E-01
 |       | 1101100 | 1011000 |       |    -5.0952061631403E-01
 |       | 1101001 | 1110000 |       |     1.2920407797477E-01
 |       | 1101001 | 1010100 |       |     1.0160574707894E-01
 |       | 1011100 | 1101000 |       |    -1.2989184448030E-01
 |       | 1011100 | 1100001 |       |     2.0984082356545E-01
 |       | 1011100 | 1001100 |       |     3.0911213023975E-01
 |       | 1011100 | 1000101 |       |    -1.6359667631145E-01
 |       | 1010101 | 1101000 |       |    -1.1723749674499E-01
 |       | 1010101 | 1001100 |       |    -1.0591159156827E-01
--------------------------------------------------
*** Contributions RASCI wfn    Active:  95.79
                                 Hole:   2.81
                                 Part:   1.40

      Mulliken population analysis 
 ---------------------------------------------------
   Atom    Charge (a.u.)   Spin (a.u.)  
 ---------------------------------------------------
   1 Mn    0.943612        1.056560 
   2  C   -0.294520       -0.001574 
   3  N   -0.311747        0.008840 
   4  N    0.294559       -0.051512 
   5  C   -0.255213       -0.002189 
   6  N   -0.309379        0.003776 
   7  C   -0.255213       -0.002189 
   8  N   -0.309379        0.003776 
   9  C   -0.256022       -0.011006 
  10  N   -0.319537        0.007390 
  11  C   -0.294519       -0.001574 
  12  N   -0.311747        0.008840 
  13  O   -0.320893       -0.019137 
 ---------------------------------------------------
   Sum:   -2.000000        1.000000 
 ---------------------------------------------------
 
  
 NATURAL OCCUPATION NUMBERS (higher than 1.0E-05)
            1           2           3           4           5           6
    1   2.0000000   2.0000000   2.0000000   2.0000000   2.0000000   2.0000000
            7           8           9          10          11          12
    1   2.0000000   2.0000000   2.0000000   2.0000000   2.0000000   2.0000000
           13          14          15          16          17          18
    1   2.0000000   2.0000000   2.0000000   2.0000000   2.0000000   2.0000000
           19          20          21          22          23          24
    1   2.0000000   2.0000000   2.0000000   2.0000000   2.0000000   2.0000000
           25          26          27          28          29          30
    1   2.0000000   2.0000000   2.0000000   2.0000000   2.0000000   2.0000000
           31          32          33          34          35          36
    1   2.0000000   2.0000000   2.0000000   2.0000000   2.0000000   1.9999991
           37          38          39          40          41          42
    1   1.9999989   1.9999988   1.9999984   1.9999983   1.9999947   1.9999904
           43          44          45          46          47          48
    1   1.9999602   1.9998312   1.9995715   1.9995067   1.9993452   1.9988179
           49          50          51          52          53          54
    1   1.9988179   1.9981482   1.9885978   1.5912196   1.3955499   0.9997951
           55          56          57          58          59          60
    1   0.5957971   0.3994650   0.0269609   0.0052340   0.0010200   0.0008943
           61          62          63          64          65          66
    1   0.0006719   0.0004613   0.0001384   0.0000944   0.0000381   0.0000299
           67          68
    1   0.0000109   0.0000102
  
*** Unpaired Electrons
 Yamaguchi Nd:         4.08
 Head-Gordon Nu:       3.06
 Head-Gordon Nu_nl:    3.25
  
**************************************************
 RAS-CI total energy for state   6:  -1740.653427622814
  Excitation energy (eV) =  3.350598656479
  State symmetry: A1    (C2v      )
  <S^2>      :  0.7500
  Dipole Moment:   -0.0000 X    -0.0000 Y    -3.3049 Z
  Trans. Moment:   -0.0000 X    -0.0000 Y    -0.0000 Z
  Strength   :  0.000000
  Natural transition orbitals ( 1 -> 6 ):
   e-/hole pair  1 alpha:  ampl =  0.312476 (  9.8%)   [7 : 8]
   e-/hole pair  2 alpha:  ampl =  0.083643 (  0.7%)   [6 : 9]
   e-/hole pair  1 beta :  ampl =  0.700291 ( 49.0%)   [7 : 8]
   e-/hole pair  2 beta :  ampl =  0.141708 (  2.0%)   [6 : 9]
   Sum of square amplitudes: 0.62

 NATURAL OCCUPATION NUMBERS (higher than 1.0E-05)
            1           2           3           4           5           6
    1   2.0000000   2.0000000   2.0000000   2.0000000   2.0000000   2.0000000
            7           8           9          10          11          12
    1   2.0000000   2.0000000   2.0000000   2.0000000   2.0000000   2.0000000
           13          14          15          16          17          18
    1   2.0000000   2.0000000   2.0000000   2.0000000   2.0000000   2.0000000
           19          20          21          22          23          24
    1   2.0000000   2.0000000   2.0000000   2.0000000   2.0000000   2.0000000
           25          26          27          28          29          30
    1   2.0000000   2.0000000   2.0000000   2.0000000   2.0000000   2.0000000
           31          32          33          34          35          36
    1   2.0000000   2.0000000   2.0000000   2.0000000   2.0000000   1.9999997
           37          38          39          40          41          42
    1   1.9999992   1.9999991   1.9999986   1.9999986   1.9999960   1.9999898
           43          44          45          46          47          48
    1   1.9999702   1.9999177   1.9999104   1.9998497   1.9996698   1.9995926
           49          50          51          52          53          54
    1   1.9985653   1.9980360   1.9888636   1.9522585   1.0197827   0.9959528
           55          56          57          58          59          60
    1   0.9839063   0.0316225   0.0273132   0.0020643   0.0012690   0.0005388
           61          62          63          64          65          66
    1   0.0004566   0.0002738   0.0000972   0.0000354   0.0000134   0.0000125
           67
    1   0.0000102
Natural Orbitals stored in FCHK

  Amplitudes : 
  
 | HOLE  | ALPHA   | BETA    | PART  |    AMPLITUDE 
--------------------------------------------------
 |       | 1111000 | 1001001 |       |     6.4744563615820E-01
 |       | 1101001 | 1011000 |       |     3.4633304818633E-01
 |       | 1011100 | 1001001 |       |    -4.4083041156114E-01
 |       | 1011001 | 1101000 |       |    -3.0111258796844E-01
 |       | 1011001 | 1001100 |       |    -2.1969757492698E-01
 |       | 1001101 | 1011000 |       |     2.2113283663243E-01
--------------------------------------------------
*** Contributions RASCI wfn    Active:  95.72
                                 Hole:   2.67
                                 Part:   1.60

      Mulliken population analysis 
 ---------------------------------------------------
   Atom    Charge (a.u.)   Spin (a.u.)  
 ---------------------------------------------------
   1 Mn    0.937495        1.224965 
   2  C   -0.289043       -0.000621 
   3  N   -0.307194        0.011046 
   4  N    0.327743       -0.160651 
   5  C   -0.258086       -0.003151 
   6  N   -0.313044        0.003547 
   7  C   -0.258086       -0.003151 
   8  N   -0.313044        0.003547 
   9  C   -0.252662       -0.011591 
  10  N   -0.324237        0.004575 
  11  C   -0.289043       -0.000621 
  12  N   -0.307194        0.011046 
  13  O   -0.353604       -0.078940 
 ---------------------------------------------------
   Sum:   -2.000000        1.000000 
 ---------------------------------------------------
 
  
 NATURAL OCCUPATION NUMBERS (higher than 1.0E-05)
            1           2           3           4           5           6
    1   2.0000000   2.0000000   2.0000000   2.0000000   2.0000000   2.0000000
            7           8           9          10          11          12
    1   2.0000000   2.0000000   2.0000000   2.0000000   2.0000000   2.0000000
           13          14          15          16          17          18
    1   2.0000000   2.0000000   2.0000000   2.0000000   2.0000000   2.0000000
           19          20          21          22          23          24
    1   2.0000000   2.0000000   2.0000000   2.0000000   2.0000000   2.0000000
           25          26          27          28          29          30
    1   2.0000000   2.0000000   2.0000000   2.0000000   2.0000000   2.0000000
           31          32          33          34          35          36
    1   2.0000000   2.0000000   2.0000000   2.0000000   2.0000000   1.9999997
           37          38          39          40          41          42
    1   1.9999992   1.9999991   1.9999986   1.9999986   1.9999960   1.9999898
           43          44          45          46          47          48
    1   1.9999702   1.9999177   1.9999104   1.9998497   1.9996698   1.9995926
           49          50          51          52          53          54
    1   1.9985653   1.9980360   1.9888636   1.9522585   1.0197827   0.9959528
           55          56          57          58          59          60
    1   0.9839063   0.0316225   0.0273132   0.0020643   0.0012690   0.0005388
           61          62          63          64          65          66
    1   0.0004566   0.0002738   0.0000972   0.0000354   0.0000134   0.0000125
           67
    1   0.0000102
  
*** Unpaired Electrons
 Yamaguchi Nd:         3.25
 Head-Gordon Nu:       3.09
 Head-Gordon Nu_nl:    3.01
  
**************************************************
 RAS-CI total energy for state   7:  -1740.649609462903
  Excitation energy (eV) =  3.454496073806
  Warning: not all configurations have same symmetry
  State symmetry: *B1    (C2v      )
  <S^2>      :  0.7500
  Dipole Moment:   -0.0000 X    -0.0000 Y    -2.8438 Z
  Trans. Moment:    0.0000 X    -0.0000 Y     0.3200 Z
  Strength   :  0.008665
  Natural transition orbitals ( 1 -> 7 ):
   e-/hole pair  1 alpha:  ampl =  0.383412 ( 14.7%)   [7 : 8]
   e-/hole pair  2 alpha:  ampl =  0.131527 (  1.7%)   [6 : 9]
   e-/hole pair  1 beta :  ampl =  0.394406 ( 15.6%)   [7 : 8]
   e-/hole pair  2 beta :  ampl =  0.131179 (  1.7%)   [6 : 9]
   Sum of square amplitudes: 0.36

 NATURAL OCCUPATION NUMBERS (higher than 1.0E-05)
            1           2           3           4           5           6
    1   2.0000000   2.0000000   2.0000000   2.0000000   2.0000000   2.0000000
            7           8           9          10          11          12
    1   2.0000000   2.0000000   2.0000000   2.0000000   2.0000000   2.0000000
           13          14          15          16          17          18
    1   2.0000000   2.0000000   2.0000000   2.0000000   2.0000000   2.0000000
           19          20          21          22          23          24
    1   2.0000000   2.0000000   2.0000000   2.0000000   2.0000000   2.0000000
           25          26          27          28          29          30
    1   2.0000000   2.0000000   2.0000000   2.0000000   2.0000000   2.0000000
           31          32          33          34          35          36
    1   2.0000000   2.0000000   2.0000000   2.0000000   2.0000000   1.9999985
           37          38          39          40          41          42
    1   1.9999979   1.9999978   1.9999971   1.9999971   1.9999926   1.9999874
           43          44          45          46          47          48
    1   1.9999437   1.9996488   1.9996246   1.9995465   1.9990165   1.9986504
           49          50          51          52          53          54
    1   1.9982455   1.9963093   1.9811679   1.5632094   1.3928930   1.0000923
           55          56          57          58          59          60
    1   0.6019173   0.4142956   0.0346965   0.0153322   0.0015710   0.0015627
           61          62          63          64          65          66
    1   0.0012938   0.0006189   0.0001324   0.0001170   0.0000502   0.0000342
           67          68
    1   0.0000135   0.0000101
Natural Orbitals stored in FCHK

  Amplitudes : 
  
 | HOLE  | ALPHA   | BETA    | PART  |    AMPLITUDE 
--------------------------------------------------
 |       | 1111000 | 1101000 |       |     3.5680418266161E-01
 |       | 1111000 | 1100001 |       |    -2.8730705430849E-01
 |       | 1111000 | 1001100 |       |     2.1197711607659E-01
 |       | 1111000 | 1000101 |       |     1.0276684871205E-01
 |       | 1101100 | 1011000 |       |     4.9476935289927E-01
 |       | 1101001 | 1110000 |       |     3.3760091974018E-01
 |       | 1101001 | 1010100 |       |     1.9299552464454E-01
 |       | 1011100 | 1101000 |       |     2.8279223682218E-01
 |       | 1011100 | 1100001 |       |     2.2140690633321E-01
 |       | 1011100 | 1001100 |       |     2.2233641250471E-01
 |       | 1001101 | 1110000 |       |     1.9398067164325E-01
--------------------------------------------------
*** Contributions RASCI wfn    Active:  92.43
                                 Hole:   5.06
                                 Part:   2.51

      Mulliken population analysis 
 ---------------------------------------------------
   Atom    Charge (a.u.)   Spin (a.u.)  
 ---------------------------------------------------
   1 Mn    0.995029        0.324354 
   2  C   -0.293817        0.003123 
   3  N   -0.311233       -0.000142 
   4  N    0.223167        0.475177 
   5  C   -0.252719       -0.002221 
   6  N   -0.304240        0.004502 
   7  C   -0.252719       -0.002221 
   8  N   -0.304240        0.004502 
   9  C   -0.236160       -0.006188 
  10  N   -0.309446        0.007332 
  11  C   -0.293817        0.003123 
  12  N   -0.311233       -0.000142 
  13  O   -0.348573        0.188800 
 ---------------------------------------------------
   Sum:   -2.000000        1.000000 
 ---------------------------------------------------
 
  
 NATURAL OCCUPATION NUMBERS (higher than 1.0E-05)
            1           2           3           4           5           6
    1   2.0000000   2.0000000   2.0000000   2.0000000   2.0000000   2.0000000
            7           8           9          10          11          12
    1   2.0000000   2.0000000   2.0000000   2.0000000   2.0000000   2.0000000
           13          14          15          16          17          18
    1   2.0000000   2.0000000   2.0000000   2.0000000   2.0000000   2.0000000
           19          20          21          22          23          24
    1   2.0000000   2.0000000   2.0000000   2.0000000   2.0000000   2.0000000
           25          26          27          28          29          30
    1   2.0000000   2.0000000   2.0000000   2.0000000   2.0000000   2.0000000
           31          32          33          34          35          36
    1   2.0000000   2.0000000   2.0000000   2.0000000   2.0000000   1.9999985
           37          38          39          40          41          42
    1   1.9999979   1.9999978   1.9999971   1.9999971   1.9999926   1.9999874
           43          44          45          46          47          48
    1   1.9999437   1.9996488   1.9996246   1.9995465   1.9990165   1.9986504
           49          50          51          52          53          54
    1   1.9982455   1.9963093   1.9811679   1.5632094   1.3928930   1.0000923
           55          56          57          58          59          60
    1   0.6019173   0.4142956   0.0346965   0.0153322   0.0015710   0.0015627
           61          62          63          64          65          66
    1   0.0012938   0.0006189   0.0001324   0.0001170   0.0000502   0.0000342
           67          68
    1   0.0000135   0.0000101
  
*** Unpaired Electrons
 Yamaguchi Nd:         4.19
 Head-Gordon Nu:       3.14
 Head-Gordon Nu_nl:    3.33
  
**************************************************
 RAS-CI total energy for state   8:  -1740.640170939685
  Excitation energy (eV) =  3.711331357929
  Warning: not all configurations have same symmetry
  State symmetry: *B1    (C2v      )
  <S^2>      :  0.7500
  Dipole Moment:   -0.0000 X    -0.0000 Y    -3.1375 Z
  Trans. Moment:    0.0000 X    -0.0164 Y    -0.0000 Z
  Strength   :  0.000025
  Natural transition orbitals ( 1 -> 8 ):
   e-/hole pair  1 alpha:  ampl =  0.634216 ( 40.2%)   [7 : 8]
   e-/hole pair  2 alpha:  ampl =  0.090585 (  0.8%)   [6 : 9]
   e-/hole pair  1 beta :  ampl =  0.130292 (  1.7%)   [7 : 8]
   e-/hole pair  2 beta :  ampl =  0.118391 (  1.4%)   [6 : 9]
   Sum of square amplitudes: 0.45

 NATURAL OCCUPATION NUMBERS (higher than 1.0E-05)
            1           2           3           4           5           6
    1   2.0000000   2.0000000   2.0000000   2.0000000   2.0000000   2.0000000
            7           8           9          10          11          12
    1   2.0000000   2.0000000   2.0000000   2.0000000   2.0000000   2.0000000
           13          14          15          16          17          18
    1   2.0000000   2.0000000   2.0000000   2.0000000   2.0000000   2.0000000
           19          20          21          22          23          24
    1   2.0000000   2.0000000   2.0000000   2.0000000   2.0000000   2.0000000
           25          26          27          28          29          30
    1   2.0000000   2.0000000   2.0000000   2.0000000   2.0000000   2.0000000
           31          32          33          34          35          36
    1   2.0000000   2.0000000   2.0000000   2.0000000   2.0000000   1.9999996
           37          38          39          40          41          42
    1   1.9999981   1.9999980   1.9999979   1.9999966   1.9999962   1.9999903
           43          44          45          46          47          48
    1   1.9999599   1.9998483   1.9997507   1.9996923   1.9996644   1.9993701
           49          50          51          52          53          54
    1   1.9991552   1.9929345   1.9875970   1.7848401   1.7513829   0.9020736
           55          56          57          58          59          60
    1   0.4100850   0.1162412   0.0427343   0.0104787   0.0017376   0.0009395
           61          62          63          64          65          66
    1   0.0007839   0.0003993   0.0001727   0.0000742   0.0000317   0.0000205
           67
    1   0.0000125
Natural Orbitals stored in FCHK

  Amplitudes : 
  
 | HOLE  | ALPHA   | BETA    | PART  |    AMPLITUDE 
--------------------------------------------------
 |       | 1111000 | 1010001 |       |    -1.7620727623497E-01
 |       | 1110100 | 1110000 |       |     1.5579818339412E-01
 |       | 1101100 | 1101000 |       |    -6.9841406409308E-01
 |       | 1101100 | 1001100 |       |    -4.8356507425930E-01
 |       | 1011100 | 1011000 |       |     2.2285552063584E-01
 |       | 1011100 | 1010001 |       |     1.6695167704256E-01
 |       | 1011001 | 1110000 |       |     1.0455647873648E-01
 |       | 1010101 | 1011000 |       |    -1.0567282892022E-01
--------------------------------------------------
*** Contributions RASCI wfn    Active:  93.41
                                 Hole:   4.12
                                 Part:   2.47

      Mulliken population analysis 
 ---------------------------------------------------
   Atom    Charge (a.u.)   Spin (a.u.)  
 ---------------------------------------------------
   1 Mn    0.983078        0.179646 
   2  C   -0.296951        0.005520 
   3  N   -0.308049        0.000088 
   4  N    0.242810        0.595498 
   5  C   -0.255105       -0.000608 
   6  N   -0.303395        0.000414 
   7  C   -0.255105       -0.000608 
   8  N   -0.303395        0.000414 
   9  C   -0.254540       -0.003503 
  10  N   -0.320712        0.001195 
  11  C   -0.296951        0.005520 
  12  N   -0.308049        0.000088 
  13  O   -0.323637        0.216335 
 ---------------------------------------------------
   Sum:   -2.000000        1.000000 
 ---------------------------------------------------
 
  
 NATURAL OCCUPATION NUMBERS (higher than 1.0E-05)
            1           2           3           4           5           6
    1   2.0000000   2.0000000   2.0000000   2.0000000   2.0000000   2.0000000
            7           8           9          10          11          12
    1   2.0000000   2.0000000   2.0000000   2.0000000   2.0000000   2.0000000
           13          14          15          16          17          18
    1   2.0000000   2.0000000   2.0000000   2.0000000   2.0000000   2.0000000
           19          20          21          22          23          24
    1   2.0000000   2.0000000   2.0000000   2.0000000   2.0000000   2.0000000
           25          26          27          28          29          30
    1   2.0000000   2.0000000   2.0000000   2.0000000   2.0000000   2.0000000
           31          32          33          34          35          36
    1   2.0000000   2.0000000   2.0000000   2.0000000   2.0000000   1.9999996
           37          38          39          40          41          42
    1   1.9999981   1.9999980   1.9999979   1.9999966   1.9999962   1.9999903
           43          44          45          46          47          48
    1   1.9999599   1.9998483   1.9997507   1.9996923   1.9996644   1.9993701
           49          50          51          52          53          54
    1   1.9991552   1.9929345   1.9875970   1.7848401   1.7513829   0.9020736
           55          56          57          58          59          60
    1   0.4100850   0.1162412   0.0427343   0.0104787   0.0017376   0.0009395
           61          62          63          64          65          66
[...]
   161    8.232842564575e-03
   162    1.483866599918e-08
   163    1.447918116636e-03
   164   -6.400278092748e-10
   165   -4.468596577631e-03
   166    3.234255189703e-03
   167    2.029947473089e-10
   168    2.597229939486e-09
   169   -9.435569550957e-04
   170    6.578987390357e-03
   171    1.894218866180e-02
   172   -8.864058787567e-02
   173    3.257944177360e-01
   174   -2.983502592697e+00
   175   -2.334924025288e-08
   176   -1.963046920319e-02
   177    3.095869650005e-02
   178   -1.240461315438e-08
   179    8.114423599855e-03
   180    3.279981889878e-02
   181   -9.357177747826e-08
   182   -8.541602482484e-01
   183    6.542780931057e-02
   184   -1.140918971316e-03
   185    2.278805099008e-10
   186   -3.645422893010e-03
   187   -2.068475635998e-03
   188    7.586022273434e-10
   189    1.631077171808e-02
   190   -2.116246574365e-09
   191    5.352613930459e-03
   192    7.753122885813e-03
   193    4.858512564675e-09
   194   -9.406534371099e-04
   195   -3.726495793706e-10
   196    1.278510589853e-03
   197   -1.752671446199e-03
   198   -9.034977507466e-11
   199   -8.944142253737e-10
   200   -1.525707523646e-03
   201    4.798280498549e-03
   202    9.394707199048e-03
   203    1.934624562387e-02
   204   -2.700077911544e-01
   205    9.104519557446e+00
   206    3.140869944353e-08
   207    2.960419330751e-03
   208   -6.959038210041e-02
   209    2.362480622494e-08
   210   -1.256104286054e-02
   211   -1.714015033454e-01
   212    1.862969494126e-07
   213    1.692630257711e-01
   214    5.678304114048e-02
   215    1.785269812055e-02
   216   -1.344359173985e-09
   217    5.324707181884e-03
   218    9.031042468671e-03
   219   -1.306244925358e-09
   220   -7.151676403936e-02
   221    8.931870768537e-09
   222   -1.401231344780e-02
   223    8.232819887897e-03
   224   -6.724701212839e-09
   225    1.447918423267e-03
   226   -8.477977259138e-10
   227    4.468594930146e-03
   228    3.234255051269e-03
   229   -4.208828322474e-10
   230    1.543073458096e-09
   231    9.435564670554e-04
   232    6.578984114701e-03
   233    1.894218086367e-02
   234   -8.864057593537e-02
   235    3.257943872907e-01
   236   -2.983501683920e+00
   237   -3.003845627968e-08
   238    1.963047451065e-02
   239    3.095866117796e-02
   240   -2.017741491180e-08
   241   -8.114424904109e-03
   242    3.279979698968e-02
   243   -1.098033066196e-07
   244    8.541600044692e-01
   245    6.542769083404e-02
   246   -1.140917803460e-03
   247    3.069137178977e-10
   248    3.645421375998e-03
   249   -2.068474344405e-03
   250   -1.281102266951e-09
   251    1.631076880312e-02
   252   -1.946394373365e-09
   253   -5.352619150998e-03
   254    7.753109525231e-03
   255   -4.180363365687e-09
   256   -9.406538973499e-04
   257   -2.818913170560e-10
   258   -1.278510264251e-03
   259   -1.752672016126e-03
   260    1.268300678610e-10
   261   -6.293329758127e-10
   262    1.525708612049e-03
   263    1.174235432816e-02
   264    2.616205501216e-02
   265    1.113158369225e-02
   266   -3.917916471922e-01
   267   -8.131188725982e+00
   268   -2.180949085932e-07
   269    6.583351258013e-08
   270   -1.543687071717e-02
   271   -3.031690520118e-07
   272    9.559524362706e-08
   273    1.091248276200e-01
   274   -9.364431025874e-07
   275    2.806686220349e-07
   276   -4.740138444571e+00
   277   -6.964184409007e-03
   278   -8.855692444835e-09
   279    2.451443285572e-09
   280   -1.640782055581e-04
   281    4.301704438897e-10
   282   -1.636867124608e-01
   283   -1.258439855492e-08
   284    6.448942456365e-09
   285    7.833646872071e-05
   286   -3.158965748712e-09
   287    1.290148875032e-04
   288   -4.638782801108e-09
   289    1.638206358030e-09
   290   -1.155471547544e-04
   291   -1.515486096572e-10
   292    4.952353701923e-11
   293    2.074515121229e-10
   294    4.900506351975e-04
   295    2.376765489447e-03
   296   -3.287223200153e-02
   297    2.923157952504e-01
   298   -1.161526593955e+00
   299    1.547884050274e-07
   300   -4.735276617562e-08
   301   -2.312944885280e-02
   302    8.293230780561e-08
   303   -2.511735101138e-08
   304    8.989945216313e-02
   305    7.218724082186e-07
   306   -2.166936461177e-07
   307    1.452860975527e-01
   308   -4.982731129006e-03
   309   -1.093533856877e-08
   310    3.220375490229e-09
   311   -3.077535532848e-05
   312   -4.005797354458e-11
   313    4.087030524807e-02
   314    2.512972155790e-09
   315   -1.574282346689e-10
   316   -1.106710446641e-04
   317    3.154348018557e-10
   318    7.088979991418e-05
   319    8.413407725220e-10
   320   -3.217320297033e-10
   321   -3.665442264774e-05
   322    6.311462575680e-11
   323    3.577338811974e-11
   324   -2.906611012035e-12
   325    4.775015342269e-03
   326    9.237315144989e-03
   327    2.334748776759e-02
   328   -2.837450197233e-01
   329    9.471288994637e+00
   330   -3.740725247391e-03
   331    1.847554742311e-10
   332   -6.289544285711e-02
   333    1.069370343523e-02
   334    1.117720911447e-08
   335   -1.592950236353e-01
   336   -8.390485362521e-02
   337   -1.585595223049e-08
   338    9.754867768756e-02
   339    1.761798250029e-02
   340   -5.124894864033e-03
   341    6.073903862477e-10
   342   -9.104669045939e-03
   343   -3.073804486515e-10
   344   -6.579230479779e-02
   345    1.464079580675e-02
   346   -3.304993307627e-09
   347   -1.401842082962e-02
   348    2.933290388013e-09
   349    1.559636233508e-03
   350   -4.341200361519e-03
   351    4.665808561322e-10
   352   -3.209872618182e-03
   353   -1.913342256705e-10
   354    7.984293065453e-04
   355    4.837131916745e-10
   356    6.828784796401e-03
   357    1.959864945683e-02
   358   -9.092016606614e-02
   359    3.397393957110e-01
   360   -3.026357831935e+00
   361   -1.909211476134e-02
   362    1.314046146965e-09
   363    2.555831426036e-02
   364    1.331108500244e-02
   365    1.657430073540e-09
   366    3.019307928303e-02
   367   -8.742388511244e-01
   368    6.987388272092e-09
   369    4.091790661936e-02
   370   -1.154646742114e-03
   371   -3.299719226712e-03
   372   -7.132653669224e-11
   373    2.154166459515e-03
   374   -5.368448043465e-11
   375    1.659047282048e-02
   376    5.576364231595e-03
   377    9.217021165604e-10
   378   -8.472538439880e-03
   379    4.717402486437e-10
   380   -9.228236515666e-04
   381    1.340927139708e-03
   382    5.074478518450e-11
   383    1.718442043751e-03
   384    8.772454279727e-11
   385    1.370887855510e-03
   386   -1.021054870595e-10
   387    4.164291151827e-03
   388    1.097250731727e-02
   389   -4.474168523820e-02
   390    7.608919323261e-02
   391    7.351603067044e-01
   392    2.486925856583e-08
   393   -6.485950506978e-09
   394    6.913547396876e-02
   395    6.120461936608e-08
   396   -2.160302975313e-08
   397   -8.931398715121e-02
   398   -1.763464574378e-07
   399    8.006760428330e-08
   400   -6.853437989537e-01
   401   -1.242673672016e-02
   402   -3.549348351988e-09
   403    1.574860901331e-09
   404    1.019884444273e-04
   405   -1.505044470637e-10
   406    8.179396618533e-02
   407    4.063841843376e-09
   408   -1.810282226565e-09
   409   -1.432805399853e-03
   410    2.466923852661e-09
   411   -4.998126542276e-03
   412   -1.429304050262e-11
   413    6.396156778502e-11
   414   -4.477200848995e-05
   415    7.290264453279e-11
   416   -1.067896534103e-10
   417    5.489735454817e-13
Sym=X
Ene= 0.596179
Spin=Alpha
Occup=0
     1   -9.378210237914e-03
     2    1.775541431215e-02
     3   -9.771746286344e-02
     4    5.549799646836e-02
     5   -7.732240322470e+00
     6    5.554446524280e+00
     7    2.829444246895e-09
     8    2.670070377784e-10
     9    5.323783221053e-03
    10   -6.584734068510e-09
    11   -5.500236356699e-10
    12   -1.895694817272e-02
    13   -2.680101448142e-08
    14   -3.178778822209e-09
    15    5.149995517768e-02
    16    5.379457440808e-07
    17    2.835121289240e-08
    18   -3.877786072746e+00
    19   -2.006980478345e-02
    20   -3.075462637578e-09
    21   -3.906919561855e-11
    22    8.408508793545e-03
    23   -5.247050095261e-10
    24    1.971224838987e-02
    25   -4.323621938601e-09
    26   -2.703488578998e-10
    27    6.844630292042e-03
    28   -3.750754070770e-10
    29   -4.899668397710e-01
    30    1.456135426598e-08
    31    2.405689926751e-09
    32    7.544853262736e-03
    33    1.405662578607e-11
    34    2.914285979310e+00
    35   -2.740883723440e-07
    36   -6.001932255913e-08
    37    1.871541165338e-01
    38    4.848099191316e-08
    39    2.047855640677e-03
    40   -3.850208088588e-11
    41    3.428925913567e-11
    42    4.135567474679e-05
    43    1.468802262899e-10
    44    4.390363769760e-10
    45    2.180446919496e-11
    46    3.733846164508e-06
    47   -1.571464191807e-04
    48    2.514836214503e-02
    49   -1.518726419729e-01
    50   -1.794925886479e+00
    51   -7.523181409110e-03
    52    1.563232872934e-09
    53   -4.291965711881e-02
    54   -1.376097203579e-01
    55    5.675899828666e-09
    56   -9.011816133710e-02
    57   -2.075147345511e+00
    58   -3.605806987416e-08
    59    3.356459433734e-01
    60    2.890153952799e-03
    61    1.996936727000e-03
    62   -2.237323204818e-10
    63    1.073068811624e-02
    64   -2.954103490701e-10
    65    3.696629563169e-03
    66   -6.715782395817e-02
    67    1.092682601825e-09
    68   -7.927156969517e-02
    69    4.708565872347e-09
    70    2.482180591454e-03
    71    4.762704873844e-03
    72   -5.393231397591e-11
    73   -6.593181839659e-03
    74   -1.298926454665e-10
    75   -6.305022662989e-05
    76    3.050334383398e-10
    77   -7.844421427234e-03
    78   -2.026310019386e-02
    79    5.332627932183e-02
    80   -5.762430806784e-02
    81    2.613957734207e+00
    82   -5.349945345994e-03
    83    1.271330119453e-09
    84   -1.051037852403e-02
    85   -5.302332339798e-02
    86   -1.337592745424e-10
    87    9.682923041465e-03
    88   -6.877548279333e-01
    89    4.565795842680e-09
    90    1.413068365194e-01
    91   -4.772061025553e-04
    92    4.227396071340e-03
    93    3.948996602951e-11
    94   -1.557279294323e-03
    95   -1.297475591876e-10
    96    7.134356395767e-04
    97   -2.935715367132e-02
    98   -3.760357907756e-10
    99    3.165634821162e-02
   100    1.174872663134e-09
   101   -2.053343276317e-03
   102   -1.447238013501e-03
   103    3.983721244488e-11
   104    2.942060194328e-03
   105    5.748394342761e-11
   106   -1.229687713831e-03
   107   -1.695916546418e-10
   108    1.379398721260e-02
   109    3.536904334409e-02
   110   -2.559102912352e-02
   111   -5.909925706804e-01
   112   -5.911625346857e+00
   113    7.610188451820e-09
   114    5.257726013241e-10
   115   -9.380963292855e-02
   116    3.387063664504e-10
   117   -1.631696265860e-10
   118   -5.157307578075e-01
   119    1.092660607491e-07
   120    1.765088678013e-08
   121   -7.165140058425e+00
   122   -1.650019109194e-03
   123   -8.893963628062e-10
   124   -6.514044323953e-11
   125   -1.651264373537e-04
   126    5.857475872706e-10
   127   -4.556236910872e-02
   128    1.142742678690e-08
   129    1.101386623270e-09
   130   -1.057845901348e-03
   131    1.639828713774e-09
   132   -1.277211375305e-02
   133    6.901751920559e-10
   134    1.053499956254e-10
   135    3.032221122542e-04
   136   -4.540682693765e-10
   137    2.604112706012e-10
   138   -1.720503290553e-11
   139   -9.004217962901e-04
   140   -2.352950043454e-03
   141    3.199918301774e-02
   142   -1.833755250359e-01
   143   -1.443765062216e+00
   144    9.268764765929e-09
   145    1.092223575599e-02
   146   -4.233250626925e-02
   147    2.125789256959e-08
   148    1.446111696870e-01
   149   -8.487006752407e-02
   150    3.045958516252e-08
   151    2.283607309234e+00
   152    3.564546583171e-01
   153    3.318515847687e-03
   154   -9.236828889393e-10
   155   -2.368055565944e-03
   156   -9.824078309991e-03
   157    8.264897778728e-10
   158    4.557725392332e-03
   159    9.934548985936e-10
   160    6.670325884232e-02
   161    8.060962018576e-02
   162   -1.258881562260e-08
   163    2.380442644860e-03
   164   -3.727381172632e-10
   165   -4.809281690106e-03
   166    6.425272377526e-03
   167    2.943059101907e-10
   168   -5.193332497480e-10
   169   -1.190462847142e-04
   170   -7.583467126667e-03
   171   -1.969257570903e-02
   172    5.283259709235e-02
   173   -6.290615547640e-02
   174    2.706106468073e+00
   175   -7.193865471145e-10
   176    2.106699673214e-03
   177   -9.598039311517e-03
   178   -2.781846958151e-09
   179    5.420877296011e-02
   180    1.174291787359e-02
   181   -3.070811387445e-08
   182    6.960781363386e-01
   183    1.389951536913e-01
   184   -4.504845320962e-04
   185    1.454025431607e-10
   186   -4.133240905808e-03
   187    1.614224122432e-03
   188    9.449984175629e-10
   189   -1.246726116218e-04
   190   -2.315258947043e-09
   191    2.908585218440e-02
   192   -3.278233794841e-02
   193   -4.947866866122e-09
   194   -2.023449050857e-03
   195    1.009159392886e-10
   196    1.370499815314e-03
   197   -2.889634703028e-03
   198   -2.231471359899e-10
   199    4.657635918144e-10
   200   -1.293239315884e-03
   201   -9.004219691963e-04
   202   -2.352950726014e-03
   203    3.199918220482e-02
   204   -1.833754636675e-01
   205   -1.443765005315e+00
   206    9.600997238243e-09
   207   -1.092223383954e-02
   208   -4.233250066434e-02
   209    2.171989435082e-08
   210   -1.446111180244e-01
   211   -8.487005921212e-02
   212   -1.071216021066e-08
   213   -2.283607253390e+00
   214    3.564547124791e-01
   215    3.318515060374e-03
   216   -8.979020535644e-10
   217    2.368055382636e-03
   218   -9.824079855055e-03
   219   -1.101990132334e-09
   220    4.557719850650e-03
   221    1.362569734891e-09
   222   -6.670326310539e-02
   223    8.060960991741e-02
   224    1.774465839357e-08
   225    2.380442899733e-03
   226   -4.717474551865e-10
   227    4.809280780474e-03
   228    6.425272778695e-03
   229   -3.767714759156e-10
   230   -8.783170364324e-10
   231    1.190449817024e-04
   232   -7.583467064477e-03
   233   -1.969257554261e-02
   234    5.283260000886e-02
   235   -6.290618494939e-02
   236    2.706106344840e+00
   237    1.080684999492e-09
   238   -2.106702170753e-03
   239   -9.598042212641e-03
   240   -2.675727285443e-09
   241   -5.420875208141e-02
   242    1.174291694479e-02
   243   -2.386187749517e-08
   244   -6.960780826637e-01
   245    1.389951203880e-01
   246   -4.504846961083e-04
   247    1.663130912033e-10
   248    4.133240431718e-03
   249    1.614223768957e-03
   250   -1.025197046859e-09
   251   -1.246679566809e-04
   252   -2.263068243504e-09
   253   -2.908585091531e-02
   254   -3.278232993362e-02
   255    6.265292012805e-09
   256   -2.023448983645e-03
   257    1.557010714883e-10
   258   -1.370500276858e-03
   259   -2.889634630580e-03
   260    2.457578797942e-10
   261    6.412505769452e-10
   262    1.293238725402e-03
   263   -3.183336116070e-04
   264   -2.179095622422e-03
   265   -8.947012730313e-02
   266    9.643433514261e-01
   267   -4.600919587531e+00
   268    3.271091646565e-08
   269    3.600534633817e-09
   270   -2.339561089955e-02
   271    3.906133562586e-08
   272    2.836799625864e-09
   273   -7.752630255541e-01
   274    1.680902564795e-08
   275   -1.512108566282e-08
   276   -1.542095427972e+00
   277    1.878008749540e-02
   278    2.938220274323e-09
   279    4.073448161882e-10
   280   -1.703203904023e-04
   281    1.832650069166e-10
   282    3.118614038236e-01
   283   -1.986684962420e-08
   284   -2.497398670734e-09
   285    5.185625533073e-04
   286   -1.419446851359e-09
   287   -1.672678830716e-02
   288    9.950520361096e-10
   289   -5.854874416793e-11
   290    9.412233896491e-05
   291   -8.472325945723e-11
   292    4.663946238842e-11
   293    1.233988048515e-11
   294    2.416122885342e-03
   295    3.627765727540e-03
   296    7.382753004183e-02
   297   -8.024639520672e-01
   298   -6.224487560571e-01
   299   -1.958316762582e-08
   300   -1.491055054599e-09
   301    4.910174685948e-02
   302   -2.309489636785e-08
   303   -1.354128423509e-09
   304   -3.607917150452e-01
   305   -6.722368961279e-08
   306   -3.040777696344e-09
   307   -3.125846134664e-01
   308    3.252223314490e-03
   309    1.571143846268e-09
   310    1.294891412556e-10
   311    3.039390549421e-05
   312   -1.542334161926e-11
   313   -1.141799356515e-01
   314   -3.386287942786e-09
   315    1.428383294774e-10
   316   -2.755740956378e-04
   317    1.062647435311e-10
   318   -6.218200980935e-03
   319   -4.381107966892e-10
   320    4.681383754605e-11
   321   -1.843602184485e-05
   322    2.060438496566e-11
   323   -1.253332553358e-11
   324    2.317997427445e-12
   325    3.734183361643e-06
   326   -1.571463461825e-04
   327    2.514838916019e-02
   328   -1.518730543890e-01
   329   -1.794925540881e+00
   330    7.523195273443e-03
   331    1.035686991318e-09
   332   -4.291972518798e-02
   333    1.376099045063e-01
   334    4.326271834111e-09
   335   -9.011832294865e-02
   336    2.075148328959e+00
   337    1.100327788903e-08
   338    3.356458161031e-01
   339    2.890160247886e-03
   340   -1.996939008558e-03
   341   -2.501751361310e-10
   342    1.073067631210e-02
   343   -1.770946347104e-11
   344    3.696618588207e-03
   345    6.715783893203e-02
   346    6.581411361686e-10
   347   -7.927155053866e-02
   348   -3.242085449387e-10
   349    2.482182681285e-03
   350   -4.762708240708e-03
   351   -6.686975778480e-12
   352   -6.593184054824e-03
   353    7.174294944908e-11
   354    6.305356826429e-05
   355    1.375378760524e-10
   356   -7.844420901038e-03
   357   -2.026309974350e-02
   358    5.332628042135e-02
   359   -5.762435431760e-02
   360    2.613958721539e+00
   361    5.349927968651e-03
   362   -4.931516054105e-10
   363   -1.051035741769e-02
   364    5.302337076192e-02
   365   -5.290098144228e-10
   366    9.682935390328e-03
   367    6.877550808282e-01
   368   -4.452191680393e-09
   369    1.413070643998e-01
   370   -4.772056513732e-04
   371   -4.227401062778e-03
   372    2.006669683793e-11
   373   -1.557281010580e-03
   374    9.099227738917e-11
   375    7.134204565067e-04
   376    2.935716826056e-02
   377   -4.597052664337e-10
   378    3.165637698055e-02
   379   -4.687287214841e-10
   380   -2.053344843871e-03
   381    1.447236489951e-03
   382    1.179569932624e-11
   383    2.942062187917e-03
   384   -5.086466431124e-11
   385    1.229690111785e-03
   386   -9.007767464499e-11
   387   -2.884608054846e-02
   388   -7.688315838338e-02
   389    1.887415449431e-01
   390   -4.146324954874e-01
   391    8.012483295393e+00
   392    1.409202400702e-08
   393    1.386442760073e-09
   394    1.497203937503e-02
   395    2.875189842033e-08
   396    2.267768177995e-09
   397   -6.069806703611e-02
   398   -7.080869986118e-08
   399   -5.653506015513e-09
   400   -3.470737873975e+00
   401   -2.284118229767e-02
   402   -1.121292340127e-09
   403   -1.148345455990e-10
   404    9.027865991632e-05
   405   -9.834278499944e-11
   406    1.292774827676e-01
   407    4.453069591224e-09
   408    5.004846105820e-10
   409    1.225619145907e-03
   410   -1.109464140743e-09
   411   -9.413030133903e-03
   412   -2.989640698554e-10
   413   -4.650835467832e-11
   414   -5.410788908235e-06
   415   -4.775430513001e-11
   416   -2.110579561817e-11
   417   -9.212426096685e-12
[5D7F]

======= END OF MOLDEN-FORMATTED INPUT FILE =======


        *************************************************************
        *                                                           *
        *  Thank you very much for using Q-Chem.  Have a nice day.  *
        *                                                           *
        *************************************************************


