                  Welcome to Q-Chem
     A Quantum Leap Into The Future Of Chemistry


 Q-Chem 6.0 (devel), Q-Chem, Inc., Pleasanton, CA (2022)

 E. Epifanovsky,  A. T. B. Gilbert,  Xintian Feng,  Joonho Lee,  Yuezhi Mao,  
 N. Mardirossian,  P. Pokhilko,  A. White,  M. Wormit,  M. P. Coons,  
 A. L. Dempwolff,  Zhengting Gan,  D. Hait,  P. R. Horn,  L. D. Jacobson,  
 I. Kaliman,  J. Kussmann,  A. W. Lange,  Ka Un Lao,  D. S. Levine,  Jie Liu,  
 S. C. McKenzie,  A. F. Morrison,  K. Nanda,  F. Plasser,  D. R. Rehn,  
 M. L. Vidal,  Zhi-Qiang You,  Ying Zhu,  B. Alam,  B. Albrecht,  
 A. Aldossary,  E. Alguire,  J. H. Andersen,  V. Athavale,  D. Barton,  
 K. Begam,  A. Behn,  N. Bellonzi,  Y. A. Bernard,  E. J. Berquist,  
 H. Burton,  A. Carreras,  K. Carter-Fenk,  Romit Chakraborty,  
 Chandrima Chakravarty,  Junhan Chen,  A. D. Chien,  K. D. Closser,  
 V. Cofer-Shabica,  L. Cunha,  S. Dasgupta,  Jia Deng,  M. de Wergifosse,  
 M. Diedenhofen,  Hainam Do,  S. Ehlert,  Po-Tung Fang,  S. Fatehi,  
 Qingguo Feng,  T. Friedhoff,  B. Ganoe,  J. Gayvert,  Qinghui Ge,  
 G. Gidofalvi,  M. Goldey,  J. Gomes,  C. Gonzalez-Espinoza,  S. Gulania,  
 A. Gunina,  J. A. Gyamfi,  M. W. D. Hanson-Heine,  P. H. P. Harbach,  
 A. W. Hauser,  M. F. Herbst,  M. Hernandez Vera,  M. Hodecker,  
 Z. C. Holden,  S. Houck,  Xunkun Huang,  Kerwin Hui,  B. C. Huynh,  
 K. Ikeda,  M. Ivanov,  Hyunjun Ji,  Zuxin Jin,  Hanjie Jiang,  B. Kaduk,  
 S. Kaehler,  R. Kang,  K. Khistyaev,  Jaehoon Kim,  Yongbin Kim,  
 P. Klunzinger,  Z. Koczor-Benda,  Joong Hoon Koh,  D. Kosenkov,  
 Saikiran Kotaru,  L. Koulias,  T. Kowalczyk,  C. M. Krauter,  K. Kue,  
 A. Kunitsa,  T. Kus,  A. Landau,  K. V. Lawler,  D. Lefrancois,  S. Lehtola,  
 Rain Li,  Shaozhi Li,  Yi-Pei Li,  Jiashu Liang,  M. Liebenthal,  
 Hung-Hsuan Lin,  You-Sheng Lin,  Fenglai Liu,  Kuan-Yu Liu,  
 M. Loipersberger,  A. Luenser,  C. Malbon,  A. Manjanath,  P. Manohar,  
 E. Mansoor,  S. F. Manzer,  Shan-Ping Mao,  A. V. Marenich,  T. Markovich,  
 S. Mason,  F. Matz,  S. A. Maurer,  P. F. McLaughlin,  M. F. S. J. Menger,  
 J.-M. Mewes,  S. A. Mewes,  P. Morgante,  Mohammad Mostafanejad,  
 J. W. Mullinax,  K. J. Oosterbaan,  G. Paran,  V. Parravicini,  
 Alexander C. Paul,  Suranjan K. Paul,  F. Pavosevic,  Zheng Pei,  S. Prager,  
 E. I. Proynov,  E. Ramos,  B. Rana,  A. E. Rask,  A. Rettig,  R. M. Richard,  
 F. Rob,  E. Rossomme,  T. Scheele,  M. Scheurer,  M. Schneider,  
 P. E. Schneider,  N. Sergueev,  S. M. Sharada,  Hengyuan Shen,  
 W. Skomorowski,  D. W. Small,  C. J. Stein,  Yingli Su,  Yu-Chuan Su,  
 E. J. Sundstrom,  Zhen Tao,  J. Thirman,  Hung-Yi Tsai,  T. Tsuchimochi,  
 N. M. Tubman,  C. Utku,  S. P. Veccham,  O. Vydrov,  J. Wenzel,  
 Jonathan Wong,  J. Witte,  A. Yamada,  Chou-Hsun Yang,  Kun Yao,  
 S. Yeganeh,  S. R. Yost,  A. Zech,  F. Zeller,  Igor Ying Zhang,  
 Xing Zhang,  Yu Zhang,  D. Zuev,  A. Aspuru-Guzik,  A. T. Bell,  
 N. A. Besley,  K. B. Bravaya,  B. R. Brooks,  D. Casanova,  Jeng-Da Chai,  
 Hsing-Ta Chen,  S. Coriani,  C. J. Cramer,  A. E. DePrince, III,  
 R. A. DiStasio Jr.,  A. Dreuw,  B. D. Dunietz,  T. R. Furlani,  
 W. A. Goddard III,  S. Grimme,  S. Hammes-Schiffer,  T. Head-Gordon,  
 W. J. Hehre,  Chao-Ping Hsu,  T.-C. Jagau,  Yousung Jung,  A. Klamt,  
 Jing Kong,  D. S. Lambrecht,  Xiangyuan Li,  WanZhen Liang,  N. J. Mayhall,  
 C. W. McCurdy,  J. B. Neaton,  T. Neudecker,  C. Ochsenfeld,  
 J. A. Parkhill,  R. Peverati,  V. A. Rassolov,  Haisheng Ren,  Yihan Shao,  
 L. V. Slipchenko,  R. P. Steele,  J. E. Subotnik,  A. J. W. Thom,  
 A. Tkatchenko,  D. G. Truhlar,  T. Van Voorhis,  Fan Wang,  
 T. A. Wesolowski,  K. B. Whaley,  H. L. Woodcock III,  P. M. Zimmerman,  
 S. Faraji,  P. M. W. Gill,  M. Head-Gordon,  J. M. Herbert,  A. I. Krylov

 Contributors to earlier versions of Q-Chem not listed above: 
 R. D. Adamson,  B. Austin,  R. Baer,  J. Baker,  G. J. O. Beran,  
 K. Brandhorst,  S. T. Brown,  E. F. C. Byrd,  Arup K. Chakraborty,  
 G. K. L. Chan,  Chun-Min Chang,  Yunqing Chen,  C.-L. Cheng,  
 Siu Hung Chien,  D. M. Chipman,  D. L. Crittenden,  H. Dachsel,  
 R. J. Doerksen,  A. D. Dutoi,  R. G. Edgar,  J. Fosso-Tande,  
 L. Fusti-Molnar,  D. Ghosh,  A. Ghysels,  A. Golubeva-Zadorozhnaya,  
 J. Gonthier,  M. S. Gordon,  S. R. Gwaltney,  G. Hawkins,  J. E. Herr,  
 A. Heyden,  S. Hirata,  E. G. Hohenstein,  G. Kedziora,  F. J. Keil,  
 C. Kelley,  Jihan Kim,  R. A. King,  R. Z. Khaliullin,  P. P. Korambath,  
 W. Kurlancheek,  A. Laurent,  A. M. Lee,  M. S. Lee,  S. V. Levchenko,  
 Ching Yeh Lin,  D. Liotard,  E. Livshits,  R. C. Lochan,  I. Lotan,  
 L. A. Martinez-Martinez,  P. E. Maslen,  N. Nair,  D. P. O'Neill,  
 D. Neuhauser,  E. Neuscamman,  C. M. Oana,  R. Olivares-Amaya,  R. Olson,  
 T. M. Perrine,  B. Peters,  P. A. Pieniazek,  A. Prociuk,  Y. M. Rhee,  
 J. Ritchie,  M. A. Rohrdanz,  E. Rosta,  N. J. Russ,  H. F. Schaefer III,  
 M. W. Schmidt,  N. E. Schultz,  S. Sharma,  N. Shenvi,  C. D. Sherrill,  
 A. C. Simmonett,  A. Sodt,  T. Stein,  D. Stuck,  K. S. Thanthiriwatte,  
 V. Vanovschi,  L. Vogt,  Tao Wang,  A. Warshel,  M. A. Watson,  
 C. F. Williams,  Q. Wu,  X. Xu,  Jun Yang,  W. Zhang,  Yan Zhao

   Please cite Q-Chem as follows:
  "Software for the frontiers of quantum chemistry:
   An overview of developments in the Q-Chem 5 package"
   J. Chem. Phys. 155, 084801 (2021)
   https://doi.org/10.1063/5.0055522 (open access)

 Q-Chem 6.0.1 for Intel X86 EM64T Linux

 Parts of Q-Chem use Armadillo 9.900.5 (Nocturnal Misbehaviour).
 http://arma.sourceforge.net/

 Q-Chem begins on Fri Jan 26 17:37:24 2024  

 Host: atlas-269
0

     Scratch files written to ./qchem171536//
 Processing $rem in /scratch/abel/SOFTWARE/qchem/config/preferences:
 Processing $rem in /dipc/acebg/.qchemrc:
 Core orbitals will be frozen

 Checking the input file for inconsistencies... 	...done.

--------------------------------------------------------------
User input:
--------------------------------------------------------------
$comment
 RAS-SF CALCULATION
$end

$molecule
 READ anthracene_opt.molecule
$end

$rem
!**CALCULATION TYPE***     
JOBTYPE            sp    
!BASIS              def2-TZVP
BASIS             STO-3G

!***SCF REFERENCE***
!SKIP_SCFMAN        FALSE
UNRESTRICTED       FALSE
!SCF_GUESS          core
!SCF_GUESS_MIX      FALSE
!SCF_GUESS_ALWAYS   FALSE
MAX_SCF_CYCLES     500
!SCF_CONVERGENCE    10
SCF_ALGORITHM      DIIS_GDM !DIIS,DM,DIIS_DM,GDM,DIIS_GDM,GD

!SYMMETRY           TRUE   !use of symmetry for calculating integrals
!SYM_IGNORE         FALSE  !turn off using symmetry
!SYM_TOL            5      !tolerance for determining point group
!USE_ABELIAN_SUBGROUP      !define to use abelian group

!THRESH             14
!SCF_FINAL_PRINT     1 !0,1,2,3

!****CCSD****
CORRELATION        CCSD
!CC_CONVERGENCE     6
!CC_MAX_ITER        200
CC_PRINT	   2
!CHOLESKY_TOL       3 !Toler. decomposition 2e integrals
CC_REF_PROP  	   1 !one-particle CCSD properties calculation
!CC_REF_PROP_TE	   0 !two-particle CCSD properties calculation
!CC_FNO_THRESH
!CC_BACKEND	   XM !Used to specify the computational back-end of CCMAN2.

!****EOM****
METHOD             EOM-MP2
EE_STATES	   [20]
CC_STATE_TO_OPT    [1,1]
CC_EOM_PROP        1
CC_EOM_PROP_TE	   1
CC_TRANS_PROP      1
CALC_SOC           TRUE   !calculate SOC for EOM-CC, RAS-CI, ADC, TDDFT/TDA and TDDFT

!****MEMORY****
MEM_TOTAL          90000 !Default 2000 MB
MEM_STATIC         1000  !Default 64 MB
CC_MEMORY          72000

!**Molecular Properties and Analysis **                                                                                          
!POP_MULLIKEN       TRUE   !Run Mulliken population analysis
!LOWDIN_POPULATION  TRUE   !Run Löwdin population analysis
GUI                0       !Checkpoints generation
!STATE_ANALYSIS     TRUE

!**Wave function analysis**
!PLOTS = 0     ! Note: This can be omitted, default is 0
!NTO_PAIRS = 2 ! Note: This can be omitted, default is 2
!GUI 0
!MOLDEN_FORMAT      TRUE
!PRINT_ORBITALS     15
$end

!$plots
!   grid_points 100 100 100
!   grid_range  (-10,10) (-10,10) (-10,10)
!$end

--------------------------------------------------------------
 ----------------------------------------------------------------
             Standard Nuclear Orientation (Angstroms)
    I     Atom           X                Y                Z
 ----------------------------------------------------------------
    1      C       1.2528696110    -0.7144616643     0.0000611748
    2      C       2.4661185256    -1.3873929098     0.0000888763
    3      H       2.4670317640    -2.4712684532    -0.0003057438
    4      C       3.6841006918    -0.6876643530     0.0000015246
    5      H       4.6172560521    -1.2351253405    -0.0000635121
    6      C       3.6841005673     0.6876646405     0.0001354170
    7      H       4.6172557863     1.2351258725     0.0001490616
    8      C       2.4661182998     1.3873930201     0.0000396542
    9      H       2.4670309197     2.4712685933     0.0003432278
   10      C       1.2528695387     0.7144615088    -0.0000846763
   11      C       0.0000005393    -1.4023074043    -0.0001838106
   12      H       0.0000006531    -2.4857083698    -0.0004570569
   13      C      -0.0000005712     1.4023074721    -0.0001838566
   14      H      -0.0000006933     2.4857084373    -0.0004585605
   15      C      -1.2528696259     0.7144617005     0.0000593180
   16      C      -2.4661185573     1.3873929157     0.0000876230
   17      H      -2.4670314450     2.4712684589    -0.0003085620
   18      C      -3.6841006695     0.6876642646     0.0000023815
   19      H      -4.6172559004     1.2351254729    -0.0000599772
   20      C      -3.6841005823    -0.6876647288     0.0001370081
   21      H      -4.6172558928    -1.2351258048     0.0001546533
   22      C      -2.4661182611    -1.3873930144     0.0000375438
   23      H      -2.4670312506    -2.4712685875     0.0003405012
   24      C      -1.2528695051    -0.7144614941    -0.0000871830
 ----------------------------------------------------------------
 Molecular Point Group                 C1    NOp =  1
 Largest Abelian Subgroup              C1    NOp =  1
 Nuclear Repulsion Energy =         766.54296530 hartrees
 There are       48 alpha and       46 beta electrons
 Requested basis set is STO-3G
 There are 38 shells and 80 basis functions
 Total memory of 90000 MB is distributed as follows: 
   MEM_STATIC is set to 1000 MB
   QALLOC/CCMAN JOB total memory use is  89000 MB
 Warning: actual memory use might exceed 90000 MB

 Total QAlloc Memory Limit  90000 MB
 Mega-Array Size       978 MB
 MEM_STATIC part      1000 MB

 A cutoff of  1.0D-14 yielded    636 shell pairs
 There are      3171 function pairs
 Smallest overlap matrix eigenvalue = 1.70E-01

 Scale SEOQF with 1.000000e-01/1.000000e-01/1.000000e+00

 Standard Electronic Orientation quadrupole field applied
 Nucleus-field energy     =     0.0000000318 hartrees
 Guess from superposition of atomic densities
 Warning:  Energy on first SCF cycle will be non-variational
 SAD guess density has 94.000000 electrons

 -----------------------------------------------------------------------
  General SCF calculation program by
  Eric Jon Sundstrom, Paul Horn, Yuezhi Mao, Dmitri Zuev, Alec White,
  David Stuck, Shaama M.S., Shane Yost, Joonho Lee, David Small,
  Daniel Levine, Susi Lehtola, Hugh Burton, Evgeny Epifanovsky,
  Bang C. Huynh
 -----------------------------------------------------------------------
 Hartree-Fock
 Orthonormalizing orbitals
 A restricted open-shell SCF calculation will be
 performed using DIIS, GDM
 SCF converges when RMS gradient is below 1.0e-08
 ---------------------------------------
  Cycle       Energy         DIIS error
 ---------------------------------------
    1    -525.9131044981      1.83e-01  
    2    -527.6700123972      1.27e-01  
    3    -529.3328920514      1.78e-02  
    4    -529.3756592783      7.56e-03  Done DIIS. Switching to GDM
 ---------------------------------------
  Cycle       Energy        RMS Gradient
 ---------------------------------------
    1    -529.3756592783      8.94e-02   Normal BFGS step
    2    -529.3974505011      8.70e-02   Normal BFGS step
    3    -529.4068516860      2.74e-02   Normal BFGS step
    4    -529.4088732064      1.69e-02   Normal BFGS step
    5    -529.4095232755      4.09e-03   Normal BFGS step
    6    -529.4095755893      1.99e-03   Normal BFGS step
    7    -529.4095953448      5.16e-04   Normal BFGS step
    8    -529.4095957947      1.19e-04   Normal BFGS step
    9    -529.4095958369      2.13e-05   Normal BFGS step
   10    -529.4095958377      1.75e-06   Normal BFGS step
   11    -529.4095958378      3.87e-07   Normal BFGS step
   12    -529.4095958378      9.86e-08   Normal BFGS step
   13    -529.4095958378      2.73e-08   Normal BFGS step
   14    -529.4095958378      1.17e-08   Normal BFGS step
   15    -529.4095958378      2.12e-09  Convergence criterion met
The disked orbital energies are calculated using alpha and beta Focks
 ---------------------------------------
 SCF time:   CPU 4.01s  wall 4.00s 
<S^2> =          2.000000000
 SCF   energy in the final basis set =     -529.4095958378
 Total energy in the final basis set =     -529.4095958378
 mp2 is not implemented in computing transition properties!


 ------------------------------------------------------------------------------

   CCMAN2: suite of methods based on coupled cluster
           and equation of motion theories.

   Components:
   * libvmm-1.3-trunk
     by Evgeny Epifanovsky, Ilya Kaliman.
   * libtensor-2.5-trunk
     by Evgeny Epifanovsky, Michael Wormit, Dmitry Zuev, Sam Manzer, 
        Ilya Kaliman.
   * libcc-2.5-trunk
     by Evgeny Epifanovsky, Arik Landau, Tomasz Kus, Kirill Khistyaev, 
        Dmitry Zuev, Prashant Manohar, Xintian Feng, Anna Krylov, 
        Matthew Goldey, Alec White, Thomas Jagau, Kaushik Nanda, 
        Anastasia Gunina, Alexander Kunitsa, Joonho Lee.

   CCMAN original authors:
   Anna I. Krylov, C. David Sherrill, Steven R. Gwaltney,
   Edward F. C. Byrd (2000)
   Sergey V. Levchenko, Lyudmila V. Slipchenko, Tao Wang,
   Ana-Maria C. Cristian (2003)
   Piotr A. Pieniazek, C. Melania Oana, Evgeny Epifanovsky (2007)
   Prashant Manohar (2009)

 ------------------------------------------------------------------------------


 Allocating and initializing 72000MB of RAM...
 Calculation will run on 1 core.

 
 Alpha MOs, Restricted
 -- Doubly Occupied --           
-11.039 -11.039 -11.039 -11.039 -11.029 -11.029 -11.028 -11.028
  1 A     2 A     3 A     4 A     5 A     6 A     7 A     8 A                  
-11.027 -11.027 -11.027 -11.027 -11.027 -11.027  -1.132  -1.093
  9 A    10 A    11 A    12 A    13 A    14 A    15 A    16 A                  
 -1.028  -1.011  -0.962  -0.954  -0.901  -0.840  -0.778  -0.771
 17 A    18 A    19 A    20 A    21 A    22 A    23 A    24 A                  
 -0.756  -0.697  -0.658  -0.638  -0.591  -0.583  -0.576  -0.559
 25 A    26 A    27 A    28 A    29 A    30 A    31 A    32 A                  
 -0.530  -0.524  -0.509  -0.498  -0.509  -0.471  -0.463  -0.439
 33 A    34 A    35 A    36 A    37 A    38 A    39 A    40 A                  
 -0.413  -0.410  -0.358  -0.343  -0.295  -0.285
 41 A    42 A    43 A    44 A    45 A    46 A                                  
 -- Singly Occupied (Occupied) --
 -0.317  -0.194
 47 A    48 A                                                                  
 -- Virtual --                   
  0.251   0.253   0.293   0.319   0.487   0.540   0.584   0.587
 49 A    50 A    51 A    52 A    53 A    54 A    55 A    56 A                  
  0.600   0.630   0.659   0.675   0.681   0.686   0.726   0.727
 57 A    58 A    59 A    60 A    61 A    62 A    63 A    64 A                  
  0.744   0.767   0.772   0.775   0.856   0.883   0.883   0.887
 65 A    66 A    67 A    68 A    69 A    70 A    71 A    72 A                  
  0.956   0.972   0.973   0.979   1.100   1.104   1.167   1.190
 73 A    74 A    75 A    76 A    77 A    78 A    79 A    80 A                  
 
 Beta MOs, Restricted
 -- Doubly Occupied --           
-11.039 -11.039 -11.039 -11.039 -11.028 -11.028 -11.028 -11.028
  1 A     2 A     3 A     4 A     5 A     6 A     7 A     8 A                  
-11.025 -11.025 -11.025 -11.025 -11.010 -11.010  -1.114  -1.087
  9 A    10 A    11 A    12 A    13 A    14 A    15 A    16 A                  
 -1.009  -0.981  -0.955  -0.949  -0.864  -0.818  -0.772  -0.751
 17 A    18 A    19 A    20 A    21 A    22 A    23 A    24 A                  
 -0.751  -0.682  -0.653  -0.629  -0.584  -0.578  -0.567  -0.556
 25 A    26 A    27 A    28 A    29 A    30 A    31 A    32 A                  
 -0.526  -0.514  -0.501  -0.493  -0.470  -0.466  -0.443  -0.435
 33 A    34 A    35 A    36 A    37 A    38 A    39 A    40 A                  
 -0.405  -0.404  -0.314  -0.292  -0.264  -0.266
 41 A    42 A    43 A    44 A    45 A    46 A                                  
 -- Singly Occupied (Vacant) --  
  0.170   0.289
 47 A    48 A                                                                  
 -- Virtual --                   
  0.270   0.285   0.350   0.364   0.508   0.585   0.592   0.592
 49 A    50 A    51 A    52 A    53 A    54 A    55 A    56 A                  
  0.602   0.671   0.661   0.685   0.688   0.722   0.731   0.734
 57 A    58 A    59 A    60 A    61 A    62 A    63 A    64 A                  
  0.751   0.775   0.780   0.783   0.866   0.886   0.886   0.898
 65 A    66 A    67 A    68 A    69 A    70 A    71 A    72 A                  
  0.963   0.981   0.982   0.986   1.104   1.106   1.172   1.197
 73 A    74 A    75 A    76 A    77 A    78 A    79 A    80 A                  

 Occupation and symmetry of molecular orbitals

 Point group: C1 (1 irreducible representation).

                           A     All 
 -------------------------------------
 All molecular orbitals:
  - Alpha                  80    80  
  - Beta                   80    80  
 -------------------------------------
 Alpha orbitals:
  - Frozen occupied        14    14  
  - Active occupied        34    34  
  - Active virtual         32    32  
  - Frozen virtual         0     0   
 -------------------------------------
 Beta orbitals:
  - Frozen occupied        14    14  
  - Active occupied        32    32  
  - Active virtual         34    34  
  - Frozen virtual         0     0   
 -------------------------------------

 Import integrals:   CPU 0.00 s  wall 0.00 s

 Molecular orbitals will be canonicalized.
 Import integrals:   CPU 2.83 s  wall 2.91 s

 Computing CCSD intermediates for later calculations in double precision
 Finished.

 MP2 amplitudes:   CPU 5.15 s  wall 5.19 s

        Solving for EOMEE-CCSD A transitions.

Running a double precision version
        EOMEE-CCSD/MP2 right amplitudes will be solved using Davidson.
        Amplitudes will be solved using standard  algorithm.
     Hard-coded thresholds: 
     LinDepThresh=1.00e-15  NormThresh=1.00e-06  ReorthogonThresh=1.00e-02

      Roots     MaxVec    MaxIter   Precond   Conv      Shift    
      20        120       60        1         1.00e-05  0.00e+00  
 ------------------------------------------------------------------------------
      Iter ConvRoots NVecs ResNorm^2 Current eigenvalues (eV)
 ------------------------------------------------------------------------------
      0    0      20    1.55e-01   7.0892   7.4604   7.7022   8.0658   8.1037   8.6876   9.7084   9.8139   9.9939   10.1822   10.5323   10.6594   10.7128   11.3835   11.5673   11.8057   12.1347   12.4314   12.7136   12.7593   
      1    0      40    1.71e-02   3.5809   3.7847   4.2965   4.7876   4.8654   5.3831   6.1809   6.4257   6.5193   6.5408   6.5987   7.0505   7.2242   7.8021   7.9737   8.3248   8.3663   8.9587   9.0231   9.1846   
      2    0      60    7.77e-03   2.7052   2.7778   3.4095   3.8164   4.4256   4.9762   5.0498   5.5668   5.6778   5.8732   5.9665   5.9810   6.7018   7.0917   7.2163   7.4820   7.7670   7.9579   7.9651   8.5995   
      3    0      80    3.26e-03   2.5255   2.5394   3.1750   3.5941   4.3508   4.7495   4.9123   5.1734   5.2401   5.7373   5.8483   5.8792   6.2846   6.5735   6.9100   7.0908   7.1808   7.3790   7.5708   8.4197   
      4    0      100   1.32e-03   2.4520   2.4963   3.0967   3.5434   4.3400   4.6835   4.9025   5.0471   5.0988   5.7138   5.7843   5.8265   5.8892   6.4042   6.6924   6.7188   6.8616   7.3476   7.4949   8.3268   
      5    0      120   2.21e-03   2.4072   2.4721   3.0462   3.5158   4.3358   4.6627   4.8979   4.9817   5.0063   5.5920   5.7056   5.8185   5.8658   6.1351   6.4476   6.6128   6.8365   7.3321   7.4500   8.1651   
      6    1      40    9.21e-04   2.3950   2.4674   3.0315   3.5114   4.3334*  4.6597   4.8960   4.9312   4.9959   5.5081   5.7040   5.8163   5.8614   6.0349   6.3528   6.5991   6.8294   7.2671   7.3310   7.4279   
      7    3      59    7.09e-04   2.3895   2.4633   3.0178   3.5063   4.3332*  4.6547   4.8851   4.9009   4.9886   5.4218   5.7021*  5.8144*  5.8593   5.9448   6.2699   6.5891   6.7005   6.8177   7.3256   7.3745   
      8    5      76    1.05e-03   2.3893*  2.4626   3.0143   3.5055   4.3333*  4.6554   4.8771   4.8990*  4.9877   5.3643   5.7021*  5.8144*  5.8585   5.8758   6.2066   6.4715   6.5619   6.5828   6.8133   7.3249   
      9    9      91    6.29e-04   2.3896*  2.4624*  3.0129*  3.5055*  4.3330*  4.6543*  4.8744   4.8988*  4.9873*  5.3255   5.7021*  5.8131   5.8144   5.8574   6.1159   6.1604   6.4100   6.5773   6.8122   7.0523   
      10   12     102   3.41e-04   2.3896*  2.4623*  3.0122*  3.5054*  4.3330*  4.6539*  4.8741*  4.8987*  4.9871*  5.3105   5.7021*  5.7887   5.8144*  5.8578*  5.9695   6.1299   6.3912   6.5729   6.8087   6.8291   
      11   13     110   7.91e-05   2.3896*  2.4623*  3.0120*  3.5055*  4.3330*  4.6538*  4.8740*  4.8988*  4.9868*  5.3075   5.7021*  5.7838   5.8144*  5.8571*  5.9370   6.1220   6.3840   6.5720   6.6715   6.8097*  
      12   15     117   3.52e-05   2.3896*  2.4621*  3.0118*  3.5054*  4.3330*  4.6537*  4.8742*  4.8987*  4.9867*  5.3068*  5.7021*  5.7812   5.8144*  5.8569*  5.9291   6.1198   6.3815   6.5720*  6.6347   6.8097*  
      13   17     120   2.64e-05   2.3896*  2.4621*  3.0118*  3.5054*  4.3329*  4.6537*  4.8742*  4.8987*  4.9867*  5.3065*  5.7021*  5.7805*  5.8144*  5.8571*  5.9267   6.1190*  6.3815   6.5714*  6.6309   6.8097*  
      14   18     23    9.66e-06   2.3896*  2.4621*  3.0118*  3.5054*  4.3329*  4.6537*  4.8741*  4.8988*  4.9867*  5.3065*  5.7021*  5.7805*  5.8144*  5.8571*  5.9258   6.1190*  6.3810*  6.5714*  6.6232   6.8097*  
      15   18     25    7.02e-06   2.3896*  2.4621*  3.0118*  3.5054*  4.3329*  4.6537*  4.8741*  4.8988*  4.9867*  5.3065*  5.7021*  5.7805*  5.8144*  5.8571*  5.9240   6.1190*  6.3810*  6.5714*  6.6186   6.8097*  
      16   19     27    4.80e-06   2.3896*  2.4621*  3.0118*  3.5054*  4.3329*  4.6538*  4.8741*  4.8988*  4.9867*  5.3065*  5.7021*  5.7805*  5.8144*  5.8571*  5.9234*  6.1190*  6.3810*  6.5714*  6.6145   6.8097*  
      17   19     28    3.52e-06   2.3896*  2.4621*  3.0118*  3.5054*  4.3328*  4.6538*  4.8741*  4.8988*  4.9867*  5.3065*  5.7021*  5.7805*  5.8144*  5.8571*  5.9238*  6.1190*  6.3810*  6.5714*  6.6131   6.8097*  
      18   20     29    3.22e-06   2.3896*  2.4620*  3.0118*  3.5054*  4.3328*  4.6538*  4.8741*  4.8988*  4.9867*  5.3065*  5.7021*  5.7805*  5.8144*  5.8571*  5.9238*  6.1190*  6.3810*  6.5714*  6.6134*  6.8097*  

     Davidson procedure converged

 EOMEE transition 1/A
 Total energy = -530.09821634 a.u.  Excitation energy = 2.3896 eV.
 R0^2 = 0.0000  R1^2 = 0.7707  R2^2 = 0.2293  Res^2 = 1.04e-06
 Conv-d = yes

 Amplitude    Transitions between orbitals
 -0.6385       46 (A) B                  ->    47 (A) B                   
 -0.5544       48 (A) A                  ->    50 (A) A                   
 -0.1305       44 (A) B                  ->    49 (A) B                   
  0.1205       46 (A) A                  ->    51 (A) A                   

              Summary of significant orbitals:

               Number  Type             Irrep      Energy
               45      Occ  Alpha      46 (A)     -0.2849
               48      Occ  Alpha      48 (A)     -0.1383
               44      Occ  Beta       44 (A)     -0.2917
               45      Occ  Beta       46 (A)     -0.2644
               50      Vir  Alpha      50 (A)      0.2526
               51      Vir  Alpha      51 (A)      0.2925
               47      Vir  Beta       47 (A)      0.1165
               50      Vir  Beta       49 (A)      0.2696


 EOMEE transition 2/A
 Total energy = -530.09555499 a.u.  Excitation energy = 2.4620 eV.
 R0^2 = 0.0000  R1^2 = 0.8525  R2^2 = 0.1475  Res^2 = 8.78e-07
 Conv-d = yes

 Amplitude    Transitions between orbitals
  0.6214       45 (A) B                  ->    47 (A) B                   
 -0.5743       48 (A) A                  ->    49 (A) A                   
  0.1685       46 (A) B                  ->    48 (A) B                   
  0.1618       43 (A) B                  ->    49 (A) B                   
  0.1544       47 (A) A                  ->    50 (A) A                   
 -0.1539       46 (A) A                  ->    52 (A) A                   

              Summary of significant orbitals:

               Number  Type             Irrep      Energy
               45      Occ  Alpha      46 (A)     -0.2849
               46      Occ  Alpha      47 (A)     -0.2411
               48      Occ  Alpha      48 (A)     -0.1383
               43      Occ  Beta       43 (A)     -0.3137
               46      Occ  Beta       45 (A)     -0.2660
               45      Occ  Beta       46 (A)     -0.2644
               49      Vir  Alpha      49 (A)      0.2509
               50      Vir  Alpha      50 (A)      0.2526
               52      Vir  Alpha      52 (A)      0.3184
               47      Vir  Beta       47 (A)      0.1165
               49      Vir  Beta       48 (A)      0.2177
               50      Vir  Beta       49 (A)      0.2696


 EOMEE transition 3/A
 Total energy = -530.07535252 a.u.  Excitation energy = 3.0118 eV.
 R0^2 = 0.0941  R1^2 = 0.7669  R2^2 = 0.2331  Res^2 = 4.10e-07
 Conv-d = yes

 Amplitude    Transitions between orbitals
 -0.6468       44 (A) B                  ->    47 (A) B                   
  0.5207       48 (A) A                  ->    51 (A) A                   
 -0.1605       46 (A) B                  ->    49 (A) B                   
 -0.1544       46 (A) A                  ->    50 (A) A                   

              Summary of significant orbitals:

               Number  Type             Irrep      Energy
               45      Occ  Alpha      46 (A)     -0.2849
               48      Occ  Alpha      48 (A)     -0.1383
               44      Occ  Beta       44 (A)     -0.2917
               45      Occ  Beta       46 (A)     -0.2644
               50      Vir  Alpha      50 (A)      0.2526
               51      Vir  Alpha      51 (A)      0.2925
               47      Vir  Beta       47 (A)      0.1165
               50      Vir  Beta       49 (A)      0.2696


 EOMEE transition 4/A
 Total energy = -530.05721099 a.u.  Excitation energy = 3.5054 eV.
 R0^2 = 0.0000  R1^2 = 0.8645  R2^2 = 0.1355  Res^2 = 5.91e-07
 Conv-d = yes

 Amplitude    Transitions between orbitals
 -0.5876       43 (A) B                  ->    47 (A) B                   
  0.4751       48 (A) A                  ->    52 (A) A                   
  0.2632       46 (A) A                  ->    49 (A) A                   
 -0.2627       45 (A) B                  ->    49 (A) B                   
 -0.2136       44 (A) B                  ->    48 (A) B                   
  0.1902       47 (A) A                  ->    51 (A) A                   
  0.1402       46 (A) B                  ->    50 (A) B                   
 -0.1392       45 (A) A                  ->    50 (A) A                   

              Summary of significant orbitals:

               Number  Type             Irrep      Energy
               47      Occ  Alpha      45 (A)     -0.2952
               45      Occ  Alpha      46 (A)     -0.2849
               46      Occ  Alpha      47 (A)     -0.2411
               48      Occ  Alpha      48 (A)     -0.1383
               43      Occ  Beta       43 (A)     -0.3137
               44      Occ  Beta       44 (A)     -0.2917
               46      Occ  Beta       45 (A)     -0.2660
               45      Occ  Beta       46 (A)     -0.2644
               49      Vir  Alpha      49 (A)      0.2509
               50      Vir  Alpha      50 (A)      0.2526
               51      Vir  Alpha      51 (A)      0.2925
               52      Vir  Alpha      52 (A)      0.3184
               47      Vir  Beta       47 (A)      0.1165
               49      Vir  Beta       48 (A)      0.2177
               50      Vir  Beta       49 (A)      0.2696
               48      Vir  Beta       50 (A)      0.2853


 EOMEE transition 5/A
 Total energy = -530.02680499 a.u.  Excitation energy = 4.3328 eV.
 R0^2 = 0.0000  R1^2 = 0.8960  R2^2 = 0.1040  Res^2 = 4.95e-06
 Conv-d = yes

 Amplitude    Transitions between orbitals
 -0.6666       48 (A) A                  ->    49 (A) A                   
 -0.6394       45 (A) B                  ->    47 (A) B                   
  0.1013       45 (A) B                  ->    51 (A) B                   
  0.0965       44 (A) A                  ->    49 (A) A                   

              Summary of significant orbitals:

               Number  Type             Irrep      Energy
               44      Occ  Alpha      44 (A)     -0.3890
               48      Occ  Alpha      48 (A)     -0.1383
               46      Occ  Beta       45 (A)     -0.2660
               49      Vir  Alpha      49 (A)      0.2509
               47      Vir  Beta       47 (A)      0.1165
               51      Vir  Beta       51 (A)      0.3956


 EOMEE transition 6/A
 Total energy = -530.01501082 a.u.  Excitation energy = 4.6538 eV.
 R0^2 = 0.0000  R1^2 = 0.8643  R2^2 = 0.1357  Res^2 = 1.14e-06
 Conv-d = yes

 Amplitude    Transitions between orbitals
 -0.5662       46 (A) B                  ->    48 (A) B                   
 -0.5144       47 (A) A                  ->    50 (A) A                   
  0.2872       44 (A) B                  ->    50 (A) B                   
  0.2742       45 (A) A                  ->    51 (A) A                   
 -0.2169       48 (A) A                  ->    49 (A) A                   
  0.1694       45 (A) B                  ->    47 (A) B                   
 -0.1428       39 (A) B                  ->    47 (A) B                   

              Summary of significant orbitals:

               Number  Type             Irrep      Energy
               47      Occ  Alpha      45 (A)     -0.2952
               46      Occ  Alpha      47 (A)     -0.2411
               48      Occ  Alpha      48 (A)     -0.1383
               39      Occ  Beta       39 (A)     -0.4433
               44      Occ  Beta       44 (A)     -0.2917
               46      Occ  Beta       45 (A)     -0.2660
               45      Occ  Beta       46 (A)     -0.2644
               49      Vir  Alpha      49 (A)      0.2509
               50      Vir  Alpha      50 (A)      0.2526
               51      Vir  Alpha      51 (A)      0.2925
               47      Vir  Beta       47 (A)      0.1165
               49      Vir  Beta       48 (A)      0.2177
               48      Vir  Beta       50 (A)      0.2853


 EOMEE transition 7/A
 Total energy = -530.00691294 a.u.  Excitation energy = 4.8741 eV.
 R0^2 = 0.0000  R1^2 = 0.6958  R2^2 = 0.3042  Res^2 = 2.88e-06
 Conv-d = yes

 Amplitude    Transitions between orbitals
  0.5429       45 (A) B                  ->    48 (A) B                   
 -0.4271       47 (A) A                  ->    49 (A) A                   
 -0.3251       46 (A) B                  ->    47 (A) B                   
 -0.1927       43 (A) B                  ->    50 (A) B                   
 -0.1594       45 (A) A                  ->    52 (A) A                   
  0.1140       48 (A) A                  ->    50 (A) A                   
 -0.1080       44 (A) B                  ->    49 (A) B                   

              Summary of significant orbitals:

               Number  Type             Irrep      Energy
               47      Occ  Alpha      45 (A)     -0.2952
               46      Occ  Alpha      47 (A)     -0.2411
               48      Occ  Alpha      48 (A)     -0.1383
               43      Occ  Beta       43 (A)     -0.3137
               44      Occ  Beta       44 (A)     -0.2917
               46      Occ  Beta       45 (A)     -0.2660
               45      Occ  Beta       46 (A)     -0.2644
               49      Vir  Alpha      49 (A)      0.2509
               50      Vir  Alpha      50 (A)      0.2526
               52      Vir  Alpha      52 (A)      0.3184
               47      Vir  Beta       47 (A)      0.1165
               49      Vir  Beta       48 (A)      0.2177
               50      Vir  Beta       49 (A)      0.2696
               48      Vir  Beta       50 (A)      0.2853


 EOMEE transition 8/A
 Total energy = -530.00600760 a.u.  Excitation energy = 4.8988 eV.
 R0^2 = 0.0000  R1^2 = 0.8831  R2^2 = 0.1169  Res^2 = 6.10e-07
 Conv-d = yes

 Amplitude    Transitions between orbitals
 -0.7004       48 (A) A                  ->    50 (A) A                   
  0.5629       46 (A) B                  ->    47 (A) B                   
 -0.2168       47 (A) A                  ->    49 (A) A                   
  0.0859       46 (A) A                  ->    51 (A) A                   

              Summary of significant orbitals:

               Number  Type             Irrep      Energy
               45      Occ  Alpha      46 (A)     -0.2849
               46      Occ  Alpha      47 (A)     -0.2411
               48      Occ  Alpha      48 (A)     -0.1383
               45      Occ  Beta       46 (A)     -0.2644
               49      Vir  Alpha      49 (A)      0.2509
               50      Vir  Alpha      50 (A)      0.2526
               51      Vir  Alpha      51 (A)      0.2925
               47      Vir  Beta       47 (A)      0.1165


 EOMEE transition 9/A
 Total energy = -530.00277485 a.u.  Excitation energy = 4.9867 eV.
 R0^2 = 0.0000  R1^2 = 0.8668  R2^2 = 0.1332  Res^2 = 5.06e-06
 Conv-d = yes

 Amplitude    Transitions between orbitals
  0.4674       44 (A) B                  ->    48 (A) B                   
 -0.4041       47 (A) A                  ->    51 (A) A                   
  0.3970       45 (A) A                  ->    50 (A) A                   
 -0.3925       46 (A) B                  ->    50 (A) B                   
 -0.2759       43 (A) B                  ->    47 (A) B                   
  0.1941       48 (A) A                  ->    52 (A) A                   
  0.1456       37 (A) B                  ->    47 (A) B                   

              Summary of significant orbitals:

               Number  Type             Irrep      Energy
               47      Occ  Alpha      45 (A)     -0.2952
               46      Occ  Alpha      47 (A)     -0.2411
               48      Occ  Alpha      48 (A)     -0.1383
               37      Occ  Beta       37 (A)     -0.4705
               43      Occ  Beta       43 (A)     -0.3137
               44      Occ  Beta       44 (A)     -0.2917
               45      Occ  Beta       46 (A)     -0.2644
               50      Vir  Alpha      50 (A)      0.2526
               51      Vir  Alpha      51 (A)      0.2925
               52      Vir  Alpha      52 (A)      0.3184
               47      Vir  Beta       47 (A)      0.1165
               49      Vir  Beta       48 (A)      0.2177
               48      Vir  Beta       50 (A)      0.2853


 EOMEE transition 10/A
 Total energy = -529.99102183 a.u.  Excitation energy = 5.3065 eV.
 R0^2 = 0.0223  R1^2 = 0.4775  R2^2 = 0.5225  Res^2 = 3.13e-06
 Conv-d = yes

 Amplitude    Transitions between orbitals
 -0.3751       43 (A) B                  ->    48 (A) B                   
  0.3055       47 (A) A                  ->    52 (A) A                   
  0.2158       46 (A) B                  ->    49 (A) B                   
  0.2102       45 (A) B                  ->    50 (A) B                   
  0.2071       45 (A) A                  ->    49 (A) A                   
  0.1971       46 (A) A                  ->    50 (A) A                   
  0.1607       44 (A) B                  ->    47 (A) B                   
 -0.1228       48 (A) A                  ->    51 (A) A                   
 -0.3191       48 (A) A      45 (A) B    ->    49 (A) A      47 (A) B     
  0.3191       48 (A) A      45 (A) B    ->    47 (A) B      49 (A) A     
  0.3191       45 (A) B      48 (A) A    ->    49 (A) A      47 (A) B     
 -0.3191       45 (A) B      48 (A) A    ->    47 (A) B      49 (A) A     
 -0.2319       48 (A) A      43 (A) B    ->    52 (A) A      47 (A) B     
  0.2319       48 (A) A      43 (A) B    ->    47 (A) B      52 (A) A     
  0.2319       43 (A) B      48 (A) A    ->    52 (A) A      47 (A) B     
 -0.2319       43 (A) B      48 (A) A    ->    47 (A) B      52 (A) A     
  0.2203       48 (A) A      46 (A) B    ->    50 (A) A      47 (A) B     
 -0.2203       48 (A) A      46 (A) B    ->    47 (A) B      50 (A) A     
 -0.2203       46 (A) B      48 (A) A    ->    50 (A) A      47 (A) B     
  0.2203       46 (A) B      48 (A) A    ->    47 (A) B      50 (A) A     
 -0.1683       48 (A) A      44 (A) B    ->    51 (A) A      47 (A) B     
  0.1683       48 (A) A      44 (A) B    ->    47 (A) B      51 (A) A     
  0.1683       44 (A) B      48 (A) A    ->    51 (A) A      47 (A) B     
 -0.1683       44 (A) B      48 (A) A    ->    47 (A) B      51 (A) A     
 -0.1325       47 (A) A      45 (A) B    ->    49 (A) A      48 (A) B     
  0.1325       47 (A) A      45 (A) B    ->    48 (A) B      49 (A) A     
  0.1325       45 (A) B      47 (A) A    ->    49 (A) A      48 (A) B     
 -0.1325       45 (A) B      47 (A) A    ->    48 (A) B      49 (A) A     
  0.1101       48 (A) A      39 (A) B    ->    53 (A) A      47 (A) B     
 -0.1101       48 (A) A      39 (A) B    ->    47 (A) B      53 (A) A     
 -0.1101       39 (A) B      48 (A) A    ->    53 (A) A      47 (A) B     
  0.1101       39 (A) B      48 (A) A    ->    47 (A) B      53 (A) A     
 -0.1088       47 (A) A      43 (A) B    ->    52 (A) A      48 (A) B     
  0.1088       47 (A) A      43 (A) B    ->    48 (A) B      52 (A) A     
  0.1088       43 (A) B      47 (A) A    ->    52 (A) A      48 (A) B     
 -0.1088       43 (A) B      47 (A) A    ->    48 (A) B      52 (A) A     
  0.1084       41 (A) A      45 (A) B    ->    49 (A) A      52 (A) B     
 -0.1084       41 (A) A      45 (A) B    ->    52 (A) B      49 (A) A     
 -0.1084       45 (A) B      41 (A) A    ->    49 (A) A      52 (A) B     
  0.1084       45 (A) B      41 (A) A    ->    52 (A) B      49 (A) A     

              Summary of significant orbitals:

               Number  Type             Irrep      Energy
               41      Occ  Alpha      41 (A)     -0.4189
               47      Occ  Alpha      45 (A)     -0.2952
               45      Occ  Alpha      46 (A)     -0.2849
               46      Occ  Alpha      47 (A)     -0.2411
               48      Occ  Alpha      48 (A)     -0.1383
               39      Occ  Beta       39 (A)     -0.4433
               43      Occ  Beta       43 (A)     -0.3137
               44      Occ  Beta       44 (A)     -0.2917
               46      Occ  Beta       45 (A)     -0.2660
               45      Occ  Beta       46 (A)     -0.2644
               49      Vir  Alpha      49 (A)      0.2509
               50      Vir  Alpha      50 (A)      0.2526
               51      Vir  Alpha      51 (A)      0.2925
               52      Vir  Alpha      52 (A)      0.3184
               53      Vir  Alpha      53 (A)      0.4870
               47      Vir  Beta       47 (A)      0.1165
               49      Vir  Beta       48 (A)      0.2177
               50      Vir  Beta       49 (A)      0.2696
               48      Vir  Beta       50 (A)      0.2853
               52      Vir  Beta       52 (A)      0.4212


 EOMEE transition 11/A
 Total energy = -529.97648352 a.u.  Excitation energy = 5.7021 eV.
 R0^2 = 0.0000  R1^2 = 0.8989  R2^2 = 0.1011  Res^2 = 5.07e-06
 Conv-d = yes

 Amplitude    Transitions between orbitals
 -0.9039       41 (A) B                  ->    47 (A) B                   
 -0.1251       33 (A) B                  ->    47 (A) B                   
  0.1237       29 (A) B                  ->    47 (A) B                   
  0.1081       35 (A) B                  ->    48 (A) B                   
 -0.1039       38 (A) B                  ->    49 (A) B                   

              Summary of significant orbitals:

               Number  Type             Irrep      Energy
               29      Occ  Beta       29 (A)     -0.5844
               33      Occ  Beta       33 (A)     -0.5264
               35      Occ  Beta       35 (A)     -0.5014
               38      Occ  Beta       38 (A)     -0.4655
               41      Occ  Beta       41 (A)     -0.4049
               47      Vir  Beta       47 (A)      0.1165
               49      Vir  Beta       48 (A)      0.2177
               50      Vir  Beta       49 (A)      0.2696


 EOMEE transition 12/A
 Total energy = -529.97360425 a.u.  Excitation energy = 5.7805 eV.
 R0^2 = 0.0000  R1^2 = 0.5376  R2^2 = 0.4624  Res^2 = 5.73e-06
 Conv-d = yes

 Amplitude    Transitions between orbitals
  0.3360       45 (A) B                  ->    49 (A) B                   
 -0.3312       46 (A) A                  ->    49 (A) A                   
  0.2092       43 (A) B                  ->    51 (A) B                   
  0.2041       44 (A) B                  ->    52 (A) B                   
  0.1960       41 (A) A                  ->    51 (A) A                   
 -0.1935       44 (A) A                  ->    52 (A) A                   
 -0.1896       44 (A) B                  ->    48 (A) B                   
 -0.1607       37 (A) B                  ->    47 (A) B                   
  0.1415       45 (A) A                  ->    50 (A) A                   
 -0.1386       46 (A) B                  ->    50 (A) B                   
  0.1200       47 (A) A                  ->    51 (A) A                   
  0.1940       48 (A) A      46 (A) B    ->    50 (A) A      48 (A) B     
 -0.1940       48 (A) A      46 (A) B    ->    48 (A) B      50 (A) A     
 -0.1940       46 (A) B      48 (A) A    ->    50 (A) A      48 (A) B     
  0.1940       46 (A) B      48 (A) A    ->    48 (A) B      50 (A) A     
  0.1837       47 (A) A      46 (A) B    ->    50 (A) A      47 (A) B     
 -0.1837       47 (A) A      46 (A) B    ->    47 (A) B      50 (A) A     
 -0.1837       46 (A) B      47 (A) A    ->    50 (A) A      47 (A) B     
  0.1837       46 (A) B      47 (A) A    ->    47 (A) B      50 (A) A     
 -0.1478       48 (A) A      45 (A) B    ->    49 (A) A      48 (A) B     
  0.1478       48 (A) A      45 (A) B    ->    48 (A) B      49 (A) A     
  0.1478       45 (A) B      48 (A) A    ->    49 (A) A      48 (A) B     
 -0.1478       45 (A) B      48 (A) A    ->    48 (A) B      49 (A) A     
 -0.1456       47 (A) A      45 (A) B    ->    49 (A) A      47 (A) B     
  0.1456       47 (A) A      45 (A) B    ->    47 (A) B      49 (A) A     
  0.1456       45 (A) B      47 (A) A    ->    49 (A) A      47 (A) B     
 -0.1456       45 (A) B      47 (A) A    ->    47 (A) B      49 (A) A     
  0.1425       41 (A) A      46 (A) B    ->    50 (A) A      47 (A) B     
 -0.1425       41 (A) A      46 (A) B    ->    47 (A) B      50 (A) A     
 -0.1425       46 (A) B      41 (A) A    ->    50 (A) A      47 (A) B     
  0.1425       46 (A) B      41 (A) A    ->    47 (A) B      50 (A) A     
 -0.1406       48 (A) A      44 (A) B    ->    51 (A) A      48 (A) B     
  0.1406       48 (A) A      44 (A) B    ->    48 (A) B      51 (A) A     
  0.1406       44 (A) B      48 (A) A    ->    51 (A) A      48 (A) B     
 -0.1406       44 (A) B      48 (A) A    ->    48 (A) B      51 (A) A     
 -0.1364       41 (A) A      45 (A) B    ->    49 (A) A      47 (A) B     
  0.1364       41 (A) A      45 (A) B    ->    47 (A) B      49 (A) A     
  0.1364       45 (A) B      41 (A) A    ->    49 (A) A      47 (A) B     
 -0.1364       45 (A) B      41 (A) A    ->    47 (A) B      49 (A) A     
 -0.1343       41 (A) A      44 (A) B    ->    51 (A) A      47 (A) B     
  0.1343       41 (A) A      44 (A) B    ->    47 (A) B      51 (A) A     
  0.1343       44 (A) B      41 (A) A    ->    51 (A) A      47 (A) B     
 -0.1343       44 (A) B      41 (A) A    ->    47 (A) B      51 (A) A     
 -0.1322       47 (A) A      44 (A) B    ->    51 (A) A      47 (A) B     
  0.1322       47 (A) A      44 (A) B    ->    47 (A) B      51 (A) A     
  0.1322       44 (A) B      47 (A) A    ->    51 (A) A      47 (A) B     
 -0.1322       44 (A) B      47 (A) A    ->    47 (A) B      51 (A) A     
 -0.1268       48 (A) A      46 (A) B    ->    50 (A) A      52 (A) B     
  0.1268       48 (A) A      46 (A) B    ->    52 (A) B      50 (A) A     
  0.1268       46 (A) B      48 (A) A    ->    50 (A) A      52 (A) B     
 -0.1268       46 (A) B      48 (A) A    ->    52 (A) B      50 (A) A     
  0.1220       48 (A) A      44 (A) B    ->    51 (A) A      52 (A) B     
 -0.1220       48 (A) A      44 (A) B    ->    52 (A) B      51 (A) A     
 -0.1220       44 (A) B      48 (A) A    ->    51 (A) A      52 (A) B     
  0.1220       44 (A) B      48 (A) A    ->    52 (A) B      51 (A) A     
  0.1181       48 (A) A      45 (A) B    ->    49 (A) A      52 (A) B     
 -0.1181       48 (A) A      45 (A) B    ->    52 (A) B      49 (A) A     
 -0.1181       45 (A) B      48 (A) A    ->    49 (A) A      52 (A) B     
  0.1181       45 (A) B      48 (A) A    ->    52 (A) B      49 (A) A     
 -0.1100       48 (A) A      43 (A) B    ->    52 (A) A      48 (A) B     
  0.1100       48 (A) A      43 (A) B    ->    48 (A) B      52 (A) A     
  0.1100       43 (A) B      48 (A) A    ->    52 (A) A      48 (A) B     
 -0.1100       43 (A) B      48 (A) A    ->    48 (A) B      52 (A) A     
 -0.1060       47 (A) A      43 (A) B    ->    52 (A) A      47 (A) B     
  0.1060       47 (A) A      43 (A) B    ->    47 (A) B      52 (A) A     
  0.1060       43 (A) B      47 (A) A    ->    52 (A) A      47 (A) B     
 -0.1060       43 (A) B      47 (A) A    ->    47 (A) B      52 (A) A     

              Summary of significant orbitals:

               Number  Type             Irrep      Energy
               41      Occ  Alpha      41 (A)     -0.4189
               44      Occ  Alpha      44 (A)     -0.3890
               47      Occ  Alpha      45 (A)     -0.2952
               45      Occ  Alpha      46 (A)     -0.2849
               46      Occ  Alpha      47 (A)     -0.2411
               48      Occ  Alpha      48 (A)     -0.1383
               37      Occ  Beta       37 (A)     -0.4705
               43      Occ  Beta       43 (A)     -0.3137
               44      Occ  Beta       44 (A)     -0.2917
               46      Occ  Beta       45 (A)     -0.2660
               45      Occ  Beta       46 (A)     -0.2644
               49      Vir  Alpha      49 (A)      0.2509
               50      Vir  Alpha      50 (A)      0.2526
               51      Vir  Alpha      51 (A)      0.2925
               52      Vir  Alpha      52 (A)      0.3184
               47      Vir  Beta       47 (A)      0.1165
               49      Vir  Beta       48 (A)      0.2177
               50      Vir  Beta       49 (A)      0.2696
               48      Vir  Beta       50 (A)      0.2853
               51      Vir  Beta       51 (A)      0.3956
               52      Vir  Beta       52 (A)      0.4212


 EOMEE transition 13/A
 Total energy = -529.97235951 a.u.  Excitation energy = 5.8144 eV.
 R0^2 = 0.0000  R1^2 = 0.9032  R2^2 = 0.0968  Res^2 = 2.74e-06
 Conv-d = yes

 Amplitude    Transitions between orbitals
  0.9088       42 (A) B                  ->    47 (A) B                   
 -0.1500       36 (A) B                  ->    47 (A) B                   
  0.1143       40 (A) B                  ->    49 (A) B                   
 -0.1096       42 (A) B                  ->    51 (A) B                   

              Summary of significant orbitals:

               Number  Type             Irrep      Energy
               36      Occ  Beta       36 (A)     -0.4930
               40      Occ  Beta       40 (A)     -0.4354
               42      Occ  Beta       42 (A)     -0.4036
               47      Vir  Beta       47 (A)      0.1165
               50      Vir  Beta       49 (A)      0.2696
               51      Vir  Beta       51 (A)      0.3956


 EOMEE transition 14/A
 Total energy = -529.97079088 a.u.  Excitation energy = 5.8571 eV.
 R0^2 = 0.0001  R1^2 = 0.8903  R2^2 = 0.1097  Res^2 = 2.14e-07
 Conv-d = yes

 Amplitude    Transitions between orbitals
 -0.6839       48 (A) A                  ->    51 (A) A                   
 -0.5635       44 (A) B                  ->    47 (A) B                   
  0.1810       43 (A) B                  ->    48 (A) B                   
 -0.1756       45 (A) B                  ->    50 (A) B                   
  0.1275       46 (A) A                  ->    50 (A) A                   

              Summary of significant orbitals:

               Number  Type             Irrep      Energy
               45      Occ  Alpha      46 (A)     -0.2849
               48      Occ  Alpha      48 (A)     -0.1383
               43      Occ  Beta       43 (A)     -0.3137
               44      Occ  Beta       44 (A)     -0.2917
               46      Occ  Beta       45 (A)     -0.2660
               50      Vir  Alpha      50 (A)      0.2526
               51      Vir  Alpha      51 (A)      0.2925
               47      Vir  Beta       47 (A)      0.1165
               49      Vir  Beta       48 (A)      0.2177
               48      Vir  Beta       50 (A)      0.2853


 EOMEE transition 15/A
 Total energy = -529.96833916 a.u.  Excitation energy = 5.9238 eV.
 R0^2 = 0.0000  R1^2 = 0.6260  R2^2 = 0.3740  Res^2 = 3.72e-06
 Conv-d = yes

 Amplitude    Transitions between orbitals
  0.2976       39 (A) B                  ->    47 (A) B                   
 -0.2949       43 (A) B                  ->    49 (A) B                   
  0.2724       44 (A) A                  ->    49 (A) A                   
  0.2715       46 (A) A                  ->    52 (A) A                   
 -0.2484       45 (A) B                  ->    51 (A) B                   
 -0.2161       46 (A) B                  ->    52 (A) B                   
  0.2085       41 (A) A                  ->    50 (A) A                   
  0.1956       44 (A) B                  ->    50 (A) B                   
  0.1876       48 (A) A                  ->    53 (A) A                   
  0.1794       45 (A) A                  ->    51 (A) A                   

              Summary of significant orbitals:

               Number  Type             Irrep      Energy
               41      Occ  Alpha      41 (A)     -0.4189
               44      Occ  Alpha      44 (A)     -0.3890
               47      Occ  Alpha      45 (A)     -0.2952
               45      Occ  Alpha      46 (A)     -0.2849
               48      Occ  Alpha      48 (A)     -0.1383
               39      Occ  Beta       39 (A)     -0.4433
               43      Occ  Beta       43 (A)     -0.3137
               44      Occ  Beta       44 (A)     -0.2917
               46      Occ  Beta       45 (A)     -0.2660
               45      Occ  Beta       46 (A)     -0.2644
               49      Vir  Alpha      49 (A)      0.2509
               50      Vir  Alpha      50 (A)      0.2526
               51      Vir  Alpha      51 (A)      0.2925
               52      Vir  Alpha      52 (A)      0.3184
               53      Vir  Alpha      53 (A)      0.4870
               47      Vir  Beta       47 (A)      0.1165
               50      Vir  Beta       49 (A)      0.2696
               48      Vir  Beta       50 (A)      0.2853
               51      Vir  Beta       51 (A)      0.3956
               52      Vir  Beta       52 (A)      0.4212


 EOMEE transition 16/A
 Total energy = -529.96116357 a.u.  Excitation energy = 6.1190 eV.
 R0^2 = 0.0004  R1^2 = 0.6997  R2^2 = 0.3003  Res^2 = 7.82e-06
 Conv-d = yes

 Amplitude    Transitions between orbitals
 -0.4192       45 (A) A                  ->    49 (A) A                   
 -0.3500       45 (A) B                  ->    50 (A) B                   
 -0.3089       47 (A) A                  ->    52 (A) A                   
  0.2937       43 (A) B                  ->    48 (A) B                   
  0.2601       46 (A) B                  ->    49 (A) B                   
  0.2349       46 (A) A                  ->    50 (A) A                   
  0.1777       44 (A) B                  ->    47 (A) B                   
 -0.1193       44 (A) A                  ->    51 (A) A                   
  0.1006       44 (A) B                  ->    51 (A) B                   

              Summary of significant orbitals:

               Number  Type             Irrep      Energy
               44      Occ  Alpha      44 (A)     -0.3890
               47      Occ  Alpha      45 (A)     -0.2952
               45      Occ  Alpha      46 (A)     -0.2849
               46      Occ  Alpha      47 (A)     -0.2411
               43      Occ  Beta       43 (A)     -0.3137
               44      Occ  Beta       44 (A)     -0.2917
               46      Occ  Beta       45 (A)     -0.2660
               45      Occ  Beta       46 (A)     -0.2644
               49      Vir  Alpha      49 (A)      0.2509
               50      Vir  Alpha      50 (A)      0.2526
               51      Vir  Alpha      51 (A)      0.2925
               52      Vir  Alpha      52 (A)      0.3184
               47      Vir  Beta       47 (A)      0.1165
               49      Vir  Beta       48 (A)      0.2177
               50      Vir  Beta       49 (A)      0.2696
               48      Vir  Beta       50 (A)      0.2853
               51      Vir  Beta       51 (A)      0.3956


 EOMEE transition 17/A
 Total energy = -529.95153696 a.u.  Excitation energy = 6.3810 eV.
 R0^2 = 0.0000  R1^2 = 0.5693  R2^2 = 0.4307  Res^2 = 4.88e-06
 Conv-d = yes

 Amplitude    Transitions between orbitals
  0.3104       44 (A) B                  ->    49 (A) B                   
 -0.2707       46 (A) A                  ->    51 (A) A                   
 -0.2623       47 (A) A                  ->    49 (A) A                   
  0.2584       45 (A) B                  ->    48 (A) B                   
 -0.2284       43 (A) B                  ->    50 (A) B                   
 -0.2195       45 (A) A                  ->    52 (A) A                   
  0.1868       44 (A) A                  ->    50 (A) A                   
  0.1819       46 (A) B                  ->    51 (A) B                   
  0.1632       41 (A) A                  ->    49 (A) A                   
  0.1480       45 (A) B                  ->    52 (A) B                   
  0.1259       46 (A) B                  ->    47 (A) B                   
  0.2562       48 (A) A      44 (A) B    ->    50 (A) A      47 (A) B     
 -0.2562       48 (A) A      44 (A) B    ->    47 (A) B      50 (A) A     
 -0.2562       44 (A) B      48 (A) A    ->    50 (A) A      47 (A) B     
  0.2562       44 (A) B      48 (A) A    ->    47 (A) B      50 (A) A     
 -0.2407       48 (A) A      46 (A) B    ->    51 (A) A      47 (A) B     
  0.2407       48 (A) A      46 (A) B    ->    47 (A) B      51 (A) A     
  0.2407       46 (A) B      48 (A) A    ->    51 (A) A      47 (A) B     
 -0.2407       46 (A) B      48 (A) A    ->    47 (A) B      51 (A) A     
 -0.1716       48 (A) A      43 (A) B    ->    49 (A) A      47 (A) B     
  0.1716       48 (A) A      43 (A) B    ->    47 (A) B      49 (A) A     
  0.1716       43 (A) B      48 (A) A    ->    49 (A) A      47 (A) B     
 -0.1716       43 (A) B      48 (A) A    ->    47 (A) B      49 (A) A     
 -0.1562       48 (A) A      45 (A) B    ->    52 (A) A      47 (A) B     
  0.1562       48 (A) A      45 (A) B    ->    47 (A) B      52 (A) A     
  0.1562       45 (A) B      48 (A) A    ->    52 (A) A      47 (A) B     
 -0.1562       45 (A) B      48 (A) A    ->    47 (A) B      52 (A) A     

              Summary of significant orbitals:

               Number  Type             Irrep      Energy
               41      Occ  Alpha      41 (A)     -0.4189
               44      Occ  Alpha      44 (A)     -0.3890
               47      Occ  Alpha      45 (A)     -0.2952
               45      Occ  Alpha      46 (A)     -0.2849
               46      Occ  Alpha      47 (A)     -0.2411
               48      Occ  Alpha      48 (A)     -0.1383
               43      Occ  Beta       43 (A)     -0.3137
               44      Occ  Beta       44 (A)     -0.2917
               46      Occ  Beta       45 (A)     -0.2660
               45      Occ  Beta       46 (A)     -0.2644
               49      Vir  Alpha      49 (A)      0.2509
               50      Vir  Alpha      50 (A)      0.2526
               51      Vir  Alpha      51 (A)      0.2925
               52      Vir  Alpha      52 (A)      0.3184
               47      Vir  Beta       47 (A)      0.1165
               49      Vir  Beta       48 (A)      0.2177
               50      Vir  Beta       49 (A)      0.2696
               48      Vir  Beta       50 (A)      0.2853
               51      Vir  Beta       51 (A)      0.3956
               52      Vir  Beta       52 (A)      0.4212


 EOMEE transition 18/A
 Total energy = -529.94454072 a.u.  Excitation energy = 6.5714 eV.
 R0^2 = 0.0000  R1^2 = 0.8519  R2^2 = 0.1481  Res^2 = 2.08e-06
 Conv-d = yes

 Amplitude    Transitions between orbitals
  0.6463       48 (A) A                  ->    52 (A) A                   
  0.6115       43 (A) B                  ->    47 (A) B                   
 -0.1138       45 (A) B                  ->    49 (A) B                   
 -0.1005       43 (A) B                  ->    51 (A) B                   

              Summary of significant orbitals:

               Number  Type             Irrep      Energy
               48      Occ  Alpha      48 (A)     -0.1383
               43      Occ  Beta       43 (A)     -0.3137
               46      Occ  Beta       45 (A)     -0.2660
               52      Vir  Alpha      52 (A)      0.3184
               47      Vir  Beta       47 (A)      0.1165
               50      Vir  Beta       49 (A)      0.2696
               51      Vir  Beta       51 (A)      0.3956


 EOMEE transition 19/A
 Total energy = -529.94299696 a.u.  Excitation energy = 6.6134 eV.
 R0^2 = 0.0000  R1^2 = 0.6685  R2^2 = 0.3315  Res^2 = 8.88e-06
 Conv-d = yes

 Amplitude    Transitions between orbitals
 -0.5870       39 (A) B                  ->    47 (A) B                   
 -0.3197       48 (A) A                  ->    53 (A) A                   
 -0.1872       46 (A) B                  ->    52 (A) B                   
  0.1861       41 (A) A                  ->    50 (A) A                   
  0.1822       46 (A) B                  ->    48 (A) B                   
 -0.1706       37 (A) B                  ->    49 (A) B                   
  0.1392       45 (A) A                  ->    51 (A) A                   
  0.1298       44 (A) B                  ->    50 (A) B                   
 -0.1253       46 (A) A                  ->    54 (A) A                   

              Summary of significant orbitals:

               Number  Type             Irrep      Energy
               41      Occ  Alpha      41 (A)     -0.4189
               47      Occ  Alpha      45 (A)     -0.2952
               45      Occ  Alpha      46 (A)     -0.2849
               48      Occ  Alpha      48 (A)     -0.1383
               37      Occ  Beta       37 (A)     -0.4705
               39      Occ  Beta       39 (A)     -0.4433
               44      Occ  Beta       44 (A)     -0.2917
               45      Occ  Beta       46 (A)     -0.2644
               50      Vir  Alpha      50 (A)      0.2526
               51      Vir  Alpha      51 (A)      0.2925
               53      Vir  Alpha      53 (A)      0.4870
               54      Vir  Alpha      54 (A)      0.5408
               47      Vir  Beta       47 (A)      0.1165
               49      Vir  Beta       48 (A)      0.2177
               50      Vir  Beta       49 (A)      0.2696
               48      Vir  Beta       50 (A)      0.2853
               52      Vir  Beta       52 (A)      0.4212


 EOMEE transition 20/A
 Total energy = -529.93578244 a.u.  Excitation energy = 6.8097 eV.
 R0^2 = 0.0000  R1^2 = 0.8899  R2^2 = 0.1101  Res^2 = 2.60e-06
 Conv-d = yes

 Amplitude    Transitions between orbitals
 -0.8461       40 (A) B                  ->    47 (A) B                   
  0.2430       35 (A) B                  ->    47 (A) B                   
 -0.1769       42 (A) B                  ->    49 (A) B                   
 -0.1619       41 (A) B                  ->    48 (A) B                   
  0.1309       32 (A) B                  ->    47 (A) B                   

              Summary of significant orbitals:

               Number  Type             Irrep      Energy
               32      Occ  Beta       32 (A)     -0.5563
               35      Occ  Beta       35 (A)     -0.5014
               40      Occ  Beta       40 (A)     -0.4354
               41      Occ  Beta       41 (A)     -0.4049
               42      Occ  Beta       42 (A)     -0.4036
               47      Vir  Beta       47 (A)      0.1165
               49      Vir  Beta       48 (A)      0.2177
               50      Vir  Beta       49 (A)      0.2696


Running a double precision version
      EOM-CCSD/MP2 left amplitudes will be solved using Davidson.
        Amplitudes will be solved using MOM  algorithm.
     Hard-coded thresholds: 
     LinDepThresh=1.00e-15  NormThresh=1.00e-06  ReorthogonThresh=1.00e-02

      Roots     MaxVec    MaxIter   Precond   Conv      Shift    
      20        120       60        1         1.00e-05  0.00e+00  
 ------------------------------------------------------------------------------
      Iter ConvRoots NVecs ResNorm^2 Current eigenvalues (eV)
 ------------------------------------------------------------------------------
      0    0      20    7.63e-03   2.3896   2.4620   3.0118   3.5054   4.3328   4.6538   4.8741   4.8988   4.9867   5.3065   5.7021   5.7805   5.8144   5.8571   5.9238   6.1190   6.3810   6.5714   6.6134   6.8097   
      1    0      40    1.13e-03   2.3897   2.4620   3.0117   3.5054   4.3324   4.6537   4.8745   4.8988   4.9870   5.3067   5.7025   5.7805   5.8147   5.8571   5.9235   6.1190   6.3809   6.5715   6.6128   6.8087   
      2    0      60    1.57e-04   2.3897   2.4619   3.0117   3.5054   4.3318   4.6536   4.8744   4.8988   4.9870   5.3067   5.7026   5.7805   5.8149   5.8571   5.9237   6.1190   6.3808   6.5715   6.6130   6.8089   
      3    0      80    3.85e-05   2.3897   2.4619   3.0117   3.5054   4.3315   4.6535   4.8744   4.8987   4.9870   5.3066   5.7025   5.7805   5.8148   5.8571   5.9236   6.1189   6.3807   6.5715   6.6129   6.8088   
      4    10     100   1.21e-05   2.3897*  2.4619*  3.0117*  3.5054   4.3314   4.6535*  4.8744*  4.8987*  4.9871*  5.3066*  5.7024   5.7805   5.8148*  5.8571*  5.9236   6.1189   6.3807   6.5715   6.6131   6.8088   
      5    20     110   5.71e-06   2.3897*  2.4619*  3.0117*  3.5054*  4.3313*  4.6535*  4.8744*  4.8987*  4.9871*  5.3066*  5.7024*  5.7805*  5.8148*  5.8571*  5.9236*  6.1188*  6.3806*  6.5715*  6.6131*  6.8088*  

     Davidson procedure converged

 EOMEE-CCSD transition 1/A
S^2 calculation will be performed in  double precision
 EOMEE-CCSD transition 2/A
S^2 calculation will be performed in  double precision
 EOMEE-CCSD transition 3/A
S^2 calculation will be performed in  double precision
 EOMEE-CCSD transition 4/A
S^2 calculation will be performed in  double precision
 EOMEE-CCSD transition 5/A
S^2 calculation will be performed in  double precision
 EOMEE-CCSD transition 6/A
S^2 calculation will be performed in  double precision
 EOMEE-CCSD transition 7/A
S^2 calculation will be performed in  double precision
 EOMEE-CCSD transition 8/A
S^2 calculation will be performed in  double precision
 EOMEE-CCSD transition 9/A
S^2 calculation will be performed in  double precision
 EOMEE-CCSD transition 10/A
S^2 calculation will be performed in  double precision
 EOMEE-CCSD transition 11/A
S^2 calculation will be performed in  double precision
 EOMEE-CCSD transition 12/A
S^2 calculation will be performed in  double precision
 EOMEE-CCSD transition 13/A
S^2 calculation will be performed in  double precision
 EOMEE-CCSD transition 14/A
S^2 calculation will be performed in  double precision
 EOMEE-CCSD transition 15/A
S^2 calculation will be performed in  double precision
 EOMEE-CCSD transition 16/A
S^2 calculation will be performed in  double precision
 EOMEE-CCSD transition 17/A
S^2 calculation will be performed in  double precision
 EOMEE-CCSD transition 18/A
S^2 calculation will be performed in  double precision
 EOMEE-CCSD transition 19/A
S^2 calculation will be performed in  double precision
 EOMEE-CCSD transition 20/A
S^2 calculation will be performed in  double precision
 Excited state properties for  EOMEE-CCSD transition 1/A
 Dipole moment (a.u.): 0.000085 (X 0.000000, Y 0.000000, Z -0.000085)
 R-squared (a.u.): 2859.312922 (XX 2262.654595, YY 538.714586, ZZ 57.943741)
 Gauge origin (a.u.): (0.000000, 0.000000, 0.000000)
 Angular momentum (a.u.) against gauge origin: 
 (X 0.000000i, Y 0.000000i, Z 0.000000i)
 Traces of the OPDMs: Tr(AA) 48.000000, Tr(BB) 46.000000
 <S^2> = 2.066786
 Density matrix was written to a file for further analysis.

 Excited state properties for  EOMEE-CCSD transition 2/A
 Dipole moment (a.u.): 0.000094 (X 0.000000, Y 0.000000, Z -0.000094)
 R-squared (a.u.): 2859.627821 (XX 2262.592606, YY 539.103223, ZZ 57.931992)
 Gauge origin (a.u.): (0.000000, 0.000000, 0.000000)
 Angular momentum (a.u.) against gauge origin: 
 (X 0.000000i, Y 0.000000i, Z 0.000000i)
 Traces of the OPDMs: Tr(AA) 48.000000, Tr(BB) 46.000000
 <S^2> = 2.094616

 Excited state properties for  EOMEE-CCSD transition 3/A
 Dipole moment (a.u.): 0.000082 (X 0.000000, Y 0.000000, Z -0.000082)
 R-squared (a.u.): 2859.671062 (XX 2263.023553, YY 538.750320, ZZ 57.897189)
 Gauge origin (a.u.): (0.000000, 0.000000, 0.000000)
 Angular momentum (a.u.) against gauge origin: 
 (X 0.000000i, Y 0.000000i, Z 0.000000i)
 Traces of the OPDMs: Tr(AA) 48.000000, Tr(BB) 46.000000
 <S^2> = 2.081115

 Excited state properties for  EOMEE-CCSD transition 4/A
 Dipole moment (a.u.): 0.000088 (X 0.000000, Y 0.000000, Z -0.000088)
 R-squared (a.u.): 2859.315981 (XX 2262.223942, YY 539.232888, ZZ 57.859151)
 Gauge origin (a.u.): (0.000000, 0.000000, 0.000000)
 Angular momentum (a.u.) against gauge origin: 
 (X 0.000000i, Y 0.000000i, Z 0.000000i)
 Traces of the OPDMs: Tr(AA) 48.000000, Tr(BB) 46.000000
 <S^2> = 2.254521

 Excited state properties for  EOMEE-CCSD transition 5/A
 Dipole moment (a.u.): 0.000114 (X 0.000000, Y 0.000000, Z -0.000114)
 R-squared (a.u.): 2860.144298 (XX 2263.319627, YY 538.838015, ZZ 57.986656)
 Gauge origin (a.u.): (0.000000, 0.000000, 0.000000)
 Angular momentum (a.u.) against gauge origin: 
 (X 0.000000i, Y 0.000000i, Z 0.000000i)
 Traces of the OPDMs: Tr(AA) 48.000000, Tr(BB) 46.000000
 <S^2> = 2.031867

 Excited state properties for  EOMEE-CCSD transition 6/A
 Dipole moment (a.u.): 0.000107 (X 0.000000, Y 0.000000, Z -0.000107)
 R-squared (a.u.): 2860.029529 (XX 2263.524979, YY 538.671715, ZZ 57.832835)
 Gauge origin (a.u.): (0.000000, 0.000000, 0.000000)
 Angular momentum (a.u.) against gauge origin: 
 (X 0.000000i, Y 0.000000i, Z 0.000000i)
 Traces of the OPDMs: Tr(AA) 48.000000, Tr(BB) 46.000000
 <S^2> = 2.611423

 Excited state properties for  EOMEE-CCSD transition 7/A
 Dipole moment (a.u.): 0.000085 (X 0.000000, Y 0.000000, Z -0.000085)
 R-squared (a.u.): 2859.129795 (XX 2262.088512, YY 539.205511, ZZ 57.835773)
 Gauge origin (a.u.): (0.000000, 0.000000, 0.000000)
 Angular momentum (a.u.) against gauge origin: 
 (X 0.000000i, Y 0.000000i, Z 0.000000i)
 Traces of the OPDMs: Tr(AA) 48.000000, Tr(BB) 46.000000
 <S^2> = 2.091933

 Excited state properties for  EOMEE-CCSD transition 8/A
 Dipole moment (a.u.): 0.000156 (X 0.000000, Y 0.000000, Z -0.000156)
 R-squared (a.u.): 2861.327721 (XX 2264.824337, YY 538.547688, ZZ 57.955695)
 Gauge origin (a.u.): (0.000000, 0.000000, 0.000000)
 Angular momentum (a.u.) against gauge origin: 
 (X 0.000000i, Y 0.000000i, Z 0.000000i)
 Traces of the OPDMs: Tr(AA) 48.000000, Tr(BB) 46.000000
 <S^2> = 2.046961

 Excited state properties for  EOMEE-CCSD transition 9/A
 Dipole moment (a.u.): 0.000094 (X 0.000000, Y 0.000000, Z -0.000094)
 R-squared (a.u.): 2859.282866 (XX 2262.600262, YY 538.881283, ZZ 57.801321)
 Gauge origin (a.u.): (0.000000, 0.000000, 0.000000)
 Angular momentum (a.u.) against gauge origin: 
 (X 0.000000i, Y 0.000000i, Z 0.000000i)
 Traces of the OPDMs: Tr(AA) 48.000000, Tr(BB) 46.000000
 <S^2> = 3.159861

 Excited state properties for  EOMEE-CCSD transition 10/A
 Dipole moment (a.u.): 0.000103 (X 0.000000, Y 0.000000, Z -0.000103)
 R-squared (a.u.): 2859.740899 (XX 2262.915022, YY 539.048284, ZZ 57.777593)
 Gauge origin (a.u.): (0.000000, 0.000000, 0.000000)
 Angular momentum (a.u.) against gauge origin: 
 (X 0.000000i, Y 0.000000i, Z 0.000000i)
 Traces of the OPDMs: Tr(AA) 48.000000, Tr(BB) 46.000000
 <S^2> = 2.083757

 Excited state properties for  EOMEE-CCSD transition 11/A
 Dipole moment (a.u.): 0.000046 (X 0.000000, Y 0.000000, Z -0.000046)
 R-squared (a.u.): 2856.603604 (XX 2258.667114, YY 538.840706, ZZ 59.095783)
 Gauge origin (a.u.): (0.000000, 0.000000, 0.000000)
 Angular momentum (a.u.) against gauge origin: 
 (X 0.000000i, Y 0.000000i, Z 0.000000i)
 Traces of the OPDMs: Tr(AA) 48.000000, Tr(BB) 46.000000
 <S^2> = 2.036173

 Excited state properties for  EOMEE-CCSD transition 12/A
 Dipole moment (a.u.): 0.000136 (X 0.000000, Y 0.000000, Z -0.000136)
 R-squared (a.u.): 2860.129737 (XX 2263.373851, YY 538.983085, ZZ 57.772801)
 Gauge origin (a.u.): (0.000000, 0.000000, 0.000000)
 Angular momentum (a.u.) against gauge origin: 
 (X 0.000000i, Y 0.000000i, Z 0.000000i)
 Traces of the OPDMs: Tr(AA) 48.000000, Tr(BB) 46.000000
 <S^2> = 4.892733

 Excited state properties for  EOMEE-CCSD transition 13/A
 Dipole moment (a.u.): 0.000091 (X 0.000000, Y 0.000000, Z -0.000091)
 R-squared (a.u.): 2859.317797 (XX 2264.413428, YY 535.839778, ZZ 59.064591)
 Gauge origin (a.u.): (0.000000, 0.000000, 0.000000)
 Angular momentum (a.u.) against gauge origin: 
 (X 0.000000i, Y 0.000000i, Z 0.000000i)
 Traces of the OPDMs: Tr(AA) 48.000000, Tr(BB) 46.000000
 <S^2> = 2.034643

 Excited state properties for  EOMEE-CCSD transition 14/A
 Dipole moment (a.u.): 0.000125 (X 0.000000, Y 0.000000, Z -0.000125)
 R-squared (a.u.): 2860.529192 (XX 2263.636789, YY 538.970255, ZZ 57.922149)
 Gauge origin (a.u.): (0.000000, 0.000000, 0.000000)
 Angular momentum (a.u.) against gauge origin: 
 (X 0.000000i, Y 0.000000i, Z 0.000000i)
 Traces of the OPDMs: Tr(AA) 48.000000, Tr(BB) 46.000000
 <S^2> = 2.142279

 Excited state properties for  EOMEE-CCSD transition 15/A
 Dipole moment (a.u.): 0.000100 (X 0.000000, Y 0.000000, Z -0.000100)
 R-squared (a.u.): 2859.710484 (XX 2262.991192, YY 538.971936, ZZ 57.747356)
 Gauge origin (a.u.): (0.000000, 0.000000, 0.000000)
 Angular momentum (a.u.) against gauge origin: 
 (X 0.000000i, Y 0.000000i, Z 0.000001i)
 Traces of the OPDMs: Tr(AA) 48.000000, Tr(BB) 46.000000
 <S^2> = 4.990260

 Excited state properties for  EOMEE-CCSD transition 16/A
 Dipole moment (a.u.): 0.000099 (X 0.000000, Y 0.000000, Z -0.000099)
 R-squared (a.u.): 2859.686449 (XX 2263.245805, YY 538.671283, ZZ 57.769361)
 Gauge origin (a.u.): (0.000000, 0.000000, 0.000000)
 Angular momentum (a.u.) against gauge origin: 
 (X 0.000000i, Y 0.000000i, Z 0.000000i)
 Traces of the OPDMs: Tr(AA) 48.000000, Tr(BB) 46.000000
 <S^2> = 3.419017

 Excited state properties for  EOMEE-CCSD transition 17/A
 Dipole moment (a.u.): 0.000109 (X 0.000000, Y 0.000000, Z -0.000109)
 R-squared (a.u.): 2860.078777 (XX 2263.487309, YY 538.846640, ZZ 57.744828)
 Gauge origin (a.u.): (0.000000, 0.000000, 0.000000)
 Angular momentum (a.u.) against gauge origin: 
 (X 0.000000i, Y 0.000000i, Z 0.000000i)
 Traces of the OPDMs: Tr(AA) 48.000000, Tr(BB) 46.000000
 <S^2> = 3.290526

 Excited state properties for  EOMEE-CCSD transition 18/A
 Dipole moment (a.u.): 0.000115 (X 0.000000, Y 0.000000, Z -0.000115)
 R-squared (a.u.): 2859.458976 (XX 2262.506156, YY 539.039783, ZZ 57.913037)
 Gauge origin (a.u.): (0.000000, 0.000000, 0.000000)
 Angular momentum (a.u.) against gauge origin: 
 (X 0.000000i, Y 0.000000i, Z 0.000000i)
 Traces of the OPDMs: Tr(AA) 48.000000, Tr(BB) 46.000000
 <S^2> = 2.104838

 Excited state properties for  EOMEE-CCSD transition 19/A
 Dipole moment (a.u.): 0.000056 (X 0.000000, Y 0.000000, Z -0.000056)
 R-squared (a.u.): 2858.198663 (XX 2261.189823, YY 539.207297, ZZ 57.801543)
 Gauge origin (a.u.): (0.000000, 0.000000, 0.000000)
 Angular momentum (a.u.) against gauge origin: 
 (X 0.000000i, Y 0.000000i, Z 0.000000i)
 Traces of the OPDMs: Tr(AA) 48.000000, Tr(BB) 46.000000
 <S^2> = 2.693018

 Excited state properties for  EOMEE-CCSD transition 20/A
 Dipole moment (a.u.): 0.000031 (X 0.000000, Y 0.000000, Z -0.000031)
 R-squared (a.u.): 2855.402188 (XX 2259.631128, YY 536.707140, ZZ 59.063920)
 Gauge origin (a.u.): (0.000000, 0.000000, 0.000000)
 Angular momentum (a.u.) against gauge origin: 
 (X 0.000000i, Y 0.000000i, Z 0.000000i)
 Traces of the OPDMs: Tr(AA) 48.000000, Tr(BB) 46.000000
 <S^2> = 2.057108

 EOMEE-MP2 calculation:   CPU 2150.44 s  wall 2156.75 s


 Start computing the transition properties

 ------------------------------------------------------------------------------
 The new SOC module will be executed 
 Authors: Pavel Pokhilko and Evgeny Epifanovsky 
 SOC 1e and mf integrals are evaluating by libqints...
 ------------------------------------------------------------------------------
 State A: eomee_mp2/uhfref: 1/A
 State B: eomee_mp2/uhfref: 2/A
 Energy GAP = 0.002661 a.u. = 0.072419 eV
 Transition dipole moment (a.u.):
   A->B: 0.003855 (X 0.000000, Y -0.003855, Z 0.000000)
   B->A: 0.002726 (X 0.000000, Y -0.002726, Z 0.000000)
 Oscillator strength (a.u.): 0.000000
 Transition angular momentum against gauge origin (a.u.):
   A->B:  (X -0.000003i, Y -0.000011i, Z 0.000000i)
   B->A:  (X 0.000001i, Y 0.000009i, Z 0.000000i)
 Norm of one-particle transition density matrix:
   A->B: 0.612257;   B->A: 0.624873
   ||gamma^AB||*||gamma^BA||: 0.382583

 ______________________________________________________________
 A(Ket)->B(Bra) transition SO matrices
Full 2e SOC is not implemented withing libqints. 
I will do mean-field SOC with libqints, which is usually as good as full 2e SOC
 Analysing Sz ans S^2 of the pair of states...
 Ket state:  Computed S^2 = 2.066786 will be treated as 2.000000 Sz = 1.000000
 Bra state:  Computed S^2 = 2.094616 will be treated as 2.000000 Sz = 1.000000
 Clebsh-Gordan coefficient: <1.000,1.000;1.000,0.000|1.000,1.000> = 0.707
 _________________________________________________
 One-electron SO (cm-1)
 Reduced matrix elements:
 <S|| Hso(L-) ||S'> = (-0.001259,-0.000251)
 <S|| Hso(L0) ||S'> = (0.000000,0.000000)
 <S|| Hso(L+) ||S'> = (-0.001259,0.000251)
 SOCC = 0.001816
 Actual matrix elements:
       |Sz=-1.00>           |Sz=0.00>           |Sz=1.00>
 <Sz=-1.00|(0.000000,-0.000000)(-0.000890,0.000177)(-0.000000,0.000000)
 <Sz=0.00|(0.000890,0.000177)(0.000000,-0.000000)(-0.000890,0.000177)
 <Sz=1.00|(-0.000000,-0.000000)(0.000890,0.000177)(0.000000,0.000000)
 _________________________________________________
 Mean-field SO (cm-1)
 Reduced matrix elements:
 <S|| Hso(L-) ||S'> = (-0.000661,-0.000115)
 <S|| Hso(L0) ||S'> = (0.000000,-0.000000)
 <S|| Hso(L+) ||S'> = (-0.000660,0.000115)
 SOCC = 0.000948
 Actual matrix elements:
       |Sz=-1.00>           |Sz=0.00>           |Sz=1.00>
 <Sz=-1.00|(0.000000,0.000000)(-0.000467,0.000081)(-0.000000,0.000000)
 <Sz=0.00|(0.000467,0.000081)(0.000000,-0.000000)(-0.000467,0.000081)
 <Sz=1.00|(-0.000000,-0.000000)(0.000467,0.000081)(0.000000,-0.000000)
 Singlet part of <S|| Hso(L0) ||S'> = (-0.000000,0.000000) (excluded from all matrix elements)
 L-/L+ Averaged reduced matrix elements:
 <S|| Hso(L-) ||S'> = (-0.000660,-0.000115)
 <S|| Hso(L+) ||S'> = (-0.000660,0.000115)
 ______________________________________________________________
 B(Ket)->A(Bra) transition SO matrices
Full 2e SOC is not implemented withing libqints. 
I will do mean-field SOC with libqints, which is usually as good as full 2e SOC
 Analysing Sz ans S^2 of the pair of states...
 Ket state:  Computed S^2 = 2.094616 will be treated as 2.000000 Sz = 1.000000
 Bra state:  Computed S^2 = 2.066786 will be treated as 2.000000 Sz = 1.000000
 Clebsh-Gordan coefficient: <1.000,1.000;1.000,0.000|1.000,1.000> = 0.707
 _________________________________________________
 One-electron SO (cm-1)
 Reduced matrix elements:
 <S|| Hso(L-) ||S'> = (0.001264,0.000236)
 <S|| Hso(L0) ||S'> = (0.000000,-0.000000)
 <S|| Hso(L+) ||S'> = (0.001264,-0.000236)
 SOCC = 0.001819
 Actual matrix elements:
       |Sz=-1.00>           |Sz=0.00>           |Sz=1.00>
 <Sz=-1.00|(-0.000000,0.000000)(0.000894,-0.000167)(0.000000,-0.000000)
 <Sz=0.00|(-0.000894,-0.000167)(-0.000000,0.000000)(0.000894,-0.000167)
 <Sz=1.00|(0.000000,0.000000)(-0.000894,-0.000167)(-0.000000,-0.000000)
 _________________________________________________
 Mean-field SO (cm-1)
 Reduced matrix elements:
 <S|| Hso(L-) ||S'> = (0.000663,0.000107)
 <S|| Hso(L0) ||S'> = (0.000000,0.000000)
 <S|| Hso(L+) ||S'> = (0.000664,-0.000107)
 SOCC = 0.000950
 Actual matrix elements:
       |Sz=-1.00>           |Sz=0.00>           |Sz=1.00>
 <Sz=-1.00|(-0.000000,-0.000000)(0.000469,-0.000076)(0.000000,-0.000000)
 <Sz=0.00|(-0.000469,-0.000076)(-0.000000,0.000000)(0.000469,-0.000076)
 <Sz=1.00|(0.000000,0.000000)(-0.000469,-0.000076)(-0.000000,0.000000)
 Singlet part of <S|| Hso(L0) ||S'> = (-0.000000,-0.000000) (excluded from all matrix elements)
 L-/L+ Averaged reduced matrix elements:
 <S|| Hso(L-) ||S'> = (0.000663,0.000107)
 <S|| Hso(L+) ||S'> = (0.000663,-0.000107)
 ______________________________________________________________
   Arithmetically averaged transition SO matrices
   (The phases shown, Ket and Bra assingment are from A(Ket)->B(Bra))
 _________________________________________________
 One-electron SO (cm-1)
 SOCC = 0.001817
 Actual matrix elements:
       |Sz=-1.00>           |Sz=0.00>           |Sz=1.00>
 <Sz=-1.00|(-0.000000,-0.000000)(-0.000892,0.000172)(-0.000000,0.000000)
 <Sz=0.00|(0.000892,0.000172)(-0.000000,-0.000000)(-0.000892,0.000172)
 <Sz=1.00|(0.000000,0.000000)(0.000892,0.000172)(-0.000000,0.000000)
 _________________________________________________
 Mean-field SO (cm-1)
 SOCC = 0.000949
 Actual matrix elements:
       |Sz=-1.00>           |Sz=0.00>           |Sz=1.00>
 <Sz=-1.00|(-0.000000,0.000000)(-0.000468,0.000079)(-0.000000,0.000000)
 <Sz=0.00|(0.000468,0.000079)(-0.000000,-0.000000)(-0.000468,0.000079)
 <Sz=1.00|(0.000000,0.000000)(0.000468,0.000079)(-0.000000,-0.000000)
[...]
 Bra state:  Computed S^2 = 2.104838 will be treated as 2.000000 Sz = 1.000000
 Clebsh-Gordan coefficient: <1.000,1.000;1.000,0.000|1.000,1.000> = 0.707
 _________________________________________________
 One-electron SO (cm-1)
 Reduced matrix elements:
 <S|| Hso(L-) ||S'> = (0.000003,0.000003)
 <S|| Hso(L0) ||S'> = (0.000000,0.064782)
 <S|| Hso(L+) ||S'> = (0.000003,-0.000003)
 SOCC = 0.064782
 Actual matrix elements:
       |Sz=-1.00>           |Sz=0.00>           |Sz=1.00>
 <Sz=-1.00|(-0.000000,-0.045808)(0.000002,-0.000002)(0.000000,0.000000)
 <Sz=0.00|(-0.000002,-0.000002)(-0.000000,0.000000)(0.000002,-0.000002)
 <Sz=1.00|(0.000000,0.000000)(-0.000002,-0.000002)(-0.000000,0.045808)
 _________________________________________________
 Mean-field SO (cm-1)
 Reduced matrix elements:
 <S|| Hso(L-) ||S'> = (0.000001,0.000002)
 <S|| Hso(L0) ||S'> = (0.000000,-0.130247)
 <S|| Hso(L+) ||S'> = (0.000001,-0.000002)
 SOCC = 0.130247
 Actual matrix elements:
       |Sz=-1.00>           |Sz=0.00>           |Sz=1.00>
 <Sz=-1.00|(-0.000000,0.092099)(0.000001,-0.000001)(0.000000,-0.000000)
 <Sz=0.00|(-0.000001,-0.000001)(-0.000000,-0.000000)(0.000001,-0.000001)
 <Sz=1.00|(0.000000,-0.000000)(-0.000001,-0.000001)(-0.000000,-0.092099)
 Singlet part of <S|| Hso(L0) ||S'> = (-0.000000,-0.023557) (excluded from all matrix elements)
 L-/L+ Averaged reduced matrix elements:
 <S|| Hso(L-) ||S'> = (0.000001,0.000002)
 <S|| Hso(L+) ||S'> = (0.000001,-0.000002)
 ______________________________________________________________
 B(Ket)->A(Bra) transition SO matrices
Full 2e SOC is not implemented withing libqints. 
I will do mean-field SOC with libqints, which is usually as good as full 2e SOC
 Analysing Sz ans S^2 of the pair of states...
 Ket state:  Computed S^2 = 2.104838 will be treated as 2.000000 Sz = 1.000000
 Bra state:  Computed S^2 = 2.066786 will be treated as 2.000000 Sz = 1.000000
 Clebsh-Gordan coefficient: <1.000,1.000;1.000,0.000|1.000,1.000> = 0.707
 _________________________________________________
 One-electron SO (cm-1)
 Reduced matrix elements:
 <S|| Hso(L-) ||S'> = (-0.000003,-0.000004)
 <S|| Hso(L0) ||S'> = (0.000000,-0.079418)
 <S|| Hso(L+) ||S'> = (-0.000003,0.000004)
 SOCC = 0.079418
 Actual matrix elements:
       |Sz=-1.00>           |Sz=0.00>           |Sz=1.00>
 <Sz=-1.00|(0.000000,0.056157)(-0.000002,0.000003)(-0.000000,-0.000000)
 <Sz=0.00|(0.000002,0.000003)(0.000000,-0.000000)(-0.000002,0.000003)
 <Sz=1.00|(-0.000000,-0.000000)(0.000002,0.000003)(0.000000,-0.056157)
 _________________________________________________
 Mean-field SO (cm-1)
 Reduced matrix elements:
 <S|| Hso(L-) ||S'> = (-0.000001,-0.000002)
 <S|| Hso(L0) ||S'> = (0.000000,0.135662)
 <S|| Hso(L+) ||S'> = (-0.000001,0.000002)
 SOCC = 0.135662
 Actual matrix elements:
       |Sz=-1.00>           |Sz=0.00>           |Sz=1.00>
 <Sz=-1.00|(0.000000,-0.095928)(-0.000001,0.000001)(-0.000000,0.000000)
 <Sz=0.00|(0.000001,0.000001)(0.000000,0.000000)(-0.000001,0.000001)
 <Sz=1.00|(-0.000000,0.000000)(0.000001,0.000001)(0.000000,0.095928)
 Singlet part of <S|| Hso(L0) ||S'> = (-0.000000,0.022827) (excluded from all matrix elements)
 L-/L+ Averaged reduced matrix elements:
 <S|| Hso(L-) ||S'> = (-0.000001,-0.000002)
 <S|| Hso(L+) ||S'> = (-0.000001,0.000002)
 ______________________________________________________________
   Arithmetically averaged transition SO matrices
   (The phases shown, Ket and Bra assingment are from A(Ket)->B(Bra))
 _________________________________________________
 One-electron SO (cm-1)
 SOCC = 0.072100
 Actual matrix elements:
       |Sz=-1.00>           |Sz=0.00>           |Sz=1.00>
 <Sz=-1.00|(0.000000,-0.050982)(0.000002,-0.000002)(0.000000,0.000000)
 <Sz=0.00|(-0.000002,-0.000002)(0.000000,0.000000)(0.000002,-0.000002)
 <Sz=1.00|(-0.000000,0.000000)(-0.000002,-0.000002)(0.000000,0.050982)
 _________________________________________________
 Mean-field SO (cm-1)
 SOCC = 0.132955
 Actual matrix elements:
       |Sz=-1.00>           |Sz=0.00>           |Sz=1.00>
 <Sz=-1.00|(0.000000,0.094013)(0.000001,-0.000001)(0.000000,-0.000000)
 <Sz=0.00|(-0.000001,-0.000001)(0.000000,-0.000000)(0.000001,-0.000001)
 <Sz=1.00|(-0.000000,-0.000000)(-0.000001,-0.000001)(0.000000,-0.094013)
 ______________________________________________________________

 ------------------------------------------------------------------------------
 State A: eomee_mp2/uhfref: 1/A
 State B: eomee_mp2/uhfref: 19/A
 Energy GAP = 0.155219 a.u. = 4.223737 eV
 Transition dipole moment (a.u.):
   A->B: 0.337444 (X 0.000002, Y -0.337444, Z 0.000000)
   B->A: 0.328063 (X 0.000002, Y -0.328063, Z 0.000000)
 Oscillator strength (a.u.): 0.011455
 Transition angular momentum against gauge origin (a.u.):
   A->B:  (X 0.000044i, Y -0.000024i, Z 0.000000i)
   B->A:  (X -0.000043i, Y 0.000037i, Z 0.000000i)
 Norm of one-particle transition density matrix:
   A->B: 0.610872;   B->A: 0.614233
   ||gamma^AB||*||gamma^BA||: 0.375218

 ______________________________________________________________
 A(Ket)->B(Bra) transition SO matrices
Full 2e SOC is not implemented withing libqints. 
I will do mean-field SOC with libqints, which is usually as good as full 2e SOC
 Analysing Sz ans S^2 of the pair of states...
 Ket state:  Computed S^2 = 2.066786 will be treated as 2.000000 Sz = 1.000000
WARNING! The deviation of S^2 from the correct value is large, indicating a significant spin contamination. The results may be unreliable
 Bra state:  Computed S^2 = 2.693018 will be treated as 2.000000 Sz = 1.000000
 Clebsh-Gordan coefficient: <1.000,1.000;1.000,0.000|1.000,1.000> = 0.707
 _________________________________________________
 One-electron SO (cm-1)
 Reduced matrix elements:
 <S|| Hso(L-) ||S'> = (-0.000292,0.002216)
 <S|| Hso(L0) ||S'> = (0.000000,0.000000)
 <S|| Hso(L+) ||S'> = (-0.000292,-0.002216)
 SOCC = 0.003161
 Actual matrix elements:
       |Sz=-1.00>           |Sz=0.00>           |Sz=1.00>
 <Sz=-1.00|(0.000000,-0.000000)(-0.000206,-0.001567)(-0.000000,-0.000000)
 <Sz=0.00|(0.000206,-0.001567)(0.000000,0.000000)(-0.000206,-0.001567)
 <Sz=1.00|(-0.000000,0.000000)(0.000206,-0.001567)(0.000000,0.000000)
 _________________________________________________
 Mean-field SO (cm-1)
 Reduced matrix elements:
 <S|| Hso(L-) ||S'> = (-0.000129,0.001076)
 <S|| Hso(L0) ||S'> = (0.000000,-0.000000)
 <S|| Hso(L+) ||S'> = (-0.000126,-0.001074)
 SOCC = 0.001531
 Actual matrix elements:
       |Sz=-1.00>           |Sz=0.00>           |Sz=1.00>
 <Sz=-1.00|(0.000000,0.000000)(-0.000090,-0.000760)(-0.000000,-0.000000)
 <Sz=0.00|(0.000090,-0.000760)(0.000000,0.000000)(-0.000090,-0.000760)
 <Sz=1.00|(-0.000000,0.000000)(0.000090,-0.000760)(0.000000,-0.000000)
 Singlet part of <S|| Hso(L0) ||S'> = (-0.000000,-0.000000) (excluded from all matrix elements)
 L-/L+ Averaged reduced matrix elements:
 <S|| Hso(L-) ||S'> = (-0.000127,0.001075)
 <S|| Hso(L+) ||S'> = (-0.000127,-0.001075)
 ______________________________________________________________
 B(Ket)->A(Bra) transition SO matrices
Full 2e SOC is not implemented withing libqints. 
I will do mean-field SOC with libqints, which is usually as good as full 2e SOC
 Analysing Sz ans S^2 of the pair of states...
WARNING! The deviation of S^2 from the correct value is large, indicating a significant spin contamination. The results may be unreliable
 Ket state:  Computed S^2 = 2.693018 will be treated as 2.000000 Sz = 1.000000
 Bra state:  Computed S^2 = 2.066786 will be treated as 2.000000 Sz = 1.000000
 Clebsh-Gordan coefficient: <1.000,1.000;1.000,0.000|1.000,1.000> = 0.707
 _________________________________________________
 One-electron SO (cm-1)
 Reduced matrix elements:
 <S|| Hso(L-) ||S'> = (0.000345,-0.002302)
 <S|| Hso(L0) ||S'> = (0.000000,-0.000000)
 <S|| Hso(L+) ||S'> = (0.000345,0.002302)
 SOCC = 0.003292
 Actual matrix elements:
       |Sz=-1.00>           |Sz=0.00>           |Sz=1.00>
 <Sz=-1.00|(-0.000000,0.000000)(0.000244,0.001628)(0.000000,0.000000)
 <Sz=0.00|(-0.000244,0.001628)(-0.000000,-0.000000)(0.000244,0.001628)
 <Sz=1.00|(0.000000,-0.000000)(-0.000244,0.001628)(-0.000000,-0.000000)
 _________________________________________________
 Mean-field SO (cm-1)
 Reduced matrix elements:
 <S|| Hso(L-) ||S'> = (0.000157,-0.001117)
 <S|| Hso(L0) ||S'> = (0.000000,0.000000)
 <S|| Hso(L+) ||S'> = (0.000160,0.001119)
 SOCC = 0.001596
 Actual matrix elements:
       |Sz=-1.00>           |Sz=0.00>           |Sz=1.00>
 <Sz=-1.00|(-0.000000,-0.000000)(0.000112,0.000790)(0.000000,0.000000)
 <Sz=0.00|(-0.000112,0.000790)(-0.000000,-0.000000)(0.000112,0.000790)
 <Sz=1.00|(0.000000,-0.000000)(-0.000112,0.000790)(-0.000000,0.000000)
 Singlet part of <S|| Hso(L0) ||S'> = (-0.000000,0.000000) (excluded from all matrix elements)
 L-/L+ Averaged reduced matrix elements:
 <S|| Hso(L-) ||S'> = (0.000158,-0.001118)
 <S|| Hso(L+) ||S'> = (0.000158,0.001118)
 ______________________________________________________________
   Arithmetically averaged transition SO matrices
   (The phases shown, Ket and Bra assingment are from A(Ket)->B(Bra))
 _________________________________________________
 One-electron SO (cm-1)
 SOCC = 0.003226
 Actual matrix elements:
       |Sz=-1.00>           |Sz=0.00>           |Sz=1.00>
 <Sz=-1.00|(-0.000000,-0.000000)(-0.000225,-0.001597)(-0.000000,-0.000000)
 <Sz=0.00|(0.000225,-0.001597)(-0.000000,0.000000)(-0.000225,-0.001597)
 <Sz=1.00|(0.000000,-0.000000)(0.000225,-0.001597)(-0.000000,0.000000)
 _________________________________________________
 Mean-field SO (cm-1)
 SOCC = 0.001564
 Actual matrix elements:
       |Sz=-1.00>           |Sz=0.00>           |Sz=1.00>
 <Sz=-1.00|(-0.000000,0.000000)(-0.000101,-0.000775)(-0.000000,-0.000000)
 <Sz=0.00|(0.000101,-0.000775)(-0.000000,0.000000)(-0.000101,-0.000775)
 <Sz=1.00|(0.000000,-0.000000)(0.000101,-0.000775)(-0.000000,-0.000000)
 ______________________________________________________________

 ------------------------------------------------------------------------------
 State A: eomee_mp2/uhfref: 1/A
 State B: eomee_mp2/uhfref: 20/A
 Energy GAP = 0.162434 a.u. = 4.420054 eV
 Transition dipole moment (a.u.):
   A->B: 0.000756 (X 0.000729, Y 0.000200, Z 0.000000)
   B->A: 0.000755 (X 0.000734, Y 0.000176, Z 0.000000)
 Oscillator strength (a.u.): 0.000000
 Transition angular momentum against gauge origin (a.u.):
   A->B:  (X 0.095374i, Y 0.000000i, Z -0.000001i)
   B->A:  (X -0.093312i, Y 0.000000i, Z 0.000002i)
 Norm of one-particle transition density matrix:
   A->B: 0.622312;   B->A: 0.634089
   ||gamma^AB||*||gamma^BA||: 0.394601

 ______________________________________________________________
 A(Ket)->B(Bra) transition SO matrices
Full 2e SOC is not implemented withing libqints. 
I will do mean-field SOC with libqints, which is usually as good as full 2e SOC
 Analysing Sz ans S^2 of the pair of states...
 Ket state:  Computed S^2 = 2.066786 will be treated as 2.000000 Sz = 1.000000
 Bra state:  Computed S^2 = 2.057108 will be treated as 2.000000 Sz = 1.000000
 Clebsh-Gordan coefficient: <1.000,1.000;1.000,0.000|1.000,1.000> = 0.707
 _________________________________________________
 One-electron SO (cm-1)
 Reduced matrix elements:
 <S|| Hso(L-) ||S'> = (0.000002,3.284569)
 <S|| Hso(L0) ||S'> = (0.000000,-0.000008)
 <S|| Hso(L+) ||S'> = (0.000002,-3.284569)
 SOCC = 4.645082
 Actual matrix elements:
       |Sz=-1.00>           |Sz=0.00>           |Sz=1.00>
 <Sz=-1.00|(-0.000000,0.000006)(0.000001,-2.322541)(0.000000,-0.000000)
 <Sz=0.00|(-0.000001,-2.322541)(-0.000000,0.000000)(0.000001,-2.322541)
 <Sz=1.00|(0.000000,0.000000)(-0.000001,-2.322541)(-0.000000,-0.000006)
 _________________________________________________
 Mean-field SO (cm-1)
 Reduced matrix elements:
 <S|| Hso(L-) ||S'> = (0.000001,1.584043)
 <S|| Hso(L0) ||S'> = (0.000000,-0.000000)
 <S|| Hso(L+) ||S'> = (0.000001,-1.585102)
 SOCC = 2.240924
 Actual matrix elements:
       |Sz=-1.00>           |Sz=0.00>           |Sz=1.00>
 <Sz=-1.00|(-0.000000,0.000000)(0.000001,-1.120462)(0.000000,-0.000000)
 <Sz=0.00|(-0.000001,-1.120462)(-0.000000,0.000000)(0.000001,-1.120462)
 <Sz=1.00|(0.000000,0.000000)(-0.000001,-1.120462)(-0.000000,-0.000000)
 Singlet part of <S|| Hso(L0) ||S'> = (-0.000000,0.000000) (excluded from all matrix elements)
 L-/L+ Averaged reduced matrix elements:
 <S|| Hso(L-) ||S'> = (0.000001,1.584573)
 <S|| Hso(L+) ||S'> = (0.000001,-1.584573)
 ______________________________________________________________
 B(Ket)->A(Bra) transition SO matrices
Full 2e SOC is not implemented withing libqints. 
I will do mean-field SOC with libqints, which is usually as good as full 2e SOC
 Analysing Sz ans S^2 of the pair of states...
 Ket state:  Computed S^2 = 2.057108 will be treated as 2.000000 Sz = 1.000000
 Bra state:  Computed S^2 = 2.066786 will be treated as 2.000000 Sz = 1.000000
 Clebsh-Gordan coefficient: <1.000,1.000;1.000,0.000|1.000,1.000> = 0.707
 _________________________________________________
 One-electron SO (cm-1)
 Reduced matrix elements:
 <S|| Hso(L-) ||S'> = (-0.000001,-3.335656)
 <S|| Hso(L0) ||S'> = (0.000000,0.000008)
 <S|| Hso(L+) ||S'> = (-0.000001,3.335656)
 SOCC = 4.717330
 Actual matrix elements:
       |Sz=-1.00>           |Sz=0.00>           |Sz=1.00>
 <Sz=-1.00|(0.000000,-0.000006)(-0.000001,2.358665)(-0.000000,0.000000)
 <Sz=0.00|(0.000001,2.358665)(0.000000,-0.000000)(-0.000001,2.358665)
 <Sz=1.00|(-0.000000,-0.000000)(0.000001,2.358665)(0.000000,0.000006)
 _________________________________________________
 Mean-field SO (cm-1)
 Reduced matrix elements:
 <S|| Hso(L-) ||S'> = (-0.000001,-1.614198)
 <S|| Hso(L0) ||S'> = (0.000000,0.000000)
 <S|| Hso(L+) ||S'> = (-0.000001,1.613026)
 SOCC = 2.281992
 Actual matrix elements:
       |Sz=-1.00>           |Sz=0.00>           |Sz=1.00>
 <Sz=-1.00|(0.000000,-0.000000)(-0.000000,1.140996)(-0.000000,0.000000)
 <Sz=0.00|(0.000000,1.140996)(0.000000,-0.000000)(-0.000000,1.140996)
 <Sz=1.00|(-0.000000,-0.000000)(0.000000,1.140996)(0.000000,0.000000)
 Singlet part of <S|| Hso(L0) ||S'> = (-0.000000,-0.000000) (excluded from all matrix elements)
 L-/L+ Averaged reduced matrix elements:
 <S|| Hso(L-) ||S'> = (-0.000001,-1.613612)
 <S|| Hso(L+) ||S'> = (-0.000001,1.613612)
 ______________________________________________________________
   Arithmetically averaged transition SO matrices
   (The phases shown, Ket and Bra assingment are from A(Ket)->B(Bra))
 _________________________________________________
 One-electron SO (cm-1)
 SOCC = 4.681206
 Actual matrix elements:
       |Sz=-1.00>           |Sz=0.00>           |Sz=1.00>
 <Sz=-1.00|(-0.000000,0.000006)(0.000001,-2.340603)(0.000000,-0.000000)
 <Sz=0.00|(-0.000001,-2.340603)(-0.000000,0.000000)(0.000001,-2.340603)
 <Sz=1.00|(-0.000000,-0.000000)(-0.000001,-2.340603)(-0.000000,-0.000006)
 _________________________________________________
 Mean-field SO (cm-1)
 SOCC = 2.261458
 Actual matrix elements:
       |Sz=-1.00>           |Sz=0.00>           |Sz=1.00>
 <Sz=-1.00|(-0.000000,0.000000)(0.000000,-1.130729)(0.000000,-0.000000)
 <Sz=0.00|(-0.000000,-1.130729)(-0.000000,0.000000)(0.000000,-1.130729)
 <Sz=1.00|(-0.000000,-0.000000)(-0.000000,-1.130729)(-0.000000,-0.000000)
 ______________________________________________________________


 All requested transition properties have been computed

 Transition Properties:   CPU 549.37 s  wall 550.38 s

 Total ccman2 time:   CPU 2708.68 s  wall 2716.13 s

 
 --------------------------------------------------------------
 
                    Orbital Energies (a.u.)
 --------------------------------------------------------------
 
 Alpha MOs
 -- Occupied --
-11.0394 -11.0394 -11.0393 -11.0393 -11.0285 -11.0285 -11.0281 -11.0281
-11.0269 -11.0269 -11.0268 -11.0268 -11.0271 -11.0270  -1.1321  -1.0925
 -1.0284  -1.0108  -0.9622  -0.9543  -0.9013  -0.8400  -0.7779  -0.7712
 -0.7561  -0.6972  -0.6578  -0.6375  -0.5911  -0.5829  -0.5759  -0.5591
 -0.5303  -0.5244  -0.5094  -0.4984  -0.5090  -0.4709  -0.4631  -0.4387
 -0.4133  -0.4098  -0.3584  -0.3429  -0.2952  -0.2849  -0.3171  -0.1945
 -- Virtual --
  0.2509   0.2526   0.2925   0.3187   0.4870   0.5404   0.5837   0.5865
  0.5997   0.6305   0.6592   0.6747   0.6810   0.6862   0.7256   0.7265
  0.7440   0.7675   0.7723   0.7750   0.8556   0.8830   0.8829   0.8870
  0.9561   0.9724   0.9731   0.9788   1.1003   1.1040   1.1668   1.1896
 
 Beta MOs
 -- Occupied --
-11.0389 -11.0388 -11.0388 -11.0388 -11.0279 -11.0279 -11.0275 -11.0275
-11.0254 -11.0254 -11.0253 -11.0253 -11.0096 -11.0095  -1.1138  -1.0867
 -1.0093  -0.9811  -0.9549  -0.9490  -0.8637  -0.8179  -0.7716  -0.7507
 -0.7513  -0.6821  -0.6527  -0.6292  -0.5844  -0.5782  -0.5671  -0.5563
 -0.5264  -0.5136  -0.5014  -0.4930  -0.4701  -0.4655  -0.4433  -0.4354
 -0.4050  -0.4036  -0.3141  -0.2917  -0.2644  -0.2660
 -- Virtual --
  0.1700   0.2893   0.2697   0.2853   0.3496   0.3642   0.5085   0.5854
  0.5919   0.5918   0.6025   0.6709   0.6611   0.6850   0.6885   0.7216
  0.7306   0.7339   0.7509   0.7746   0.7795   0.7827   0.8660   0.8860
  0.8865   0.8978   0.9634   0.9807   0.9818   0.9864   1.1038   1.1064
  1.1720   1.1975
 --------------------------------------------------------------
 
          Ground-State Mulliken Net Atomic Charges

     Atom                 Charge (a.u.)
  ----------------------------------------
      1 C                    -0.004060
      2 C                    -0.055511
      3 H                     0.061104
      4 C                    -0.064300
      5 H                     0.063582
      6 C                    -0.064300
      7 H                     0.063582
      8 C                    -0.055511
      9 H                     0.061104
     10 C                    -0.004060
     11 C                    -0.056453
     12 H                     0.054825
     13 C                    -0.056453
     14 H                     0.054825
     15 C                    -0.004060
     16 C                    -0.055511
     17 H                     0.061104
     18 C                    -0.064300
     19 H                     0.063582
     20 C                    -0.064300
     21 H                     0.063582
     22 C                    -0.055511
     23 H                     0.061104
     24 C                    -0.004060
  ----------------------------------------
  Sum of atomic charges =     0.000000

 -----------------------------------------------------------------
                    Cartesian Multipole Moments
 -----------------------------------------------------------------
    Charge (ESU x 10^10)
                -0.0000
    Dipole Moment (Debye)
         X      -0.0000      Y       0.0000      Z      -0.0002
       Tot       0.0002
    Quadrupole Moments (Debye-Ang)
        XX     -70.1756     XY      -0.0000     YY     -69.9962
        XZ      -0.0000     YZ      -0.0000     ZZ     -77.9363
    Octopole Moments (Debye-Ang^2)
       XXX       0.0000    XXY      -0.0000    XYY      -0.0000
       YYY       0.0000    XXZ      -0.0009    XYZ       0.0042
       YYZ      -0.0021    XZZ      -0.0000    YZZ       0.0000
       ZZZ      -0.0000
    Hexadecapole Moments (Debye-Ang^3)
      XXXX   -2822.7461   XXXY       0.0000   XXYY    -580.2482
      XYYY      -0.0000   YYYY    -653.3409   XXXZ      -0.0003
      XXYZ      -0.0000   XYYZ      -0.0000   YYYZ      -0.0000
      XXZZ    -535.4357   XYZZ      -0.0000   YYZZ    -133.6511
      XZZZ      -0.0000   YZZZ      -0.0000   ZZZZ     -63.0160
 -----------------------------------------------------------------
 Total job time:  2769.80s(wall), 2761.29s(cpu) 
 Fri Jan 26 18:23:34 2024

        *************************************************************
        *                                                           *
        *  Thank you very much for using Q-Chem.  Have a nice day.  *
        *                                                           *
        *************************************************************


