                  Welcome to Q-Chem
     A Quantum Leap Into The Future Of Chemistry


 Q-Chem 6.0 (devel), Q-Chem, Inc., Pleasanton, CA (2022)

 E. Epifanovsky,  A. T. B. Gilbert,  Xintian Feng,  Joonho Lee,  Yuezhi Mao,  
 N. Mardirossian,  P. Pokhilko,  A. White,  M. Wormit,  M. P. Coons,  
 A. L. Dempwolff,  Zhengting Gan,  D. Hait,  P. R. Horn,  L. D. Jacobson,  
 I. Kaliman,  J. Kussmann,  A. W. Lange,  Ka Un Lao,  D. S. Levine,  Jie Liu,  
 S. C. McKenzie,  A. F. Morrison,  K. Nanda,  F. Plasser,  D. R. Rehn,  
 M. L. Vidal,  Zhi-Qiang You,  Ying Zhu,  B. Alam,  B. Albrecht,  
 A. Aldossary,  E. Alguire,  J. H. Andersen,  V. Athavale,  D. Barton,  
 K. Begam,  A. Behn,  N. Bellonzi,  Y. A. Bernard,  E. J. Berquist,  
 H. Burton,  A. Carreras,  K. Carter-Fenk,  Romit Chakraborty,  
 Chandrima Chakravarty,  Junhan Chen,  A. D. Chien,  K. D. Closser,  
 V. Cofer-Shabica,  L. Cunha,  S. Dasgupta,  Jia Deng,  M. de Wergifosse,  
 M. Diedenhofen,  Hainam Do,  S. Ehlert,  Po-Tung Fang,  S. Fatehi,  
 Qingguo Feng,  T. Friedhoff,  B. Ganoe,  J. Gayvert,  Qinghui Ge,  
 G. Gidofalvi,  M. Goldey,  J. Gomes,  C. Gonzalez-Espinoza,  S. Gulania,  
 A. Gunina,  J. A. Gyamfi,  M. W. D. Hanson-Heine,  P. H. P. Harbach,  
 A. W. Hauser,  M. F. Herbst,  M. Hernandez Vera,  M. Hodecker,  
 Z. C. Holden,  S. Houck,  Xunkun Huang,  Kerwin Hui,  B. C. Huynh,  
 K. Ikeda,  M. Ivanov,  Hyunjun Ji,  Zuxin Jin,  Hanjie Jiang,  B. Kaduk,  
 S. Kaehler,  R. Kang,  K. Khistyaev,  Jaehoon Kim,  Yongbin Kim,  
 P. Klunzinger,  Z. Koczor-Benda,  Joong Hoon Koh,  D. Kosenkov,  
 Saikiran Kotaru,  L. Koulias,  T. Kowalczyk,  C. M. Krauter,  K. Kue,  
 A. Kunitsa,  T. Kus,  A. Landau,  K. V. Lawler,  D. Lefrancois,  S. Lehtola,  
 Rain Li,  Shaozhi Li,  Yi-Pei Li,  Jiashu Liang,  M. Liebenthal,  
 Hung-Hsuan Lin,  You-Sheng Lin,  Fenglai Liu,  Kuan-Yu Liu,  
 M. Loipersberger,  A. Luenser,  C. Malbon,  A. Manjanath,  P. Manohar,  
 E. Mansoor,  S. F. Manzer,  Shan-Ping Mao,  A. V. Marenich,  T. Markovich,  
 S. Mason,  F. Matz,  S. A. Maurer,  P. F. McLaughlin,  M. F. S. J. Menger,  
 J.-M. Mewes,  S. A. Mewes,  P. Morgante,  Mohammad Mostafanejad,  
 J. W. Mullinax,  K. J. Oosterbaan,  G. Paran,  V. Parravicini,  
 Alexander C. Paul,  Suranjan K. Paul,  F. Pavosevic,  Zheng Pei,  S. Prager,  
 E. I. Proynov,  E. Ramos,  B. Rana,  A. E. Rask,  A. Rettig,  R. M. Richard,  
 F. Rob,  E. Rossomme,  T. Scheele,  M. Scheurer,  M. Schneider,  
 P. E. Schneider,  N. Sergueev,  S. M. Sharada,  Hengyuan Shen,  
 W. Skomorowski,  D. W. Small,  C. J. Stein,  Yingli Su,  Yu-Chuan Su,  
 E. J. Sundstrom,  Zhen Tao,  J. Thirman,  Hung-Yi Tsai,  T. Tsuchimochi,  
 N. M. Tubman,  C. Utku,  S. P. Veccham,  O. Vydrov,  J. Wenzel,  
 Jonathan Wong,  J. Witte,  A. Yamada,  Chou-Hsun Yang,  Kun Yao,  
 S. Yeganeh,  S. R. Yost,  A. Zech,  F. Zeller,  Igor Ying Zhang,  
 Xing Zhang,  Yu Zhang,  D. Zuev,  A. Aspuru-Guzik,  A. T. Bell,  
 N. A. Besley,  K. B. Bravaya,  B. R. Brooks,  D. Casanova,  Jeng-Da Chai,  
 Hsing-Ta Chen,  S. Coriani,  C. J. Cramer,  A. E. DePrince, III,  
 R. A. DiStasio Jr.,  A. Dreuw,  B. D. Dunietz,  T. R. Furlani,  
 W. A. Goddard III,  S. Grimme,  S. Hammes-Schiffer,  T. Head-Gordon,  
 W. J. Hehre,  Chao-Ping Hsu,  T.-C. Jagau,  Yousung Jung,  A. Klamt,  
 Jing Kong,  D. S. Lambrecht,  Xiangyuan Li,  WanZhen Liang,  N. J. Mayhall,  
 C. W. McCurdy,  J. B. Neaton,  T. Neudecker,  C. Ochsenfeld,  
 J. A. Parkhill,  R. Peverati,  V. A. Rassolov,  Haisheng Ren,  Yihan Shao,  
 L. V. Slipchenko,  R. P. Steele,  J. E. Subotnik,  A. J. W. Thom,  
 A. Tkatchenko,  D. G. Truhlar,  T. Van Voorhis,  Fan Wang,  
 T. A. Wesolowski,  K. B. Whaley,  H. L. Woodcock III,  P. M. Zimmerman,  
 S. Faraji,  P. M. W. Gill,  M. Head-Gordon,  J. M. Herbert,  A. I. Krylov

 Contributors to earlier versions of Q-Chem not listed above: 
 R. D. Adamson,  B. Austin,  R. Baer,  J. Baker,  G. J. O. Beran,  
 K. Brandhorst,  S. T. Brown,  E. F. C. Byrd,  Arup K. Chakraborty,  
 G. K. L. Chan,  Chun-Min Chang,  Yunqing Chen,  C.-L. Cheng,  
 Siu Hung Chien,  D. M. Chipman,  D. L. Crittenden,  H. Dachsel,  
 R. J. Doerksen,  A. D. Dutoi,  R. G. Edgar,  J. Fosso-Tande,  
 L. Fusti-Molnar,  D. Ghosh,  A. Ghysels,  A. Golubeva-Zadorozhnaya,  
 J. Gonthier,  M. S. Gordon,  S. R. Gwaltney,  G. Hawkins,  J. E. Herr,  
 A. Heyden,  S. Hirata,  E. G. Hohenstein,  G. Kedziora,  F. J. Keil,  
 C. Kelley,  Jihan Kim,  R. A. King,  R. Z. Khaliullin,  P. P. Korambath,  
 W. Kurlancheek,  A. Laurent,  A. M. Lee,  M. S. Lee,  S. V. Levchenko,  
 Ching Yeh Lin,  D. Liotard,  E. Livshits,  R. C. Lochan,  I. Lotan,  
 L. A. Martinez-Martinez,  P. E. Maslen,  N. Nair,  D. P. O'Neill,  
 D. Neuhauser,  E. Neuscamman,  C. M. Oana,  R. Olivares-Amaya,  R. Olson,  
 T. M. Perrine,  B. Peters,  P. A. Pieniazek,  A. Prociuk,  Y. M. Rhee,  
 J. Ritchie,  M. A. Rohrdanz,  E. Rosta,  N. J. Russ,  H. F. Schaefer III,  
 M. W. Schmidt,  N. E. Schultz,  S. Sharma,  N. Shenvi,  C. D. Sherrill,  
 A. C. Simmonett,  A. Sodt,  T. Stein,  D. Stuck,  K. S. Thanthiriwatte,  
 V. Vanovschi,  L. Vogt,  Tao Wang,  A. Warshel,  M. A. Watson,  
 C. F. Williams,  Q. Wu,  X. Xu,  Jun Yang,  W. Zhang,  Yan Zhao

   Please cite Q-Chem as follows:
  "Software for the frontiers of quantum chemistry:
   An overview of developments in the Q-Chem 5 package"
   J. Chem. Phys. 155, 084801 (2021)
   https://doi.org/10.1063/5.0055522 (open access)

 Q-Chem 6.0.1 for Intel X86 EM64T Linux

 Parts of Q-Chem use Armadillo 9.900.5 (Nocturnal Misbehaviour).
 http://arma.sourceforge.net/

 Q-Chem begins on Mon Jan 22 18:18:55 2024  

 Host: atlas-018
0

     Scratch files written to ./qchem16151//
 Processing $rem in /scratch/abel/SOFTWARE/qchem/config/preferences:
 Processing $rem in /dipc/acebg/.qchemrc:
 Core orbitals will be frozen

 Checking the input file for inconsistencies... 	...done.

--------------------------------------------------------------
User input:
--------------------------------------------------------------
$comment
 RAS-SF CALCULATION
$end

$molecule
 READ anthracene_opt_singlet.molecule
$end

$rem
!**CALCULATION TYPE***     
JOBTYPE            sp    
BASIS              STO-3G !def2-TZVP

!***SCF REFERENCE***
!SKIP_SCFMAN        FALSE
UNRESTRICTED       FALSE
!SCF_GUESS          core
!SCF_GUESS_MIX      FALSE
!SCF_GUESS_ALWAYS   FALSE
MAX_SCF_CYCLES     500
!SCF_CONVERGENCE    10
SCF_ALGORITHM      DIIS_GDM !DIIS,DM,DIIS_DM,GDM,DIIS_GDM,GD

!SYMMETRY           TRUE   !use of symmetry for calculating integrals
!SYM_IGNORE         FALSE  !turn off using symmetry
!SYM_TOL            5      !tolerance for determining point group
!USE_ABELIAN_SUBGROUP      !define to use abelian group

!THRESH             14
SCF_FINAL_PRINT     1 !0,1,2,3

!****CCSD****
CORRELATION        CCSD
!CC_CONVERGENCE     6
!CC_MAX_ITER        200
CC_PRINT	   2
!CHOLESKY_TOL       3 !Toler. decomposition 2e integrals
CC_REF_PROP  	   1 !one-particle CCSD properties calculation
!CC_REF_PROP_TE	   0 !two-particle CCSD properties calculation
CC_MEMORY	   10000
!CC_FNO_THRESH
!CC_BACKEND	   XM !Used to specify the computational back-end of CCMAN2.

!****EOM****
METHOD             EOM-MP2
SF_STATES	   [5]
CC_STATE_TO_OPT    [1,1]
CC_EOM_PROP        1
CC_EOM_PROP_TE	   1
CC_TRANS_PROP      1
CALC_SOC           TRUE   !calculate SOC for EOM-CC, RAS-CI, ADC, TDDFT/TDA and TDDFT

!****MEMORY****
MEM_TOTAL          70000 !Default 2000 MB
MEM_STATIC         20000  !Default 64 MB

!**Molecular Properties and Analysis **                                                                                          
!POP_MULLIKEN       TRUE   !Run Mulliken population analysis
!LOWDIN_POPULATION  TRUE   !Run Löwdin population analysis
GUI                0       !Checkpoints generation
!STATE_ANALYSIS     TRUE

!**Wave function analysis**
!PLOTS = 0     ! Note: This can be omitted, default is 0
!NTO_PAIRS = 2 ! Note: This can be omitted, default is 2
!GUI 0
!MOLDEN_FORMAT      TRUE
!PRINT_ORBITALS     15
$end

!$plots
!   grid_points 100 100 100
!   grid_range  (-10,10) (-10,10) (-10,10)
!$end

--------------------------------------------------------------
 ----------------------------------------------------------------
             Standard Nuclear Orientation (Angstroms)
    I     Atom           X                Y                Z
 ----------------------------------------------------------------
    1      C       1.2528696110    -0.7144616643     0.0000611748
    2      C       2.4661185256    -1.3873929098     0.0000888763
    3      H       2.4670317640    -2.4712684532    -0.0003057438
    4      C       3.6841006918    -0.6876643530     0.0000015246
    5      H       4.6172560521    -1.2351253405    -0.0000635121
    6      C       3.6841005673     0.6876646405     0.0001354170
    7      H       4.6172557863     1.2351258725     0.0001490616
    8      C       2.4661182998     1.3873930201     0.0000396542
    9      H       2.4670309197     2.4712685933     0.0003432278
   10      C       1.2528695387     0.7144615088    -0.0000846763
   11      C       0.0000005393    -1.4023074043    -0.0001838106
   12      H       0.0000006531    -2.4857083698    -0.0004570569
   13      C      -0.0000005712     1.4023074721    -0.0001838566
   14      H      -0.0000006933     2.4857084373    -0.0004585605
   15      C      -1.2528696259     0.7144617005     0.0000593180
   16      C      -2.4661185573     1.3873929157     0.0000876230
   17      H      -2.4670314450     2.4712684589    -0.0003085620
   18      C      -3.6841006695     0.6876642646     0.0000023815
   19      H      -4.6172559004     1.2351254729    -0.0000599772
   20      C      -3.6841005823    -0.6876647288     0.0001370081
   21      H      -4.6172558928    -1.2351258048     0.0001546533
   22      C      -2.4661182611    -1.3873930144     0.0000375438
   23      H      -2.4670312506    -2.4712685875     0.0003405012
   24      C      -1.2528695051    -0.7144614941    -0.0000871830
 ----------------------------------------------------------------
 Molecular Point Group                 C1    NOp =  1
 Largest Abelian Subgroup              C1    NOp =  1
 Nuclear Repulsion Energy =         766.54296530 hartrees
 There are       47 alpha and       47 beta electrons
 Requested basis set is STO-3G
 There are 38 shells and 80 basis functions
WARNING: MEM_STATIC is adjusted to be 2000 MB!
 Total memory of 70000 MB is distributed as follows: 
   MEM_STATIC is set to 2000 MB
   QALLOC/CCMAN JOB total memory use is  68000 MB
 Warning: actual memory use might exceed 70000 MB

 Total QAlloc Memory Limit  70000 MB
 Mega-Array Size      1956 MB
 MEM_STATIC part      2000 MB

 A cutoff of  1.0D-14 yielded    636 shell pairs
 There are      3171 function pairs
 Smallest overlap matrix eigenvalue = 1.70E-01

 Scale SEOQF with 1.000000e-01/1.000000e-01/1.000000e+00

 Standard Electronic Orientation quadrupole field applied
 Nucleus-field energy     =     0.0000000318 hartrees
 Guess from superposition of atomic densities
 Warning:  Energy on first SCF cycle will be non-variational
 SAD guess density has 94.000000 electrons

 -----------------------------------------------------------------------
  General SCF calculation program by
  Eric Jon Sundstrom, Paul Horn, Yuezhi Mao, Dmitri Zuev, Alec White,
  David Stuck, Shaama M.S., Shane Yost, Joonho Lee, David Small,
  Daniel Levine, Susi Lehtola, Hugh Burton, Evgeny Epifanovsky,
  Bang C. Huynh
 -----------------------------------------------------------------------
 Hartree-Fock
 A restricted SCF calculation will be
 performed using DIIS, GDM
 SCF converges when RMS gradient is below 1.0e-08
 ---------------------------------------
  Cycle       Energy         DIIS error
 ---------------------------------------
    1    -530.4643380232      1.33e-01  
    2    -529.3527317135      7.87e-03  Done DIIS. Switching to GDM
 ---------------------------------------
  Cycle       Energy        RMS Gradient
 ---------------------------------------
    1    -529.3527317135      5.83e-02   Normal BFGS step
    2    -529.4342943937      1.59e-02   Normal BFGS step
    3    -529.4398246929      9.02e-03   Normal BFGS step
    4    -529.4400883751      3.25e-03   Normal BFGS step
    5    -529.4401178844      9.43e-04   Normal BFGS step
    6    -529.4401242492      3.38e-04   Normal BFGS step
    7    -529.4401248877      6.37e-05   Normal BFGS step
    8    -529.4401249083      6.42e-06   Normal BFGS step
    9    -529.4401249086      1.74e-06   Normal BFGS step
   10    -529.4401249087      6.23e-07   Normal BFGS step
   11    -529.4401249087      2.03e-07   Normal BFGS step
   12    -529.4401249087      6.00e-08   Normal BFGS step
   13    -529.4401249087      1.43e-08   Normal BFGS step
   14    -529.4401249087      1.36e-09  Convergence criterion met
 ---------------------------------------
 DFT Correlation    Energy =   0.00000000000000
 DFT Exchange       Energy =   0.00000000000000
 HF Exchange        Energy = -76.25755059507517
 Kinetic            Energy =   0.00000000000000
 Nuclear Attraction Energy =   0.00000000000000
 One-Electron       Energy = -2241.93038487371086
 Total Coulomb      Energy = 1022.20484523306288
 Final Alpha MO Eigenvalues
            1           2           3           4           5           6
    1 -11.0399638 -11.0398815 -11.0398809 -11.0398607 -11.0305728 -11.0305725
            7           8           9          10          11          12
    1 -11.0302502 -11.0302498 -11.0286977 -11.0286971 -11.0286240 -11.0286236
           13          14          15          16          17          18
    1 -11.0259054 -11.0258170  -1.1238175  -1.0917001  -1.0197893  -0.9980016
           19          20          21          22          23          24
    1  -0.9602271  -0.9524554  -0.8840592  -0.8293391  -0.7754503  -0.7609352
           25          26          27          28          29          30
    1  -0.7544494  -0.6907011  -0.6565974  -0.6336048  -0.5879427  -0.5819960
           31          32          33          34          35          36
    1  -0.5719329  -0.5586322  -0.5301511  -0.5187532  -0.5056056  -0.4992925
           37          38          39          40          41          42
    1  -0.4971933  -0.4692138  -0.4502740  -0.4381599  -0.4093638  -0.4071586
           43          44          45          46          47          48
    1  -0.3534428  -0.3477236  -0.2841210  -0.2613622  -0.1668541   0.1407860
           49          50          51          52          53          54
    1   0.2445811   0.2718104   0.3515546   0.3569684   0.4924239   0.5731825
           55          56          57          58          59          60
    1   0.5877707   0.5890328   0.5997038   0.6515751   0.6586626   0.6805195
           61          62          63          64          65          66
    1   0.6833873   0.7055651   0.7273547   0.7294633   0.7469023   0.7705393
           67          68          69          70          71          72
    1   0.7760105   0.7767450   0.8585783   0.8821792   0.8823780   0.8935216
           73          74          75          76          77          78
    1   0.9589923   0.9754909   0.9770153   0.9824214   1.1009002   1.1030581
           79          80
    1   1.1672273   1.1927721
 SCF time:   CPU 3.99s  wall 4.00s 
 SCF   energy in the final basis set =     -529.4401249087
 Total energy in the final basis set =     -529.4401249087
 mp2 is not implemented in computing transition properties!


 ------------------------------------------------------------------------------

   CCMAN2: suite of methods based on coupled cluster
           and equation of motion theories.

   Components:
   * libvmm-1.3-trunk
     by Evgeny Epifanovsky, Ilya Kaliman.
   * libtensor-2.5-trunk
     by Evgeny Epifanovsky, Michael Wormit, Dmitry Zuev, Sam Manzer, 
        Ilya Kaliman.
   * libcc-2.5-trunk
     by Evgeny Epifanovsky, Arik Landau, Tomasz Kus, Kirill Khistyaev, 
        Dmitry Zuev, Prashant Manohar, Xintian Feng, Anna Krylov, 
        Matthew Goldey, Alec White, Thomas Jagau, Kaushik Nanda, 
        Anastasia Gunina, Alexander Kunitsa, Joonho Lee.

   CCMAN original authors:
   Anna I. Krylov, C. David Sherrill, Steven R. Gwaltney,
   Edward F. C. Byrd (2000)
   Sergey V. Levchenko, Lyudmila V. Slipchenko, Tao Wang,
   Ana-Maria C. Cristian (2003)
   Piotr A. Pieniazek, C. Melania Oana, Evgeny Epifanovsky (2007)
   Prashant Manohar (2009)

 ------------------------------------------------------------------------------


 Allocating and initializing 10000MB of RAM...
 Calculation will run on 1 core.

 
 Alpha MOs, Restricted
 -- Occupied --                  
-11.040 -11.040 -11.040 -11.040 -11.031 -11.031 -11.030 -11.030
  1 A     2 A     3 A     4 A     5 A     6 A     7 A     8 A                  
-11.029 -11.029 -11.029 -11.029 -11.026 -11.026  -1.124  -1.092
  9 A    10 A    11 A    12 A    13 A    14 A    15 A    16 A                  
 -1.020  -0.998  -0.960  -0.952  -0.884  -0.829  -0.775  -0.761
 17 A    18 A    19 A    20 A    21 A    22 A    23 A    24 A                  
 -0.754  -0.691  -0.657  -0.634  -0.588  -0.582  -0.572  -0.559
 25 A    26 A    27 A    28 A    29 A    30 A    31 A    32 A                  
 -0.530  -0.519  -0.506  -0.499  -0.497  -0.469  -0.450  -0.438
 33 A    34 A    35 A    36 A    37 A    38 A    39 A    40 A                  
 -0.409  -0.407  -0.353  -0.348  -0.284  -0.261  -0.167
 41 A    42 A    43 A    44 A    45 A    46 A    47 A                          
 -- Virtual --                   
  0.141   0.245   0.272   0.352   0.357   0.492   0.573   0.588
 48 A    49 A    50 A    51 A    52 A    53 A    54 A    55 A                  
  0.589   0.600   0.652   0.659   0.681   0.683   0.706   0.727
 56 A    57 A    58 A    59 A    60 A    61 A    62 A    63 A                  
  0.729   0.747   0.771   0.776   0.777   0.859   0.882   0.882
 64 A    65 A    66 A    67 A    68 A    69 A    70 A    71 A                  
  0.894   0.959   0.975   0.977   0.982   1.101   1.103   1.167
 72 A    73 A    74 A    75 A    76 A    77 A    78 A    79 A                  
  1.193
 80 A                                                                          
 
 Beta MOs, Restricted
 -- Occupied --                  
-11.040 -11.040 -11.040 -11.040 -11.031 -11.031 -11.030 -11.030
  1 A     2 A     3 A     4 A     5 A     6 A     7 A     8 A                  
-11.029 -11.029 -11.029 -11.029 -11.026 -11.026  -1.124  -1.092
  9 A    10 A    11 A    12 A    13 A    14 A    15 A    16 A                  
 -1.020  -0.998  -0.960  -0.952  -0.884  -0.829  -0.775  -0.761
 17 A    18 A    19 A    20 A    21 A    22 A    23 A    24 A                  
 -0.754  -0.691  -0.657  -0.634  -0.588  -0.582  -0.572  -0.559
 25 A    26 A    27 A    28 A    29 A    30 A    31 A    32 A                  
 -0.530  -0.519  -0.506  -0.499  -0.497  -0.469  -0.450  -0.438
 33 A    34 A    35 A    36 A    37 A    38 A    39 A    40 A                  
 -0.409  -0.407  -0.353  -0.348  -0.284  -0.261  -0.167
 41 A    42 A    43 A    44 A    45 A    46 A    47 A                          
 -- Virtual --                   
  0.141   0.245   0.272   0.352   0.357   0.492   0.573   0.588
 48 A    49 A    50 A    51 A    52 A    53 A    54 A    55 A                  
  0.589   0.600   0.652   0.659   0.681   0.683   0.706   0.727
 56 A    57 A    58 A    59 A    60 A    61 A    62 A    63 A                  
  0.729   0.747   0.771   0.776   0.777   0.859   0.882   0.882
 64 A    65 A    66 A    67 A    68 A    69 A    70 A    71 A                  
  0.894   0.959   0.975   0.977   0.982   1.101   1.103   1.167
 72 A    73 A    74 A    75 A    76 A    77 A    78 A    79 A                  
  1.193
 80 A                                                                          

 Occupation and symmetry of molecular orbitals

 Point group: C1 (1 irreducible representation).

                           A     All 
 -------------------------------------
 All molecular orbitals:
  - Alpha                  80    80  
  - Beta                   80    80  
 -------------------------------------
 Alpha orbitals:
  - Frozen occupied        14    14  
  - Active occupied        33    33  
  - Active virtual         33    33  
  - Frozen virtual         0     0   
 -------------------------------------
 Beta orbitals:
  - Frozen occupied        14    14  
  - Active occupied        33    33  
  - Active virtual         33    33  
  - Frozen virtual         0     0   
 -------------------------------------

 Import integrals:   CPU 0.00 s  wall 0.00 s

 Import integrals:   CPU 2.27 s  wall 2.41 s

 Computing CCSD intermediates for later calculations in double precision
 Finished.

 MP2 amplitudes:   CPU 4.48 s  wall 4.66 s

        Solving for EOMSF-CCSD A transitions.

Running a double precision version
       EOMSF-CCSD/MP2 right amplitudes will be solved using Davidson.
        Amplitudes will be solved using standard  algorithm.
     Hard-coded thresholds: 
     LinDepThresh=1.00e-15  NormThresh=1.00e-06  ReorthogonThresh=1.00e-02

      Roots     MaxVec    MaxIter   Precond   Conv      Shift    
      5         120       60        1         1.00e-05  0.00e+00  
 ------------------------------------------------------------------------------
      Iter ConvRoots NVecs ResNorm^2 Current eigenvalues (eV)
 ------------------------------------------------------------------------------
      0    0      10    1.35e-01   4.9426   7.3918   8.4312   8.8658   8.8932   
      1    0      15    1.53e-02   2.1785   4.4493   5.1213   5.8177   6.0392   
      2    0      20    4.25e-03   1.5135   3.6702   4.4036   4.8271   5.7803   
      3    0      25    8.67e-04   1.4438   3.5603   4.2625   4.5960   5.7593   
      4    0      30    2.50e-04   1.4336   3.5367   4.2204   4.5390   5.7574   
      5    1      35    7.58e-05   1.4305   3.5277   4.2004   4.5154   5.7562*  
      6    2      39    1.98e-05   1.4298*  3.5264   4.1962   4.5098   5.7562*  
      7    4      42    5.82e-06   1.4298*  3.5261*  4.1955   4.5085*  5.7562*  
      8    5      43    4.42e-06   1.4298*  3.5261*  4.1951*  4.5085*  5.7562*  

     Davidson procedure converged

 EOMSF transition 1/A
 Total energy = -530.21321320 a.u.  Excitation energy = 1.4298 eV.
 R1^2 = 0.9226  R2^2 = 0.0774  Res^2 = 1.56e-06
 Conv-d = yes

 Amplitude    Transitions between orbitals
  0.9019       47 (A) A                  ->    48 (A) B                   
  0.1922       45 (A) A                  ->    50 (A) B                   
  0.1505       44 (A) A                  ->    51 (A) B                   
  0.1192       46 (A) A                  ->    49 (A) B                   
  0.1078       43 (A) A                  ->    52 (A) B                   

              Summary of significant orbitals:

               Number  Type             Irrep      Energy
               43      Occ  Alpha      43 (A)     -0.3534
               44      Occ  Alpha      44 (A)     -0.3477
               45      Occ  Alpha      45 (A)     -0.2841
               46      Occ  Alpha      46 (A)     -0.2614
               47      Occ  Alpha      47 (A)     -0.1669
               48      Vir  Beta       48 (A)      0.1408
               49      Vir  Beta       49 (A)      0.2446
               50      Vir  Beta       50 (A)      0.2718
               51      Vir  Beta       51 (A)      0.3516
               52      Vir  Beta       52 (A)      0.3570


 EOMSF transition 2/A
 Total energy = -530.13617501 a.u.  Excitation energy = 3.5261 eV.
 R1^2 = 0.9240  R2^2 = 0.0760  Res^2 = 1.80e-06
 Conv-d = yes

 Amplitude    Transitions between orbitals
 -0.6590       45 (A) A                  ->    48 (A) B                   
 -0.5977       47 (A) A                  ->    50 (A) B                   
 -0.2170       44 (A) A                  ->    50 (A) B                   
 -0.1999       45 (A) A                  ->    51 (A) B                   

              Summary of significant orbitals:

               Number  Type             Irrep      Energy
               44      Occ  Alpha      44 (A)     -0.3477
               45      Occ  Alpha      45 (A)     -0.2841
               47      Occ  Alpha      47 (A)     -0.1669
               48      Vir  Beta       48 (A)      0.1408
               50      Vir  Beta       50 (A)      0.2718
               51      Vir  Beta       51 (A)      0.3516


 EOMSF transition 3/A
 Total energy = -530.11158771 a.u.  Excitation energy = 4.1951 eV.
 R1^2 = 0.8309  R2^2 = 0.1691  Res^2 = 3.23e-06
 Conv-d = yes

 Amplitude    Transitions between orbitals
 -0.6593       46 (A) A                  ->    48 (A) B                   
 -0.5916       47 (A) A                  ->    49 (A) B                   
 -0.1354       43 (A) A                  ->    50 (A) B                   
 -0.1239       45 (A) A                  ->    52 (A) B                   

              Summary of significant orbitals:

               Number  Type             Irrep      Energy
               43      Occ  Alpha      43 (A)     -0.3534
               45      Occ  Alpha      45 (A)     -0.2841
               46      Occ  Alpha      46 (A)     -0.2614
               47      Occ  Alpha      47 (A)     -0.1669
               48      Vir  Beta       48 (A)      0.1408
               49      Vir  Beta       49 (A)      0.2446
               50      Vir  Beta       50 (A)      0.2718
               52      Vir  Beta       52 (A)      0.3570


 EOMSF transition 4/A
 Total energy = -530.10007335 a.u.  Excitation energy = 4.5085 eV.
 R1^2 = 0.9248  R2^2 = 0.0752  Res^2 = 8.55e-06
 Conv-d = yes

 Amplitude    Transitions between orbitals
 -0.6367       44 (A) A                  ->    48 (A) B                   
 -0.5310       47 (A) A                  ->    51 (A) B                   
 -0.4359       45 (A) A                  ->    50 (A) B                   
 -0.1139       46 (A) A                  ->    49 (A) B                   

              Summary of significant orbitals:

               Number  Type             Irrep      Energy
               44      Occ  Alpha      44 (A)     -0.3477
               45      Occ  Alpha      45 (A)     -0.2841
               46      Occ  Alpha      46 (A)     -0.2614
               47      Occ  Alpha      47 (A)     -0.1669
               48      Vir  Beta       48 (A)      0.1408
               49      Vir  Beta       49 (A)      0.2446
               50      Vir  Beta       50 (A)      0.2718
               51      Vir  Beta       51 (A)      0.3516


 EOMSF transition 5/A
 Total energy = -530.05422096 a.u.  Excitation energy = 5.7562 eV.
 R1^2 = 0.9250  R2^2 = 0.0750  Res^2 = 6.96e-06
 Conv-d = yes

 Amplitude    Transitions between orbitals
  0.6998       47 (A) A                  ->    49 (A) B                   
 -0.6437       46 (A) A                  ->    48 (A) B                   
  0.0892       45 (A) A                  ->    52 (A) B                   
 -0.0713       43 (A) A                  ->    50 (A) B                   

              Summary of significant orbitals:

               Number  Type             Irrep      Energy
               43      Occ  Alpha      43 (A)     -0.3534
               45      Occ  Alpha      45 (A)     -0.2841
               46      Occ  Alpha      46 (A)     -0.2614
               47      Occ  Alpha      47 (A)     -0.1669
               48      Vir  Beta       48 (A)      0.1408
               49      Vir  Beta       49 (A)      0.2446
               50      Vir  Beta       50 (A)      0.2718
               52      Vir  Beta       52 (A)      0.3570


Running a double precision version
      EOM-CCSD/MP2 left amplitudes will be solved using Davidson.
        Amplitudes will be solved using MOM  algorithm.
     Hard-coded thresholds: 
     LinDepThresh=1.00e-15  NormThresh=1.00e-06  ReorthogonThresh=1.00e-02

      Roots     MaxVec    MaxIter   Precond   Conv      Shift    
      5         120       60        1         1.00e-05  0.00e+00  
 ------------------------------------------------------------------------------
      Iter ConvRoots NVecs ResNorm^2 Current eigenvalues (eV)
 ------------------------------------------------------------------------------
      0    0      5     1.69e-03   1.4298   3.5261   4.1951   4.5085   5.7562   
      1    0      10    1.52e-04   1.4298   3.5260   4.1952   4.5083   5.7559   
      2    0      15    2.39e-05   1.4298   3.5260   4.1952   4.5083   5.7558   
      3    5      20    4.46e-06   1.4297*  3.5260*  4.1952*  4.5083*  5.7559*  

     Davidson procedure converged

 EOMSF-CCSD transition 1/A
S^2 calculation will be performed in  double precision
 EOMSF-CCSD transition 2/A
S^2 calculation will be performed in  double precision
 EOMSF-CCSD transition 3/A
S^2 calculation will be performed in  double precision
 EOMSF-CCSD transition 4/A
S^2 calculation will be performed in  double precision
 EOMSF-CCSD transition 5/A
S^2 calculation will be performed in  double precision
 Excited state properties for  EOMSF-CCSD transition 1/A
 Dipole moment (a.u.): 0.000097 (X 0.000000, Y 0.000000, Z -0.000097)
 R-squared (a.u.): 2859.628632 (XX 2262.911520, YY 538.661594, ZZ 58.055518)
 Gauge origin (a.u.): (0.000000, 0.000000, 0.000000)
 Angular momentum (a.u.) against gauge origin: 
 (X 0.000000i, Y 0.000000i, Z 0.000000i)
 Traces of the OPDMs: Tr(AA) 46.000000, Tr(BB) 48.000000
 <S^2> = 2.000000
 Density matrix was written to a file for further analysis.

 Excited state properties for  EOMSF-CCSD transition 2/A
 Dipole moment (a.u.): 0.000088 (X 0.000000, Y 0.000000, Z -0.000088)
 R-squared (a.u.): 2859.342356 (XX 2262.647968, YY 538.711133, ZZ 57.983254)
 Gauge origin (a.u.): (0.000000, 0.000000, 0.000000)
 Angular momentum (a.u.) against gauge origin: 
 (X 0.000000i, Y 0.000000i, Z 0.000000i)
 Traces of the OPDMs: Tr(AA) 46.000000, Tr(BB) 48.000000
 <S^2> = 2.000000

 Excited state properties for  EOMSF-CCSD transition 3/A
 Dipole moment (a.u.): 0.000093 (X 0.000000, Y 0.000000, Z -0.000093)
 R-squared (a.u.): 2859.140181 (XX 2261.998927, YY 539.165333, ZZ 57.975920)
 Gauge origin (a.u.): (0.000000, 0.000000, 0.000000)
 Angular momentum (a.u.) against gauge origin: 
 (X 0.000000i, Y 0.000000i, Z 0.000000i)
 Traces of the OPDMs: Tr(AA) 46.000000, Tr(BB) 48.000000
 <S^2> = 2.000000

 Excited state properties for  EOMSF-CCSD transition 4/A
 Dipole moment (a.u.): 0.000092 (X 0.000000, Y 0.000000, Z -0.000092)
 R-squared (a.u.): 2860.098156 (XX 2263.412615, YY 538.741980, ZZ 57.943560)
 Gauge origin (a.u.): (0.000000, 0.000000, 0.000000)
 Angular momentum (a.u.) against gauge origin: 
 (X 0.000000i, Y 0.000000i, Z 0.000000i)
 Traces of the OPDMs: Tr(AA) 46.000000, Tr(BB) 48.000000
 <S^2> = 2.000000

 Excited state properties for  EOMSF-CCSD transition 5/A
 Dipole moment (a.u.): 0.000116 (X 0.000000, Y 0.000000, Z -0.000116)
 R-squared (a.u.): 2860.051722 (XX 2263.336364, YY 538.703061, ZZ 58.012297)
 Gauge origin (a.u.): (0.000000, 0.000000, 0.000000)
 Angular momentum (a.u.) against gauge origin: 
 (X 0.000000i, Y 0.000000i, Z 0.000000i)
 Traces of the OPDMs: Tr(AA) 46.000000, Tr(BB) 48.000000
 <S^2> = 2.000000

 EOMSF-MP2 calculation:   CPU 157.53 s  wall 158.35 s


 Start computing the transition properties

 ------------------------------------------------------------------------------
 The new SOC module will be executed 
 Authors: Pavel Pokhilko and Evgeny Epifanovsky 
 SOC 1e and mf integrals are evaluating by libqints...
 ------------------------------------------------------------------------------
 State A: eomsf_mp2: 1/A
 State B: eomsf_mp2: 2/A
 Energy GAP = 0.077038 a.u. = 2.096317 eV
 Transition dipole moment (a.u.):
   A->B: 0.112216 (X -0.112216, Y 0.000000, Z 0.000000)
   B->A: 0.110804 (X -0.110804, Y 0.000000, Z 0.000000)
 Oscillator strength (a.u.): 0.000639
 Transition angular momentum against gauge origin (a.u.):
   A->B:  (X -0.000030i, Y -0.000006i, Z 0.000000i)
   B->A:  (X 0.000026i, Y 0.000005i, Z 0.000000i)
 Norm of one-particle transition density matrix:
   A->B: 0.839486;   B->A: 0.836688
   ||gamma^AB||*||gamma^BA||: 0.702388

 ______________________________________________________________
 A(Ket)->B(Bra) transition SO matrices
Full 2e SOC is not implemented withing libqints. 
I will do mean-field SOC with libqints, which is usually as good as full 2e SOC
 Analysing Sz ans S^2 of the pair of states...
 Ket state:  Computed S^2 = 2.000000 will be treated as 2.000000 Sz = -1.000000
 Bra state:  Computed S^2 = 2.000000 will be treated as 2.000000 Sz = -1.000000
 Clebsh-Gordan coefficient: <1.000,-1.000;1.000,0.000|1.000,-1.000> = -0.707
 _________________________________________________
 One-electron SO (cm-1)
 Reduced matrix elements:
 <S|| Hso(L-) ||S'> = (-0.000018,-0.000284)
 <S|| Hso(L0) ||S'> = (0.000000,-0.000000)
 <S|| Hso(L+) ||S'> = (-0.000018,0.000284)
 SOCC = 0.000403
 Actual matrix elements:
       |Sz=-1.00>           |Sz=0.00>           |Sz=1.00>
 <Sz=-1.00|(0.000000,0.000000)(-0.000013,0.000201)(-0.000000,0.000000)
 <Sz=0.00|(0.000013,0.000201)(0.000000,-0.000000)(-0.000013,0.000201)
 <Sz=1.00|(-0.000000,-0.000000)(0.000013,0.000201)(0.000000,-0.000000)
 _________________________________________________
 Mean-field SO (cm-1)
 Reduced matrix elements:
 <S|| Hso(L-) ||S'> = (0.000006,-0.000106)
 <S|| Hso(L0) ||S'> = (0.000000,-0.000000)
 <S|| Hso(L+) ||S'> = (0.000006,0.000106)
 SOCC = 0.000151
 Actual matrix elements:
       |Sz=-1.00>           |Sz=0.00>           |Sz=1.00>
 <Sz=-1.00|(-0.000000,0.000000)(0.000004,0.000075)(0.000000,0.000000)
 <Sz=0.00|(-0.000004,0.000075)(-0.000000,-0.000000)(0.000004,0.000075)
 <Sz=1.00|(0.000000,-0.000000)(-0.000004,0.000075)(-0.000000,-0.000000)
 Singlet part of <S|| Hso(L0) ||S'> = (-0.000000,-0.000000) (excluded from all matrix elements)
 L-/L+ Averaged reduced matrix elements:
 <S|| Hso(L-) ||S'> = (0.000006,-0.000106)
 <S|| Hso(L+) ||S'> = (0.000006,0.000106)
 ______________________________________________________________
 B(Ket)->A(Bra) transition SO matrices
Full 2e SOC is not implemented withing libqints. 
I will do mean-field SOC with libqints, which is usually as good as full 2e SOC
 Analysing Sz ans S^2 of the pair of states...
 Ket state:  Computed S^2 = 2.000000 will be treated as 2.000000 Sz = -1.000000
 Bra state:  Computed S^2 = 2.000000 will be treated as 2.000000 Sz = -1.000000
 Clebsh-Gordan coefficient: <1.000,-1.000;1.000,0.000|1.000,-1.000> = -0.707
 _________________________________________________
 One-electron SO (cm-1)
 Reduced matrix elements:
 <S|| Hso(L-) ||S'> = (0.000020,0.000206)
 <S|| Hso(L0) ||S'> = (0.000000,0.000000)
 <S|| Hso(L+) ||S'> = (0.000020,-0.000206)
 SOCC = 0.000293
 Actual matrix elements:
       |Sz=-1.00>           |Sz=0.00>           |Sz=1.00>
 <Sz=-1.00|(-0.000000,-0.000000)(0.000014,-0.000146)(0.000000,-0.000000)
 <Sz=0.00|(-0.000014,-0.000146)(-0.000000,0.000000)(0.000014,-0.000146)
 <Sz=1.00|(0.000000,0.000000)(-0.000014,-0.000146)(-0.000000,0.000000)
 _________________________________________________
 Mean-field SO (cm-1)
 Reduced matrix elements:
 <S|| Hso(L-) ||S'> = (-0.000004,0.000069)
 <S|| Hso(L0) ||S'> = (0.000000,0.000000)
 <S|| Hso(L+) ||S'> = (-0.000004,-0.000069)
 SOCC = 0.000098
 Actual matrix elements:
       |Sz=-1.00>           |Sz=0.00>           |Sz=1.00>
 <Sz=-1.00|(0.000000,-0.000000)(-0.000003,-0.000049)(-0.000000,-0.000000)
 <Sz=0.00|(0.000003,-0.000049)(0.000000,0.000000)(-0.000003,-0.000049)
 <Sz=1.00|(-0.000000,0.000000)(0.000003,-0.000049)(0.000000,0.000000)
 Singlet part of <S|| Hso(L0) ||S'> = (-0.000000,-0.000000) (excluded from all matrix elements)
 L-/L+ Averaged reduced matrix elements:
 <S|| Hso(L-) ||S'> = (-0.000004,0.000069)
 <S|| Hso(L+) ||S'> = (-0.000004,-0.000069)
 ______________________________________________________________
   Arithmetically averaged transition SO matrices
   (The phases shown, Ket and Bra assingment are from A(Ket)->B(Bra))
 _________________________________________________
 One-electron SO (cm-1)
 SOCC = 0.000348
 Actual matrix elements:
       |Sz=-1.00>           |Sz=0.00>           |Sz=1.00>
 <Sz=-1.00|(-0.000000,0.000000)(-0.000014,0.000173)(-0.000000,0.000000)
 <Sz=0.00|(0.000014,0.000173)(-0.000000,-0.000000)(-0.000014,0.000173)
 <Sz=1.00|(0.000000,0.000000)(0.000014,0.000173)(-0.000000,-0.000000)
 _________________________________________________
 Mean-field SO (cm-1)
 SOCC = 0.000124
 Actual matrix elements:
       |Sz=-1.00>           |Sz=0.00>           |Sz=1.00>
 <Sz=-1.00|(-0.000000,0.000000)(0.000003,0.000062)(0.000000,0.000000)
 <Sz=0.00|(-0.000003,0.000062)(-0.000000,-0.000000)(0.000003,0.000062)
 <Sz=1.00|(-0.000000,0.000000)(-0.000003,0.000062)(-0.000000,-0.000000)
 ______________________________________________________________

 ------------------------------------------------------------------------------
 State A: eomsf_mp2: 1/A
 State B: eomsf_mp2: 3/A
 Energy GAP = 0.101625 a.u. = 2.765372 eV
 Transition dipole moment (a.u.):
   A->B: 0.000001 (X 0.000000, Y 0.000000, Z 0.000001)
   B->A: 0.000001 (X 0.000000, Y 0.000000, Z 0.000001)
 Oscillator strength (a.u.): 0.000000
 Transition angular momentum against gauge origin (a.u.):
   A->B:  (X 0.000000i, Y 0.000000i, Z -0.009490i)
   B->A:  (X 0.000000i, Y 0.000000i, Z -0.002562i)
 Norm of one-particle transition density matrix:
   A->B: 0.868519;   B->A: 0.874606
   ||gamma^AB||*||gamma^BA||: 0.759612

 ______________________________________________________________
 A(Ket)->B(Bra) transition SO matrices
Full 2e SOC is not implemented withing libqints. 
I will do mean-field SOC with libqints, which is usually as good as full 2e SOC
 Analysing Sz ans S^2 of the pair of states...
 Ket state:  Computed S^2 = 2.000000 will be treated as 2.000000 Sz = -1.000000
 Bra state:  Computed S^2 = 2.000000 will be treated as 2.000000 Sz = -1.000000
 Clebsh-Gordan coefficient: <1.000,-1.000;1.000,0.000|1.000,-1.000> = -0.707
 _________________________________________________
 One-electron SO (cm-1)
 Reduced matrix elements:
 <S|| Hso(L-) ||S'> = (-0.000003,-0.000004)
 <S|| Hso(L0) ||S'> = (0.000000,1.816578)
 <S|| Hso(L+) ||S'> = (-0.000003,0.000004)
 SOCC = 1.816578
 Actual matrix elements:
       |Sz=-1.00>           |Sz=0.00>           |Sz=1.00>
 <Sz=-1.00|(0.000000,-1.284515)(-0.000002,0.000003)(-0.000000,0.000000)
 <Sz=0.00|(0.000002,0.000003)(0.000000,0.000000)(-0.000002,0.000003)
 <Sz=1.00|(-0.000000,0.000000)(0.000002,0.000003)(0.000000,1.284515)
 _________________________________________________
 Mean-field SO (cm-1)
 Reduced matrix elements:
 <S|| Hso(L-) ||S'> = (-0.000002,-0.000002)
 <S|| Hso(L0) ||S'> = (0.000000,-0.025437)
 <S|| Hso(L+) ||S'> = (-0.000002,0.000002)
 SOCC = 0.025437
 Actual matrix elements:
       |Sz=-1.00>           |Sz=0.00>           |Sz=1.00>
 <Sz=-1.00|(0.000000,0.017986)(-0.000001,0.000001)(-0.000000,-0.000000)
 <Sz=0.00|(0.000001,0.000001)(0.000000,-0.000000)(-0.000001,0.000001)
 <Sz=1.00|(-0.000000,-0.000000)(0.000001,0.000001)(0.000000,-0.017986)
 Singlet part of <S|| Hso(L0) ||S'> = (-0.000000,-0.000000) (excluded from all matrix elements)
 L-/L+ Averaged reduced matrix elements:
 <S|| Hso(L-) ||S'> = (-0.000002,-0.000002)
 <S|| Hso(L+) ||S'> = (-0.000002,0.000002)
 ______________________________________________________________
 B(Ket)->A(Bra) transition SO matrices
Full 2e SOC is not implemented withing libqints. 
I will do mean-field SOC with libqints, which is usually as good as full 2e SOC
 Analysing Sz ans S^2 of the pair of states...
 Ket state:  Computed S^2 = 2.000000 will be treated as 2.000000 Sz = -1.000000
 Bra state:  Computed S^2 = 2.000000 will be treated as 2.000000 Sz = -1.000000
 Clebsh-Gordan coefficient: <1.000,-1.000;1.000,0.000|1.000,-1.000> = -0.707
 _________________________________________________
 One-electron SO (cm-1)
 Reduced matrix elements:
 <S|| Hso(L-) ||S'> = (0.000003,0.000003)
 <S|| Hso(L0) ||S'> = (0.000000,-1.891922)
 <S|| Hso(L+) ||S'> = (0.000003,-0.000003)
 SOCC = 1.891922
 Actual matrix elements:
       |Sz=-1.00>           |Sz=0.00>           |Sz=1.00>
 <Sz=-1.00|(-0.000000,1.337791)(0.000002,-0.000002)(0.000000,-0.000000)
 <Sz=0.00|(-0.000002,-0.000002)(-0.000000,-0.000000)(0.000002,-0.000002)
 <Sz=1.00|(0.000000,-0.000000)(-0.000002,-0.000002)(-0.000000,-1.337791)
 _________________________________________________
 Mean-field SO (cm-1)
 Reduced matrix elements:
 <S|| Hso(L-) ||S'> = (0.000002,0.000002)
 <S|| Hso(L0) ||S'> = (0.000000,0.025651)
 <S|| Hso(L+) ||S'> = (0.000002,-0.000002)
 SOCC = 0.025651
 Actual matrix elements:
       |Sz=-1.00>           |Sz=0.00>           |Sz=1.00>
 <Sz=-1.00|(-0.000000,-0.018138)(0.000001,-0.000001)(0.000000,0.000000)
 <Sz=0.00|(-0.000001,-0.000001)(-0.000000,0.000000)(0.000001,-0.000001)
 <Sz=1.00|(0.000000,0.000000)(-0.000001,-0.000001)(-0.000000,0.018138)
 Singlet part of <S|| Hso(L0) ||S'> = (-0.000000,-0.000000) (excluded from all matrix elements)
 L-/L+ Averaged reduced matrix elements:
 <S|| Hso(L-) ||S'> = (0.000002,0.000002)
 <S|| Hso(L+) ||S'> = (0.000002,-0.000002)
 ______________________________________________________________
   Arithmetically averaged transition SO matrices
   (The phases shown, Ket and Bra assingment are from A(Ket)->B(Bra))
 _________________________________________________
 One-electron SO (cm-1)
 SOCC = 1.854250
 Actual matrix elements:
       |Sz=-1.00>           |Sz=0.00>           |Sz=1.00>
 <Sz=-1.00|(-0.000000,-1.311153)(-0.000002,0.000002)(-0.000000,0.000000)
 <Sz=0.00|(0.000002,0.000002)(-0.000000,0.000000)(-0.000002,0.000002)
 <Sz=1.00|(0.000000,0.000000)(0.000002,0.000002)(-0.000000,1.311153)
 _________________________________________________
 Mean-field SO (cm-1)
 SOCC = 0.025544
 Actual matrix elements:
       |Sz=-1.00>           |Sz=0.00>           |Sz=1.00>
 <Sz=-1.00|(-0.000000,0.018062)(-0.000001,0.000001)(-0.000000,-0.000000)
 <Sz=0.00|(0.000001,0.000001)(-0.000000,-0.000000)(-0.000001,0.000001)
 <Sz=1.00|(0.000000,-0.000000)(0.000001,0.000001)(-0.000000,-0.018062)
 ______________________________________________________________

 ------------------------------------------------------------------------------
 State A: eomsf_mp2: 1/A
 State B: eomsf_mp2: 4/A
 Energy GAP = 0.113140 a.u. = 3.078694 eV
 Transition dipole moment (a.u.):
   A->B: 0.000011 (X 0.000000, Y 0.000000, Z -0.000011)
   B->A: 0.000011 (X 0.000000, Y 0.000000, Z -0.000011)
 Oscillator strength (a.u.): 0.000000
 Transition angular momentum against gauge origin (a.u.):
   A->B:  (X 0.000000i, Y 0.000000i, Z 0.000000i)
   B->A:  (X 0.000000i, Y 0.000000i, Z 0.000000i)
 Norm of one-particle transition density matrix:
   A->B: 0.816469;   B->A: 0.812000
   ||gamma^AB||*||gamma^BA||: 0.662973

 ______________________________________________________________
 A(Ket)->B(Bra) transition SO matrices
Full 2e SOC is not implemented withing libqints. 
I will do mean-field SOC with libqints, which is usually as good as full 2e SOC
 Analysing Sz ans S^2 of the pair of states...
 Ket state:  Computed S^2 = 2.000000 will be treated as 2.000000 Sz = -1.000000
 Bra state:  Computed S^2 = 2.000000 will be treated as 2.000000 Sz = -1.000000
 Clebsh-Gordan coefficient: <1.000,-1.000;1.000,0.000|1.000,-1.000> = -0.707
 _________________________________________________
 One-electron SO (cm-1)
 Reduced matrix elements:
 <S|| Hso(L-) ||S'> = (-0.000008,-0.000000)
 <S|| Hso(L0) ||S'> = (0.000000,-0.000006)
 <S|| Hso(L+) ||S'> = (-0.000008,0.000000)
 SOCC = 0.000013
 Actual matrix elements:
       |Sz=-1.00>           |Sz=0.00>           |Sz=1.00>
 <Sz=-1.00|(0.000000,0.000004)(-0.000006,0.000000)(-0.000000,-0.000000)
 <Sz=0.00|(0.000006,0.000000)(0.000000,-0.000000)(-0.000006,0.000000)
 <Sz=1.00|(-0.000000,-0.000000)(0.000006,0.000000)(0.000000,-0.000004)
 _________________________________________________
 Mean-field SO (cm-1)
 Reduced matrix elements:
 <S|| Hso(L-) ||S'> = (-0.000004,-0.000000)
 <S|| Hso(L0) ||S'> = (0.000000,0.000000)
 <S|| Hso(L+) ||S'> = (-0.000004,0.000000)
 SOCC = 0.000006
 Actual matrix elements:
       |Sz=-1.00>           |Sz=0.00>           |Sz=1.00>
 <Sz=-1.00|(0.000000,-0.000000)(-0.000003,0.000000)(-0.000000,0.000000)
 <Sz=0.00|(0.000003,0.000000)(0.000000,-0.000000)(-0.000003,0.000000)
 <Sz=1.00|(-0.000000,0.000000)(0.000003,0.000000)(0.000000,0.000000)
 Singlet part of <S|| Hso(L0) ||S'> = (-0.000000,-0.000000) (excluded from all matrix elements)
 L-/L+ Averaged reduced matrix elements:
 <S|| Hso(L-) ||S'> = (-0.000004,-0.000000)
 <S|| Hso(L+) ||S'> = (-0.000004,0.000000)
 ______________________________________________________________
 B(Ket)->A(Bra) transition SO matrices
Full 2e SOC is not implemented withing libqints. 
I will do mean-field SOC with libqints, which is usually as good as full 2e SOC
 Analysing Sz ans S^2 of the pair of states...
 Ket state:  Computed S^2 = 2.000000 will be treated as 2.000000 Sz = -1.000000
 Bra state:  Computed S^2 = 2.000000 will be treated as 2.000000 Sz = -1.000000
 Clebsh-Gordan coefficient: <1.000,-1.000;1.000,0.000|1.000,-1.000> = -0.707
 _________________________________________________
 One-electron SO (cm-1)
 Reduced matrix elements:
 <S|| Hso(L-) ||S'> = (0.000008,0.000000)
 <S|| Hso(L0) ||S'> = (0.000000,0.000007)
 <S|| Hso(L+) ||S'> = (0.000008,-0.000000)
 SOCC = 0.000013
 Actual matrix elements:
       |Sz=-1.00>           |Sz=0.00>           |Sz=1.00>
 <Sz=-1.00|(-0.000000,-0.000005)(0.000006,-0.000000)(0.000000,0.000000)
 <Sz=0.00|(-0.000006,-0.000000)(-0.000000,0.000000)(0.000006,-0.000000)
 <Sz=1.00|(0.000000,0.000000)(-0.000006,-0.000000)(-0.000000,0.000005)
 _________________________________________________
 Mean-field SO (cm-1)
 Reduced matrix elements:
 <S|| Hso(L-) ||S'> = (0.000004,0.000000)
 <S|| Hso(L0) ||S'> = (0.000000,-0.000000)
 <S|| Hso(L+) ||S'> = (0.000004,-0.000000)
 SOCC = 0.000006
 Actual matrix elements:
       |Sz=-1.00>           |Sz=0.00>           |Sz=1.00>
 <Sz=-1.00|(-0.000000,0.000000)(0.000003,-0.000000)(0.000000,-0.000000)
 <Sz=0.00|(-0.000003,-0.000000)(-0.000000,0.000000)(0.000003,-0.000000)
 <Sz=1.00|(0.000000,-0.000000)(-0.000003,-0.000000)(-0.000000,-0.000000)
 Singlet part of <S|| Hso(L0) ||S'> = (-0.000000,-0.000000) (excluded from all matrix elements)
 L-/L+ Averaged reduced matrix elements:
 <S|| Hso(L-) ||S'> = (0.000004,0.000000)
 <S|| Hso(L+) ||S'> = (0.000004,-0.000000)
 ______________________________________________________________
   Arithmetically averaged transition SO matrices
   (The phases shown, Ket and Bra assingment are from A(Ket)->B(Bra))
 _________________________________________________
 One-electron SO (cm-1)
 SOCC = 0.000013
 Actual matrix elements:
       |Sz=-1.00>           |Sz=0.00>           |Sz=1.00>
 <Sz=-1.00|(0.000000,0.000005)(-0.000006,0.000000)(-0.000000,-0.000000)
 <Sz=0.00|(0.000006,0.000000)(0.000000,-0.000000)(-0.000006,0.000000)
 <Sz=1.00|(0.000000,-0.000000)(0.000006,0.000000)(0.000000,-0.000005)
 _________________________________________________
 Mean-field SO (cm-1)
 SOCC = 0.000006
 Actual matrix elements:
       |Sz=-1.00>           |Sz=0.00>           |Sz=1.00>
 <Sz=-1.00|(0.000000,-0.000000)(-0.000003,0.000000)(-0.000000,0.000000)
 <Sz=0.00|(0.000003,0.000000)(0.000000,-0.000000)(-0.000003,0.000000)
 <Sz=1.00|(0.000000,0.000000)(0.000003,0.000000)(0.000000,0.000000)
 ______________________________________________________________

 ------------------------------------------------------------------------------
 State A: eomsf_mp2: 1/A
 State B: eomsf_mp2: 5/A
 Energy GAP = 0.158992 a.u. = 4.326401 eV
 Transition dipole moment (a.u.):
   A->B: 0.000017 (X 0.000000, Y 0.000000, Z 0.000017)
   B->A: 0.000024 (X 0.000000, Y 0.000000, Z 0.000024)
 Oscillator strength (a.u.): 0.000000
 Transition angular momentum against gauge origin (a.u.):
   A->B:  (X 0.000000i, Y 0.000000i, Z -1.957358i)
   B->A:  (X 0.000000i, Y 0.000000i, Z 1.898167i)
 Norm of one-particle transition density matrix:
   A->B: 0.891396;   B->A: 0.897134
   ||gamma^AB||*||gamma^BA||: 0.799702

 ______________________________________________________________
 A(Ket)->B(Bra) transition SO matrices
Full 2e SOC is not implemented withing libqints. 
I will do mean-field SOC with libqints, which is usually as good as full 2e SOC
 Analysing Sz ans S^2 of the pair of states...
 Ket state:  Computed S^2 = 2.000000 will be treated as 2.000000 Sz = -1.000000
 Bra state:  Computed S^2 = 2.000000 will be treated as 2.000000 Sz = -1.000000
 Clebsh-Gordan coefficient: <1.000,-1.000;1.000,0.000|1.000,-1.000> = -0.707
 _________________________________________________
 One-electron SO (cm-1)
 Reduced matrix elements:
 <S|| Hso(L-) ||S'> = (0.000001,0.000002)
 <S|| Hso(L0) ||S'> = (0.000000,-0.338666)
 <S|| Hso(L+) ||S'> = (0.000001,-0.000002)
 SOCC = 0.338666
 Actual matrix elements:
       |Sz=-1.00>           |Sz=0.00>           |Sz=1.00>
 <Sz=-1.00|(-0.000000,0.239473)(0.000001,-0.000001)(0.000000,-0.000000)
 <Sz=0.00|(-0.000001,-0.000001)(-0.000000,-0.000000)(0.000001,-0.000001)
 <Sz=1.00|(0.000000,-0.000000)(-0.000001,-0.000001)(-0.000000,-0.239473)
 _________________________________________________
 Mean-field SO (cm-1)
 Reduced matrix elements:
 <S|| Hso(L-) ||S'> = (0.000000,0.000001)
 <S|| Hso(L0) ||S'> = (0.000000,0.277255)
 <S|| Hso(L+) ||S'> = (0.000000,-0.000001)
 SOCC = 0.277255
 Actual matrix elements:
       |Sz=-1.00>           |Sz=0.00>           |Sz=1.00>
 <Sz=-1.00|(-0.000000,-0.196049)(0.000000,-0.000001)(0.000000,0.000000)
 <Sz=0.00|(-0.000000,-0.000001)(-0.000000,0.000000)(0.000000,-0.000001)
 <Sz=1.00|(0.000000,0.000000)(-0.000000,-0.000001)(-0.000000,0.196049)
 Singlet part of <S|| Hso(L0) ||S'> = (-0.000000,-0.000000) (excluded from all matrix elements)
 L-/L+ Averaged reduced matrix elements:
 <S|| Hso(L-) ||S'> = (0.000000,0.000001)
 <S|| Hso(L+) ||S'> = (0.000000,-0.000001)
 ______________________________________________________________
 B(Ket)->A(Bra) transition SO matrices
Full 2e SOC is not implemented withing libqints. 
I will do mean-field SOC with libqints, which is usually as good as full 2e SOC
 Analysing Sz ans S^2 of the pair of states...
 Ket state:  Computed S^2 = 2.000000 will be treated as 2.000000 Sz = -1.000000
 Bra state:  Computed S^2 = 2.000000 will be treated as 2.000000 Sz = -1.000000
 Clebsh-Gordan coefficient: <1.000,-1.000;1.000,0.000|1.000,-1.000> = -0.707
 _________________________________________________
 One-electron SO (cm-1)
 Reduced matrix elements:
 <S|| Hso(L-) ||S'> = (-0.000001,-0.000002)
 <S|| Hso(L0) ||S'> = (0.000000,0.335537)
 <S|| Hso(L+) ||S'> = (-0.000001,0.000002)
 SOCC = 0.335537
 Actual matrix elements:
       |Sz=-1.00>           |Sz=0.00>           |Sz=1.00>
 <Sz=-1.00|(0.000000,-0.237261)(-0.000000,0.000001)(-0.000000,0.000000)
 <Sz=0.00|(0.000000,0.000001)(0.000000,0.000000)(-0.000000,0.000001)
 <Sz=1.00|(-0.000000,0.000000)(0.000000,0.000001)(0.000000,0.237261)
 _________________________________________________
 Mean-field SO (cm-1)
 Reduced matrix elements:
 <S|| Hso(L-) ||S'> = (-0.000000,-0.000001)
 <S|| Hso(L0) ||S'> = (0.000000,-0.273614)
 <S|| Hso(L+) ||S'> = (-0.000000,0.000001)
 SOCC = 0.273614
 Actual matrix elements:
       |Sz=-1.00>           |Sz=0.00>           |Sz=1.00>
 <Sz=-1.00|(0.000000,0.193475)(-0.000000,0.000001)(-0.000000,-0.000000)
 <Sz=0.00|(0.000000,0.000001)(0.000000,-0.000000)(-0.000000,0.000001)
 <Sz=1.00|(-0.000000,-0.000000)(0.000000,0.000001)(0.000000,-0.193475)
 Singlet part of <S|| Hso(L0) ||S'> = (-0.000000,-0.000000) (excluded from all matrix elements)
 L-/L+ Averaged reduced matrix elements:
 <S|| Hso(L-) ||S'> = (-0.000000,-0.000001)
 <S|| Hso(L+) ||S'> = (-0.000000,0.000001)
 ______________________________________________________________
   Arithmetically averaged transition SO matrices
   (The phases shown, Ket and Bra assingment are from A(Ket)->B(Bra))
 _________________________________________________
 One-electron SO (cm-1)
 SOCC = 0.337101
 Actual matrix elements:
       |Sz=-1.00>           |Sz=0.00>           |Sz=1.00>
 <Sz=-1.00|(-0.000000,0.238367)(0.000001,-0.000001)(0.000000,-0.000000)
 <Sz=0.00|(-0.000001,-0.000001)(-0.000000,-0.000000)(0.000001,-0.000001)
 <Sz=1.00|(-0.000000,-0.000000)(-0.000001,-0.000001)(-0.000000,-0.238367)
 _________________________________________________
 Mean-field SO (cm-1)
 SOCC = 0.275435
 Actual matrix elements:
       |Sz=-1.00>           |Sz=0.00>           |Sz=1.00>
 <Sz=-1.00|(-0.000000,-0.194762)(0.000000,-0.000001)(0.000000,0.000000)
 <Sz=0.00|(-0.000000,-0.000001)(-0.000000,0.000000)(0.000000,-0.000001)
 <Sz=1.00|(-0.000000,0.000000)(-0.000000,-0.000001)(-0.000000,0.194762)
 ______________________________________________________________


 All requested transition properties have been computed

 Transition Properties:   CPU 174.06 s  wall 178.58 s

 Total ccman2 time:   CPU 339.12 s  wall 344.79 s

 
 --------------------------------------------------------------
 
                    Orbital Energies (a.u.)
 --------------------------------------------------------------
 
 Alpha MOs
 -- Occupied --
-11.0400 -11.0399 -11.0399 -11.0399 -11.0306 -11.0306 -11.0303 -11.0302
-11.0287 -11.0287 -11.0286 -11.0286 -11.0259 -11.0258  -1.1238  -1.0917
 -1.0198  -0.9980  -0.9602  -0.9525  -0.8841  -0.8293  -0.7755  -0.7609
 -0.7544  -0.6907  -0.6566  -0.6336  -0.5879  -0.5820  -0.5719  -0.5586
 -0.5302  -0.5188  -0.5056  -0.4993  -0.4972  -0.4692  -0.4503  -0.4382
 -0.4094  -0.4072  -0.3534  -0.3477  -0.2841  -0.2614  -0.1669
 -- Virtual --
  0.1408   0.2446   0.2718   0.3516   0.3570   0.4924   0.5732   0.5878
  0.5890   0.5997   0.6516   0.6587   0.6805   0.6834   0.7056   0.7274
  0.7295   0.7469   0.7705   0.7760   0.7767   0.8586   0.8822   0.8824
  0.8935   0.9590   0.9755   0.9770   0.9824   1.1009   1.1031   1.1672
  1.1928
 --------------------------------------------------------------
 
          Ground-State Mulliken Net Atomic Charges

     Atom                 Charge (a.u.)
  ----------------------------------------
      1 C                    -0.004969
      2 C                    -0.059880
      3 H                     0.060543
      4 C                    -0.063819
      5 H                     0.063445
      6 C                    -0.063819
      7 H                     0.063445
      8 C                    -0.059880
      9 H                     0.060543
     10 C                    -0.004969
     11 C                    -0.048083
     12 H                     0.057443
     13 C                    -0.048083
     14 H                     0.057443
     15 C                    -0.004969
     16 C                    -0.059880
     17 H                     0.060543
     18 C                    -0.063819
     19 H                     0.063445
     20 C                    -0.063819
     21 H                     0.063445
     22 C                    -0.059880
     23 H                     0.060543
     24 C                    -0.004969
  ----------------------------------------
  Sum of atomic charges =     0.000000

 -----------------------------------------------------------------
                    Cartesian Multipole Moments
 -----------------------------------------------------------------
    Charge (ESU x 10^10)
                -0.0000
    Dipole Moment (Debye)
         X       0.0000      Y       0.0000      Z      -0.0002
       Tot       0.0002
    Quadrupole Moments (Debye-Ang)
        XX     -70.5212     XY      -0.0000     YY     -69.9250
        XZ      -0.0000     YZ      -0.0000     ZZ     -78.0867
    Octopole Moments (Debye-Ang^2)
       XXX       0.0000    XXY      -0.0000    XYY      -0.0000
       YYY       0.0000    XXZ      -0.0009    XYZ       0.0042
       YYZ      -0.0021    XZZ      -0.0000    YZZ       0.0000
       ZZZ      -0.0001
    Hexadecapole Moments (Debye-Ang^3)
      XXXX   -2814.8887   XXXY       0.0000   XXYY    -581.7507
      XYYY      -0.0000   YYYY    -652.4549   XXXZ      -0.0003
      XXYZ      -0.0000   XYYZ      -0.0000   YYYZ      -0.0000
      XXZZ    -536.4883   XYZZ      -0.0000   YYZZ    -133.8674
      XZZZ      -0.0000   YZZZ      -0.0000   ZZZZ     -63.2825
 -----------------------------------------------------------------
 Mayer SCF Bond Order, atomic valence on the diagonal:

            1           2           3           4           5           6
    1   3.9826072   1.3578591   0.0031793   0.0040189   0.0052536   0.0716063
    2   1.3578591   3.9450542   0.9694396   1.3460827   0.0031539   0.0120410
    3   0.0031793   0.9694396   0.9962358   0.0031909   0.0023726   0.0051496
    4   0.0040189   1.3460827   0.0031909   3.9732294   0.9708280   1.4468082
    5   0.0052536   0.0031539   0.0023726   0.9708280   0.9959547   0.0028194
    6   0.0716063   0.0120410   0.0051496   1.4468082   0.0028194   3.9732293
    7   0.0001324   0.0061242   0.0008129   0.0028194   0.0027377   0.9708280
    8   0.0059829   0.0524547   0.0001385   0.0120409   0.0061242   1.3460823
    9   0.0063289   0.0001385   0.0000465   0.0051496   0.0008129   0.0031909
   10   1.2140747   0.0059830   0.0063289   0.0716065   0.0001324   0.0040189
   11   1.1910513   0.0490313   0.0024447   0.0056018   0.0006208   0.0208533
   12   0.0040529   0.0017808   0.0008069   0.0000346   0.0000197   0.0000327
   13   0.0096589   0.0151905   0.0006596   0.0208532   0.0000372   0.0056018
   14   0.0055353   0.0005769   0.0002297   0.0000327   0.0000001   0.0000346
   15   0.0210111   0.0022889   0.0000279   0.0035001   0.0000068   0.0013708
   16   0.0022889   0.0054127   0.0000008   0.0060827   0.0000004   0.0006177
   17   0.0000279   0.0000008   0.0000003   0.0000001   0.0000001   0.0000044
   18   0.0035001   0.0060827   0.0000001   0.0000096   0.0000002   0.0028667
   19   0.0000068   0.0000004   0.0000001   0.0000002   0.0000001   0.0000058
   20   0.0013708   0.0006177   0.0000044   0.0028667   0.0000058   0.0000096
   21   0.0001323   0.0000265   0.0000007   0.0000058   0.0000016   0.0000002
   22   0.0077511   0.0121968   0.0000236   0.0006177   0.0000265   0.0060827
   23   0.0000574   0.0000236   0.0000002   0.0000044   0.0000007   0.0000001
   24   0.0033589   0.0077511   0.0000574   0.0013709   0.0001323   0.0035001
            7           8           9          10          11          12
    1   0.0001324   0.0059829   0.0063289   1.2140747   1.1910513   0.0040529
    2   0.0061242   0.0524547   0.0001385   0.0059830   0.0490313   0.0017808
    3   0.0008129   0.0001385   0.0000465   0.0063289   0.0024447   0.0008069
    4   0.0028194   0.0120409   0.0051496   0.0716065   0.0056018   0.0000346
    5   0.0027377   0.0061242   0.0008129   0.0001324   0.0006208   0.0000197
    6   0.9708280   1.3460823   0.0031909   0.0040189   0.0208533   0.0000327
    7   0.9959547   0.0031539   0.0023726   0.0052536   0.0000372   0.0000001
    8   0.0031539   3.9450545   0.9694396   1.3578600   0.0151906   0.0005769
    9   0.0023726   0.9694396   0.9962358   0.0031793   0.0006596   0.0002297
   10   0.0052536   1.3578600   0.0031793   3.9826071   0.0096589   0.0055353
   11   0.0000372   0.0151906   0.0006596   0.0096589   3.6921028   0.9667452
   12   0.0000001   0.0005769   0.0002297   0.0055353   0.9667452   0.9958861
   13   0.0006208   0.0490312   0.0024447   1.1910499   0.0042076   0.0001295
   14   0.0000197   0.0017808   0.0008069   0.0040529   0.0001295   0.0000336
   15   0.0001323   0.0077511   0.0000574   0.0033589   0.0096589   0.0055353
   16   0.0000265   0.0121968   0.0000236   0.0077511   0.0151905   0.0005769
   17   0.0000007   0.0000236   0.0000002   0.0000574   0.0006596   0.0002297
   18   0.0000058   0.0006177   0.0000044   0.0013709   0.0208532   0.0000327
   19   0.0000016   0.0000265   0.0000007   0.0001323   0.0000372   0.0000001
   20   0.0000002   0.0060827   0.0000001   0.0035001   0.0056018   0.0000346
   21   0.0000001   0.0000004   0.0000001   0.0000068   0.0006208   0.0000197
   22   0.0000004   0.0054127   0.0000008   0.0022889   0.0490312   0.0017808
   23   0.0000001   0.0000008   0.0000003   0.0000279   0.0024447   0.0008069
   24   0.0000068   0.0022889   0.0000279   0.0210111   1.1910500   0.0040529
           13          14          15          16          17          18
    1   0.0096589   0.0055353   0.0210111   0.0022889   0.0000279   0.0035001
    2   0.0151905   0.0005769   0.0022889   0.0054127   0.0000008   0.0060827
    3   0.0006596   0.0002297   0.0000279   0.0000008   0.0000003   0.0000001
    4   0.0208532   0.0000327   0.0035001   0.0060827   0.0000001   0.0000096
    5   0.0000372   0.0000001   0.0000068   0.0000004   0.0000001   0.0000002
    6   0.0056018   0.0000346   0.0013708   0.0006177   0.0000044   0.0028667
    7   0.0006208   0.0000197   0.0001323   0.0000265   0.0000007   0.0000058
    8   0.0490312   0.0017808   0.0077511   0.0121968   0.0000236   0.0006177
    9   0.0024447   0.0008069   0.0000574   0.0000236   0.0000002   0.0000044
   10   1.1910499   0.0040529   0.0033589   0.0077511   0.0000574   0.0013709
   11   0.0042076   0.0001295   0.0096589   0.0151905   0.0006596   0.0208532
   12   0.0001295   0.0000336   0.0055353   0.0005769   0.0002297   0.0000327
   13   3.6921027   0.9667452   1.1910513   0.0490313   0.0024447   0.0056018
   14   0.9667452   0.9958861   0.0040529   0.0017808   0.0008069   0.0000346
   15   1.1910513   0.0040529   3.9826072   1.3578591   0.0031793   0.0040189
   16   0.0490313   0.0017808   1.3578591   3.9450542   0.9694396   1.3460826
   17   0.0024447   0.0008069   0.0031793   0.9694396   0.9962358   0.0031909
   18   0.0056018   0.0000346   0.0040189   1.3460826   0.0031909   3.9732294
   19   0.0006208   0.0000197   0.0052536   0.0031539   0.0023726   0.9708280
   20   0.0208533   0.0000327   0.0716063   0.0120410   0.0051496   1.4468082
   21   0.0000372   0.0000001   0.0001324   0.0061242   0.0008129   0.0028194
   22   0.0151906   0.0005769   0.0059829   0.0524546   0.0001385   0.0120409
   23   0.0006596   0.0002297   0.0063289   0.0001385   0.0000465   0.0051496
   24   0.0096589   0.0055353   1.2140746   0.0059830   0.0063289   0.0716064
           19          20          21          22          23          24
    1   0.0000068   0.0013708   0.0001323   0.0077511   0.0000574   0.0033589
    2   0.0000004   0.0006177   0.0000265   0.0121968   0.0000236   0.0077511
    3   0.0000001   0.0000044   0.0000007   0.0000236   0.0000002   0.0000574
    4   0.0000002   0.0028667   0.0000058   0.0006177   0.0000044   0.0013709
    5   0.0000001   0.0000058   0.0000016   0.0000265   0.0000007   0.0001323
    6   0.0000058   0.0000096   0.0000002   0.0060827   0.0000001   0.0035001
    7   0.0000016   0.0000002   0.0000001   0.0000004   0.0000001   0.0000068
    8   0.0000265   0.0060827   0.0000004   0.0054127   0.0000008   0.0022889
    9   0.0000007   0.0000001   0.0000001   0.0000008   0.0000003   0.0000279
   10   0.0001323   0.0035001   0.0000068   0.0022889   0.0000279   0.0210111
   11   0.0000372   0.0056018   0.0006208   0.0490312   0.0024447   1.1910500
   12   0.0000001   0.0000346   0.0000197   0.0017808   0.0008069   0.0040529
   13   0.0006208   0.0208533   0.0000372   0.0151906   0.0006596   0.0096589
   14   0.0000197   0.0000327   0.0000001   0.0005769   0.0002297   0.0055353
   15   0.0052536   0.0716063   0.0001324   0.0059829   0.0063289   1.2140746
   16   0.0031539   0.0120410   0.0061242   0.0524546   0.0001385   0.0059830
   17   0.0023726   0.0051496   0.0008129   0.0001385   0.0000465   0.0063289
   18   0.9708280   1.4468082   0.0028194   0.0120409   0.0051496   0.0716064
   19   0.9959547   0.0028194   0.0027377   0.0061242   0.0008129   0.0001324
   20   0.0028194   3.9732293   0.9708280   1.3460823   0.0031909   0.0040189
   21   0.0027377   0.9708280   0.9959547   0.0031539   0.0023726   0.0052536
   22   0.0061242   1.3460823   0.0031539   3.9450545   0.9694396   1.3578599
   23   0.0008129   0.0031909   0.0023726   0.9694396   0.9962358   0.0031793
   24   0.0001324   0.0040189   0.0052536   1.3578599   0.0031793   3.9826071


 Total job time:  352.36s(wall), 345.63s(cpu) 
 Mon Jan 22 18:24:48 2024

        *************************************************************
        *                                                           *
        *  Thank you very much for using Q-Chem.  Have a nice day.  *
        *                                                           *
        *************************************************************


