                  Welcome to Q-Chem
     A Quantum Leap Into The Future Of Chemistry


 Q-Chem 6.0 (devel), Q-Chem, Inc., Pleasanton, CA (2022)

 E. Epifanovsky,  A. T. B. Gilbert,  Xintian Feng,  Joonho Lee,  Yuezhi Mao,  
 N. Mardirossian,  P. Pokhilko,  A. White,  M. Wormit,  M. P. Coons,  
 A. L. Dempwolff,  Zhengting Gan,  D. Hait,  P. R. Horn,  L. D. Jacobson,  
 I. Kaliman,  J. Kussmann,  A. W. Lange,  Ka Un Lao,  D. S. Levine,  Jie Liu,  
 S. C. McKenzie,  A. F. Morrison,  K. Nanda,  F. Plasser,  D. R. Rehn,  
 M. L. Vidal,  Zhi-Qiang You,  Ying Zhu,  B. Alam,  B. Albrecht,  
 A. Aldossary,  E. Alguire,  J. H. Andersen,  V. Athavale,  D. Barton,  
 K. Begam,  A. Behn,  N. Bellonzi,  Y. A. Bernard,  E. J. Berquist,  
 H. Burton,  A. Carreras,  K. Carter-Fenk,  Romit Chakraborty,  
 Chandrima Chakravarty,  Junhan Chen,  A. D. Chien,  K. D. Closser,  
 V. Cofer-Shabica,  L. Cunha,  S. Dasgupta,  Jia Deng,  M. de Wergifosse,  
 M. Diedenhofen,  Hainam Do,  S. Ehlert,  Po-Tung Fang,  S. Fatehi,  
 Qingguo Feng,  T. Friedhoff,  B. Ganoe,  J. Gayvert,  Qinghui Ge,  
 G. Gidofalvi,  M. Goldey,  J. Gomes,  C. Gonzalez-Espinoza,  S. Gulania,  
 A. Gunina,  J. A. Gyamfi,  M. W. D. Hanson-Heine,  P. H. P. Harbach,  
 A. W. Hauser,  M. F. Herbst,  M. Hernandez Vera,  M. Hodecker,  
 Z. C. Holden,  S. Houck,  Xunkun Huang,  Kerwin Hui,  B. C. Huynh,  
 K. Ikeda,  M. Ivanov,  Hyunjun Ji,  Zuxin Jin,  Hanjie Jiang,  B. Kaduk,  
 S. Kaehler,  R. Kang,  K. Khistyaev,  Jaehoon Kim,  Yongbin Kim,  
 P. Klunzinger,  Z. Koczor-Benda,  Joong Hoon Koh,  D. Kosenkov,  
 Saikiran Kotaru,  L. Koulias,  T. Kowalczyk,  C. M. Krauter,  K. Kue,  
 A. Kunitsa,  T. Kus,  A. Landau,  K. V. Lawler,  D. Lefrancois,  S. Lehtola,  
 Rain Li,  Shaozhi Li,  Yi-Pei Li,  Jiashu Liang,  M. Liebenthal,  
 Hung-Hsuan Lin,  You-Sheng Lin,  Fenglai Liu,  Kuan-Yu Liu,  
 M. Loipersberger,  A. Luenser,  C. Malbon,  A. Manjanath,  P. Manohar,  
 E. Mansoor,  S. F. Manzer,  Shan-Ping Mao,  A. V. Marenich,  T. Markovich,  
 S. Mason,  F. Matz,  S. A. Maurer,  P. F. McLaughlin,  M. F. S. J. Menger,  
 J.-M. Mewes,  S. A. Mewes,  P. Morgante,  Mohammad Mostafanejad,  
 J. W. Mullinax,  K. J. Oosterbaan,  G. Paran,  V. Parravicini,  
 Alexander C. Paul,  Suranjan K. Paul,  F. Pavosevic,  Zheng Pei,  S. Prager,  
 E. I. Proynov,  E. Ramos,  B. Rana,  A. E. Rask,  A. Rettig,  R. M. Richard,  
 F. Rob,  E. Rossomme,  T. Scheele,  M. Scheurer,  M. Schneider,  
 P. E. Schneider,  N. Sergueev,  S. M. Sharada,  Hengyuan Shen,  
 W. Skomorowski,  D. W. Small,  C. J. Stein,  Yingli Su,  Yu-Chuan Su,  
 E. J. Sundstrom,  Zhen Tao,  J. Thirman,  Hung-Yi Tsai,  T. Tsuchimochi,  
 N. M. Tubman,  C. Utku,  S. P. Veccham,  O. Vydrov,  J. Wenzel,  
 Jonathan Wong,  J. Witte,  A. Yamada,  Chou-Hsun Yang,  Kun Yao,  
 S. Yeganeh,  S. R. Yost,  A. Zech,  F. Zeller,  Igor Ying Zhang,  
 Xing Zhang,  Yu Zhang,  D. Zuev,  A. Aspuru-Guzik,  A. T. Bell,  
 N. A. Besley,  K. B. Bravaya,  B. R. Brooks,  D. Casanova,  Jeng-Da Chai,  
 Hsing-Ta Chen,  S. Coriani,  C. J. Cramer,  A. E. DePrince, III,  
 R. A. DiStasio Jr.,  A. Dreuw,  B. D. Dunietz,  T. R. Furlani,  
 W. A. Goddard III,  S. Grimme,  S. Hammes-Schiffer,  T. Head-Gordon,  
 W. J. Hehre,  Chao-Ping Hsu,  T.-C. Jagau,  Yousung Jung,  A. Klamt,  
 Jing Kong,  D. S. Lambrecht,  Xiangyuan Li,  WanZhen Liang,  N. J. Mayhall,  
 C. W. McCurdy,  J. B. Neaton,  T. Neudecker,  C. Ochsenfeld,  
 J. A. Parkhill,  R. Peverati,  V. A. Rassolov,  Haisheng Ren,  Yihan Shao,  
 L. V. Slipchenko,  R. P. Steele,  J. E. Subotnik,  A. J. W. Thom,  
 A. Tkatchenko,  D. G. Truhlar,  T. Van Voorhis,  Fan Wang,  
 T. A. Wesolowski,  K. B. Whaley,  H. L. Woodcock III,  P. M. Zimmerman,  
 S. Faraji,  P. M. W. Gill,  M. Head-Gordon,  J. M. Herbert,  A. I. Krylov

 Contributors to earlier versions of Q-Chem not listed above: 
 R. D. Adamson,  B. Austin,  R. Baer,  J. Baker,  G. J. O. Beran,  
 K. Brandhorst,  S. T. Brown,  E. F. C. Byrd,  Arup K. Chakraborty,  
 G. K. L. Chan,  Chun-Min Chang,  Yunqing Chen,  C.-L. Cheng,  
 Siu Hung Chien,  D. M. Chipman,  D. L. Crittenden,  H. Dachsel,  
 R. J. Doerksen,  A. D. Dutoi,  R. G. Edgar,  J. Fosso-Tande,  
 L. Fusti-Molnar,  D. Ghosh,  A. Ghysels,  A. Golubeva-Zadorozhnaya,  
 J. Gonthier,  M. S. Gordon,  S. R. Gwaltney,  G. Hawkins,  J. E. Herr,  
 A. Heyden,  S. Hirata,  E. G. Hohenstein,  G. Kedziora,  F. J. Keil,  
 C. Kelley,  Jihan Kim,  R. A. King,  R. Z. Khaliullin,  P. P. Korambath,  
 W. Kurlancheek,  A. Laurent,  A. M. Lee,  M. S. Lee,  S. V. Levchenko,  
 Ching Yeh Lin,  D. Liotard,  E. Livshits,  R. C. Lochan,  I. Lotan,  
 L. A. Martinez-Martinez,  P. E. Maslen,  N. Nair,  D. P. O'Neill,  
 D. Neuhauser,  E. Neuscamman,  C. M. Oana,  R. Olivares-Amaya,  R. Olson,  
 T. M. Perrine,  B. Peters,  P. A. Pieniazek,  A. Prociuk,  Y. M. Rhee,  
 J. Ritchie,  M. A. Rohrdanz,  E. Rosta,  N. J. Russ,  H. F. Schaefer III,  
 M. W. Schmidt,  N. E. Schultz,  S. Sharma,  N. Shenvi,  C. D. Sherrill,  
 A. C. Simmonett,  A. Sodt,  T. Stein,  D. Stuck,  K. S. Thanthiriwatte,  
 V. Vanovschi,  L. Vogt,  Tao Wang,  A. Warshel,  M. A. Watson,  
 C. F. Williams,  Q. Wu,  X. Xu,  Jun Yang,  W. Zhang,  Yan Zhao

   Please cite Q-Chem as follows:
  "Software for the frontiers of quantum chemistry:
   An overview of developments in the Q-Chem 5 package"
   J. Chem. Phys. 155, 084801 (2021)
   https://doi.org/10.1063/5.0055522 (open access)

 Q-Chem 6.0.1 for Intel X86 EM64T Linux

 Parts of Q-Chem use Armadillo 9.900.5 (Nocturnal Misbehaviour).
 http://arma.sourceforge.net/

 Q-Chem begins on Sat Jan 27 12:54:22 2024  

 Host: atlas-260
0

     Scratch files written to ./qchem289958//
 Processing $rem in /scratch/abel/SOFTWARE/qchem/config/preferences:
 Processing $rem in /dipc/acebg/.qchemrc:
 Core orbitals will be frozen

 Checking the input file for inconsistencies... 	...done.

--------------------------------------------------------------
User input:
--------------------------------------------------------------
$comment
 RAS-SF CALCULATION
$end

$molecule
 READ anthracene_opt_singlet.molecule
$end

$rem
!**CALCULATION TYPE***     
JOBTYPE            sp    
BASIS               STO-3G

!***SCF REFERENCE***
!SKIP_SCFMAN        FALSE
UNRESTRICTED       FALSE
!SCF_GUESS          core
!SCF_GUESS_MIX      FALSE
!SCF_GUESS_ALWAYS   FALSE
MAX_SCF_CYCLES     500
!SCF_CONVERGENCE    10
SCF_ALGORITHM     DIIS_GDM !DIIS,DM,DIIS_DM,GDM,DIIS_GDM,GD

!SYMMETRY           TRUE   !use of symmetry for calculating integrals
!SYM_IGNORE         FALSE  !turn off using symmetry
!SYM_TOL            5      !tolerance for determining point group
!USE_ABELIAN_SUBGROUP      !define to use abelian group

!THRESH             14
!SCF_FINAL_PRINT     1 !0,1,2,3

!****CCSD****
CORRELATION        CCSD
!CC_CONVERGENCE     6
!CC_MAX_ITER        200
CC_PRINT	   2
!CHOLESKY_TOL       3 !Toler. decomposition 2e integrals
CC_REF_PROP  	   1 !one-particle CCSD properties calculation
!CC_REF_PROP_TE	   0 !two-particle CCSD properties calculation
!CC_FNO_THRESH
!CC_BACKEND	   XM !Used to specify the computational back-end of CCMAN2.

!****EOM****
METHOD             EOM-MP2
SF_STATES	   [20]
CC_STATE_TO_OPT    [1,1]
CC_EOM_PROP        1
CC_EOM_PROP_TE	   1
CC_TRANS_PROP      1
CALC_SOC           TRUE   !calculate SOC for EOM-CC, RAS-CI, ADC, TDDFT/TDA and TDDFT

!****MEMORY****
MEM_TOTAL          90000 !Default 2000 MB
MEM_STATIC         1000  !Default 64 MB
CC_MEMORY          72000

!**Molecular Properties and Analysis **                                                                                          
!POP_MULLIKEN       TRUE   !Run Mulliken population analysis
!LOWDIN_POPULATION  TRUE   !Run Löwdin population analysis
GUI                0       !Checkpoints generation
!STATE_ANALYSIS     TRUE

!**Wave function analysis**
!PLOTS = 0     ! Note: This can be omitted, default is 0
!NTO_PAIRS = 2 ! Note: This can be omitted, default is 2
!GUI 0
!MOLDEN_FORMAT      TRUE
!PRINT_ORBITALS     15
$end

!$plots
!   grid_points 100 100 100
!   grid_range  (-10,10) (-10,10) (-10,10)
!$end

--------------------------------------------------------------
 ----------------------------------------------------------------
             Standard Nuclear Orientation (Angstroms)
    I     Atom           X                Y                Z
 ----------------------------------------------------------------
    1      C       1.2528696110    -0.7144616643     0.0000611748
    2      C       2.4661185256    -1.3873929098     0.0000888763
    3      H       2.4670317640    -2.4712684532    -0.0003057438
    4      C       3.6841006918    -0.6876643530     0.0000015246
    5      H       4.6172560521    -1.2351253405    -0.0000635121
    6      C       3.6841005673     0.6876646405     0.0001354170
    7      H       4.6172557863     1.2351258725     0.0001490616
    8      C       2.4661182998     1.3873930201     0.0000396542
    9      H       2.4670309197     2.4712685933     0.0003432278
   10      C       1.2528695387     0.7144615088    -0.0000846763
   11      C       0.0000005393    -1.4023074043    -0.0001838106
   12      H       0.0000006531    -2.4857083698    -0.0004570569
   13      C      -0.0000005712     1.4023074721    -0.0001838566
   14      H      -0.0000006933     2.4857084373    -0.0004585605
   15      C      -1.2528696259     0.7144617005     0.0000593180
   16      C      -2.4661185573     1.3873929157     0.0000876230
   17      H      -2.4670314450     2.4712684589    -0.0003085620
   18      C      -3.6841006695     0.6876642646     0.0000023815
   19      H      -4.6172559004     1.2351254729    -0.0000599772
   20      C      -3.6841005823    -0.6876647288     0.0001370081
   21      H      -4.6172558928    -1.2351258048     0.0001546533
   22      C      -2.4661182611    -1.3873930144     0.0000375438
   23      H      -2.4670312506    -2.4712685875     0.0003405012
   24      C      -1.2528695051    -0.7144614941    -0.0000871830
 ----------------------------------------------------------------
 Molecular Point Group                 C1    NOp =  1
 Largest Abelian Subgroup              C1    NOp =  1
 Nuclear Repulsion Energy =         766.54296530 hartrees
 There are       47 alpha and       47 beta electrons
 Requested basis set is STO-3G
 There are 38 shells and 80 basis functions
 Total memory of 90000 MB is distributed as follows: 
   MEM_STATIC is set to 1000 MB
   QALLOC/CCMAN JOB total memory use is  89000 MB
 Warning: actual memory use might exceed 90000 MB

 Total QAlloc Memory Limit  90000 MB
 Mega-Array Size       978 MB
 MEM_STATIC part      1000 MB

 A cutoff of  1.0D-14 yielded    636 shell pairs
 There are      3171 function pairs
 Smallest overlap matrix eigenvalue = 1.70E-01

 Scale SEOQF with 1.000000e-01/1.000000e-01/1.000000e+00

 Standard Electronic Orientation quadrupole field applied
 Nucleus-field energy     =     0.0000000318 hartrees
 Guess from superposition of atomic densities
 Warning:  Energy on first SCF cycle will be non-variational
 SAD guess density has 94.000000 electrons

 -----------------------------------------------------------------------
  General SCF calculation program by
  Eric Jon Sundstrom, Paul Horn, Yuezhi Mao, Dmitri Zuev, Alec White,
  David Stuck, Shaama M.S., Shane Yost, Joonho Lee, David Small,
  Daniel Levine, Susi Lehtola, Hugh Burton, Evgeny Epifanovsky,
  Bang C. Huynh
 -----------------------------------------------------------------------
 Hartree-Fock
 A restricted SCF calculation will be
 performed using DIIS, GDM
 SCF converges when RMS gradient is below 1.0e-08
 ---------------------------------------
  Cycle       Energy         DIIS error
 ---------------------------------------
    1    -530.4643380232      1.33e-01  
    2    -529.3527317135      7.87e-03  Done DIIS. Switching to GDM
 ---------------------------------------
  Cycle       Energy        RMS Gradient
 ---------------------------------------
    1    -529.3527317135      5.83e-02   Normal BFGS step
    2    -529.4342943937      1.59e-02   Normal BFGS step
    3    -529.4398246929      9.02e-03   Normal BFGS step
    4    -529.4400883751      3.25e-03   Normal BFGS step
    5    -529.4401178844      9.43e-04   Normal BFGS step
    6    -529.4401242492      3.38e-04   Normal BFGS step
    7    -529.4401248877      6.37e-05   Normal BFGS step
    8    -529.4401249083      6.42e-06   Normal BFGS step
    9    -529.4401249086      1.74e-06   Normal BFGS step
   10    -529.4401249087      6.23e-07   Normal BFGS step
   11    -529.4401249087      2.03e-07   Normal BFGS step
   12    -529.4401249087      6.00e-08   Normal BFGS step
   13    -529.4401249087      1.43e-08   Normal BFGS step
   14    -529.4401249087      1.36e-09  Convergence criterion met
 ---------------------------------------
 SCF time:   CPU 2.83s  wall 4.00s 
 SCF   energy in the final basis set =     -529.4401249087
 Total energy in the final basis set =     -529.4401249087
 mp2 is not implemented in computing transition properties!


 ------------------------------------------------------------------------------

   CCMAN2: suite of methods based on coupled cluster
           and equation of motion theories.

   Components:
   * libvmm-1.3-trunk
     by Evgeny Epifanovsky, Ilya Kaliman.
   * libtensor-2.5-trunk
     by Evgeny Epifanovsky, Michael Wormit, Dmitry Zuev, Sam Manzer, 
        Ilya Kaliman.
   * libcc-2.5-trunk
     by Evgeny Epifanovsky, Arik Landau, Tomasz Kus, Kirill Khistyaev, 
        Dmitry Zuev, Prashant Manohar, Xintian Feng, Anna Krylov, 
        Matthew Goldey, Alec White, Thomas Jagau, Kaushik Nanda, 
        Anastasia Gunina, Alexander Kunitsa, Joonho Lee.

   CCMAN original authors:
   Anna I. Krylov, C. David Sherrill, Steven R. Gwaltney,
   Edward F. C. Byrd (2000)
   Sergey V. Levchenko, Lyudmila V. Slipchenko, Tao Wang,
   Ana-Maria C. Cristian (2003)
   Piotr A. Pieniazek, C. Melania Oana, Evgeny Epifanovsky (2007)
   Prashant Manohar (2009)

 ------------------------------------------------------------------------------


 Allocating and initializing 72000MB of RAM...
 Calculation will run on 1 core.

 
 Alpha MOs, Restricted
 -- Occupied --                  
-11.040 -11.040 -11.040 -11.040 -11.031 -11.031 -11.030 -11.030
  1 A     2 A     3 A     4 A     5 A     6 A     7 A     8 A                  
-11.029 -11.029 -11.029 -11.029 -11.026 -11.026  -1.124  -1.092
  9 A    10 A    11 A    12 A    13 A    14 A    15 A    16 A                  
 -1.020  -0.998  -0.960  -0.952  -0.884  -0.829  -0.775  -0.761
 17 A    18 A    19 A    20 A    21 A    22 A    23 A    24 A                  
 -0.754  -0.691  -0.657  -0.634  -0.588  -0.582  -0.572  -0.559
 25 A    26 A    27 A    28 A    29 A    30 A    31 A    32 A                  
 -0.530  -0.519  -0.506  -0.499  -0.497  -0.469  -0.450  -0.438
 33 A    34 A    35 A    36 A    37 A    38 A    39 A    40 A                  
 -0.409  -0.407  -0.353  -0.348  -0.284  -0.261  -0.167
 41 A    42 A    43 A    44 A    45 A    46 A    47 A                          
 -- Virtual --                   
  0.141   0.245   0.272   0.352   0.357   0.492   0.573   0.588
 48 A    49 A    50 A    51 A    52 A    53 A    54 A    55 A                  
  0.589   0.600   0.652   0.659   0.681   0.683   0.706   0.727
 56 A    57 A    58 A    59 A    60 A    61 A    62 A    63 A                  
  0.729   0.747   0.771   0.776   0.777   0.859   0.882   0.882
 64 A    65 A    66 A    67 A    68 A    69 A    70 A    71 A                  
  0.894   0.959   0.975   0.977   0.982   1.101   1.103   1.167
 72 A    73 A    74 A    75 A    76 A    77 A    78 A    79 A                  
  1.193
 80 A                                                                          
 
 Beta MOs, Restricted
 -- Occupied --                  
-11.040 -11.040 -11.040 -11.040 -11.031 -11.031 -11.030 -11.030
  1 A     2 A     3 A     4 A     5 A     6 A     7 A     8 A                  
-11.029 -11.029 -11.029 -11.029 -11.026 -11.026  -1.124  -1.092
  9 A    10 A    11 A    12 A    13 A    14 A    15 A    16 A                  
 -1.020  -0.998  -0.960  -0.952  -0.884  -0.829  -0.775  -0.761
 17 A    18 A    19 A    20 A    21 A    22 A    23 A    24 A                  
 -0.754  -0.691  -0.657  -0.634  -0.588  -0.582  -0.572  -0.559
 25 A    26 A    27 A    28 A    29 A    30 A    31 A    32 A                  
 -0.530  -0.519  -0.506  -0.499  -0.497  -0.469  -0.450  -0.438
 33 A    34 A    35 A    36 A    37 A    38 A    39 A    40 A                  
 -0.409  -0.407  -0.353  -0.348  -0.284  -0.261  -0.167
 41 A    42 A    43 A    44 A    45 A    46 A    47 A                          
 -- Virtual --                   
  0.141   0.245   0.272   0.352   0.357   0.492   0.573   0.588
 48 A    49 A    50 A    51 A    52 A    53 A    54 A    55 A                  
  0.589   0.600   0.652   0.659   0.681   0.683   0.706   0.727
 56 A    57 A    58 A    59 A    60 A    61 A    62 A    63 A                  
  0.729   0.747   0.771   0.776   0.777   0.859   0.882   0.882
 64 A    65 A    66 A    67 A    68 A    69 A    70 A    71 A                  
  0.894   0.959   0.975   0.977   0.982   1.101   1.103   1.167
 72 A    73 A    74 A    75 A    76 A    77 A    78 A    79 A                  
  1.193
 80 A                                                                          

 Occupation and symmetry of molecular orbitals

 Point group: C1 (1 irreducible representation).

                           A     All 
 -------------------------------------
 All molecular orbitals:
  - Alpha                  80    80  
  - Beta                   80    80  
 -------------------------------------
 Alpha orbitals:
  - Frozen occupied        14    14  
  - Active occupied        33    33  
  - Active virtual         33    33  
  - Frozen virtual         0     0   
 -------------------------------------
 Beta orbitals:
  - Frozen occupied        14    14  
  - Active occupied        33    33  
  - Active virtual         33    33  
  - Frozen virtual         0     0   
 -------------------------------------

 Import integrals:   CPU 0.00 s  wall 0.00 s

 Import integrals:   CPU 1.70 s  wall 2.02 s

 Computing CCSD intermediates for later calculations in double precision
 Finished.

 MP2 amplitudes:   CPU 2.81 s  wall 3.36 s

        Solving for EOMSF-CCSD A transitions.

Running a double precision version
       EOMSF-CCSD/MP2 right amplitudes will be solved using Davidson.
        Amplitudes will be solved using standard  algorithm.
     Hard-coded thresholds: 
     LinDepThresh=1.00e-15  NormThresh=1.00e-06  ReorthogonThresh=1.00e-02

      Roots     MaxVec    MaxIter   Precond   Conv      Shift    
      20        120       60        1         1.00e-05  0.00e+00  
 ------------------------------------------------------------------------------
      Iter ConvRoots NVecs ResNorm^2 Current eigenvalues (eV)
 ------------------------------------------------------------------------------
      0    0      40    1.32e-01   4.1615   6.2829   7.1962   7.9787   8.4767   8.8440   9.6230   9.8490   10.5953   10.6959   10.9036   11.2925   11.6595   11.8228   12.2063   12.2303   12.3365   12.4402   12.7551   12.8632   
      1    0      60    1.39e-02   1.8818   4.0083   4.9628   5.0095   5.9644   6.1247   6.5707   7.2078   7.3235   7.8181   8.0833   8.1092   8.1339   8.3232   8.4931   8.7674   9.0696   9.2763   9.6323   9.6614   
      2    0      80    3.06e-03   1.4615   3.5597   4.3398   4.5521   5.4259   5.7651   5.8223   6.7677   6.8018   7.0605   7.2826   7.5551   7.6510   7.8404   7.9425   8.0422   8.4701   8.5307   9.0705   9.2344   
      3    0      100   9.78e-04   1.4326   3.5297   4.2395   4.5160   5.3080   5.6946   5.7561   6.7276   6.7363   6.9137   7.0437   7.4600   7.5880   7.7840   7.9027   7.9508   8.3219   8.4404   8.9686   8.9848   
      4    1      120   4.97e-04   1.4302   3.5266   4.2081   4.5097   5.2813   5.6653   5.7559*  6.7115   6.7288   6.8758   6.9684   7.4484   7.5805   7.7678   7.8930   7.9285   8.2726   8.4260   8.4525   8.9712   
      5    4      39    1.47e-04   1.4298*  3.5260*  4.1997   4.5089*  5.2740   5.6560   5.7558*  6.7050   6.7263   6.8634   6.9425   7.4440   7.5768   7.7627   7.8896   7.9213   8.2573   8.2926   8.4198   8.9654   
      6    7      55    1.03e-04   1.4298*  3.5260*  4.1955   4.5088*  5.2709   5.6521   5.7558*  6.7004   6.7257*  6.8582   6.9346   7.4441*  7.5763*  7.7584   7.8879   7.9156   8.1862   8.2496   8.4186   8.9646   
      7    12     68    6.73e-05   1.4298*  3.5261*  4.1950   4.5087*  5.2713*  5.6510*  5.7558*  6.6991   6.7256*  6.8581   6.9334   7.4441*  7.5763*  7.7583   7.8884*  7.9131   8.1334   8.2445   8.4193*  8.9646*  
      8    14     76    5.53e-05   1.4298*  3.5260*  4.1950*  4.5087*  5.2712*  5.6509*  5.7558*  6.6982   6.7256*  6.8572*  6.9271   7.4441*  7.5763*  7.7557   7.8882*  7.9096   8.0797   8.2432   8.4193*  8.9646*  
      9    16     82    5.84e-04   1.4298*  3.5260*  4.1952*  4.5087*  5.2713*  5.6509*  5.7558*  6.6979*  6.7256*  6.8572*  6.9287   7.4441*  7.5763*  7.7561*  7.8883*  7.9090   8.0529   8.2417*  8.4193*  8.7084   
      10   18     86    2.33e-04   1.4297*  3.5260*  4.1952*  4.5088*  5.2711*  5.6509*  5.7557*  6.6979*  6.7256*  6.8572*  6.9262*  7.4441*  7.5763*  7.7553*  7.8881*  7.9074*  8.0479   8.2417*  8.2548   8.4193*  
      11   18     88    3.82e-05   1.4297*  3.5260*  4.1952*  4.5088*  5.2711*  5.6509*  5.7557*  6.6979*  6.7256*  6.8572*  6.9264*  7.4441*  7.5763*  7.7553*  7.8881*  7.9074*  8.0455   8.1168   8.2417*  8.4193*  
      12   19     90    1.26e-05   1.4297*  3.5260*  4.1952*  4.5088*  5.2711*  5.6509*  5.7557*  6.6979*  6.7256*  6.8572*  6.9263*  7.4441*  7.5763*  7.7553*  7.8881*  7.9074*  8.0455*  8.0942   8.2417*  8.4193*  
      13   19     91    7.52e-06   1.4297*  3.5260*  4.1952*  4.5088*  5.2711*  5.6509*  5.7557*  6.6979*  6.7256*  6.8572*  6.9263*  7.4441*  7.5763*  7.7553*  7.8881*  7.9074*  8.0455*  8.0879   8.2417*  8.4193*  
      14   19     92    5.89e-06   1.4297*  3.5260*  4.1952*  4.5088*  5.2711*  5.6509*  5.7557*  6.6979*  6.7256*  6.8572*  6.9263*  7.4441*  7.5763*  7.7553*  7.8880*  7.9074*  8.0455*  8.0846   8.2417*  8.4193*  
      15   19     93    4.79e-06   1.4297*  3.5260*  4.1952*  4.5088*  5.2711*  5.6509*  5.7557*  6.6979*  6.7256*  6.8572*  6.9263*  7.4441*  7.5763*  7.7553*  7.8880*  7.9074*  8.0455*  8.0836   8.2417*  8.4193*  
      16   20     94    4.39e-06   1.4297*  3.5260*  4.1952*  4.5088*  5.2711*  5.6509*  5.7557*  6.6979*  6.7256*  6.8572*  6.9263*  7.4441*  7.5763*  7.7553*  7.8879*  7.9074*  8.0455*  8.0824*  8.2417*  8.4193*  

     Davidson procedure converged

 EOMSF transition 1/A
 Total energy = -530.21321568 a.u.  Excitation energy = 1.4297 eV.
 R1^2 = 0.9227  R2^2 = 0.0773  Res^2 = 2.05e-06
 Conv-d = yes

 Amplitude    Transitions between orbitals
 -0.9020       47 (A) A                  ->    48 (A) B                   
 -0.1924       45 (A) A                  ->    50 (A) B                   
 -0.1509       44 (A) A                  ->    51 (A) B                   
 -0.1188       46 (A) A                  ->    49 (A) B                   
 -0.1066       43 (A) A                  ->    52 (A) B                   

              Summary of significant orbitals:

               Number  Type             Irrep      Energy
               43      Occ  Alpha      43 (A)     -0.3534
               44      Occ  Alpha      44 (A)     -0.3477
               45      Occ  Alpha      45 (A)     -0.2841
               46      Occ  Alpha      46 (A)     -0.2614
               47      Occ  Alpha      47 (A)     -0.1669
               48      Vir  Beta       48 (A)      0.1408
               49      Vir  Beta       49 (A)      0.2446
               50      Vir  Beta       50 (A)      0.2718
               51      Vir  Beta       51 (A)      0.3516
               52      Vir  Beta       52 (A)      0.3570


 EOMSF transition 2/A
 Total energy = -530.13617893 a.u.  Excitation energy = 3.5260 eV.
 R1^2 = 0.9244  R2^2 = 0.0756  Res^2 = 2.77e-06
 Conv-d = yes

 Amplitude    Transitions between orbitals
 -0.6591       45 (A) A                  ->    48 (A) B                   
 -0.5976       47 (A) A                  ->    50 (A) B                   
 -0.2165       44 (A) A                  ->    50 (A) B                   
 -0.1991       45 (A) A                  ->    51 (A) B                   

              Summary of significant orbitals:

               Number  Type             Irrep      Energy
               44      Occ  Alpha      44 (A)     -0.3477
               45      Occ  Alpha      45 (A)     -0.2841
               47      Occ  Alpha      47 (A)     -0.1669
               48      Vir  Beta       48 (A)      0.1408
               50      Vir  Beta       50 (A)      0.2718
               51      Vir  Beta       51 (A)      0.3516


 EOMSF transition 3/A
 Total energy = -530.11158466 a.u.  Excitation energy = 4.1952 eV.
 R1^2 = 0.8304  R2^2 = 0.1696  Res^2 = 3.20e-07
 Conv-d = yes

 Amplitude    Transitions between orbitals
  0.6594       46 (A) A                  ->    48 (A) B                   
  0.5916       47 (A) A                  ->    49 (A) B                   
  0.1349       43 (A) A                  ->    50 (A) B                   
  0.1237       45 (A) A                  ->    52 (A) B                   

              Summary of significant orbitals:

               Number  Type             Irrep      Energy
               43      Occ  Alpha      43 (A)     -0.3534
               45      Occ  Alpha      45 (A)     -0.2841
               46      Occ  Alpha      46 (A)     -0.2614
               47      Occ  Alpha      47 (A)     -0.1669
               48      Vir  Beta       48 (A)      0.1408
               49      Vir  Beta       49 (A)      0.2446
               50      Vir  Beta       50 (A)      0.2718
               52      Vir  Beta       52 (A)      0.3570


 EOMSF transition 4/A
 Total energy = -530.10006276 a.u.  Excitation energy = 4.5088 eV.
 R1^2 = 0.9251  R2^2 = 0.0749  Res^2 = 4.34e-06
 Conv-d = yes

 Amplitude    Transitions between orbitals
 -0.6370       44 (A) A                  ->    48 (A) B                   
 -0.5299       47 (A) A                  ->    51 (A) B                   
 -0.4354       45 (A) A                  ->    50 (A) B                   
 -0.1194       46 (A) A                  ->    49 (A) B                   

              Summary of significant orbitals:

               Number  Type             Irrep      Energy
               44      Occ  Alpha      44 (A)     -0.3477
               45      Occ  Alpha      45 (A)     -0.2841
               46      Occ  Alpha      46 (A)     -0.2614
               47      Occ  Alpha      47 (A)     -0.1669
               48      Vir  Beta       48 (A)      0.1408
               49      Vir  Beta       49 (A)      0.2446
               50      Vir  Beta       50 (A)      0.2718
               51      Vir  Beta       51 (A)      0.3516


 EOMSF transition 5/A
 Total energy = -530.07204590 a.u.  Excitation energy = 5.2711 eV.
 R1^2 = 0.8698  R2^2 = 0.1302  Res^2 = 5.10e-06
 Conv-d = yes

 Amplitude    Transitions between orbitals
  0.6135       43 (A) A                  ->    48 (A) B                   
  0.5002       47 (A) A                  ->    52 (A) B                   
  0.3036       46 (A) A                  ->    50 (A) B                   
  0.3017       45 (A) A                  ->    49 (A) B                   
 -0.1516       39 (A) A                  ->    50 (A) B                   
 -0.1272       45 (A) A                  ->    53 (A) B                   

              Summary of significant orbitals:

               Number  Type             Irrep      Energy
               39      Occ  Alpha      39 (A)     -0.4503
               43      Occ  Alpha      43 (A)     -0.3534
               45      Occ  Alpha      45 (A)     -0.2841
               46      Occ  Alpha      46 (A)     -0.2614
               47      Occ  Alpha      47 (A)     -0.1669
               48      Vir  Beta       48 (A)      0.1408
               49      Vir  Beta       49 (A)      0.2446
               50      Vir  Beta       50 (A)      0.2718
               52      Vir  Beta       52 (A)      0.3570
               53      Vir  Beta       53 (A)      0.4924


 EOMSF transition 6/A
 Total energy = -530.05809017 a.u.  Excitation energy = 5.6509 eV.
 R1^2 = 0.8758  R2^2 = 0.1242  Res^2 = 1.57e-06
 Conv-d = yes

 Amplitude    Transitions between orbitals
  0.8498       46 (A) A                  ->    49 (A) B                   
  0.2459       43 (A) A                  ->    52 (A) B                   
 -0.1675       47 (A) A                  ->    48 (A) B                   
 -0.1324       44 (A) A                  ->    48 (A) B                   
 -0.1045       47 (A) A                  ->    51 (A) B                   
  0.1044       44 (A) A                  ->    51 (A) B                   

              Summary of significant orbitals:

               Number  Type             Irrep      Energy
               43      Occ  Alpha      43 (A)     -0.3534
               44      Occ  Alpha      44 (A)     -0.3477
               46      Occ  Alpha      46 (A)     -0.2614
               47      Occ  Alpha      47 (A)     -0.1669
               48      Vir  Beta       48 (A)      0.1408
               49      Vir  Beta       49 (A)      0.2446
               51      Vir  Beta       51 (A)      0.3516
               52      Vir  Beta       52 (A)      0.3570


 EOMSF transition 7/A
 Total energy = -530.05423838 a.u.  Excitation energy = 5.7557 eV.
 R1^2 = 0.9254  R2^2 = 0.0746  Res^2 = 6.97e-06
 Conv-d = yes

 Amplitude    Transitions between orbitals
  0.6993       47 (A) A                  ->    49 (A) B                   
 -0.6440       46 (A) A                  ->    48 (A) B                   
  0.0915       45 (A) A                  ->    52 (A) B                   
 -0.0688       43 (A) A                  ->    50 (A) B                   

              Summary of significant orbitals:

               Number  Type             Irrep      Energy
               43      Occ  Alpha      43 (A)     -0.3534
               45      Occ  Alpha      45 (A)     -0.2841
               46      Occ  Alpha      46 (A)     -0.2614
               47      Occ  Alpha      47 (A)     -0.1669
               48      Vir  Beta       48 (A)      0.1408
               49      Vir  Beta       49 (A)      0.2446
               50      Vir  Beta       50 (A)      0.2718
               52      Vir  Beta       52 (A)      0.3570


 EOMSF transition 8/A
 Total energy = -530.01961244 a.u.  Excitation energy = 6.6979 eV.
 R1^2 = 0.8696  R2^2 = 0.1304  Res^2 = 2.05e-07
 Conv-d = yes

 Amplitude    Transitions between orbitals
 -0.4550       39 (A) A                  ->    48 (A) B                   
  0.3832       44 (A) A                  ->    49 (A) B                   
  0.3802       43 (A) A                  ->    50 (A) B                   
  0.3524       45 (A) A                  ->    52 (A) B                   
  0.3357       46 (A) A                  ->    51 (A) B                   
 -0.3222       47 (A) A                  ->    53 (A) B                   

              Summary of significant orbitals:

               Number  Type             Irrep      Energy
               39      Occ  Alpha      39 (A)     -0.4503
               43      Occ  Alpha      43 (A)     -0.3534
               44      Occ  Alpha      44 (A)     -0.3477
               45      Occ  Alpha      45 (A)     -0.2841
               46      Occ  Alpha      46 (A)     -0.2614
               47      Occ  Alpha      47 (A)     -0.1669
               48      Vir  Beta       48 (A)      0.1408
               49      Vir  Beta       49 (A)      0.2446
               50      Vir  Beta       50 (A)      0.2718
               51      Vir  Beta       51 (A)      0.3516
               52      Vir  Beta       52 (A)      0.3570
               53      Vir  Beta       53 (A)      0.4924


 EOMSF transition 9/A
 Total energy = -530.01859602 a.u.  Excitation energy = 6.7256 eV.
 R1^2 = 0.8779  R2^2 = 0.1221  Res^2 = 4.32e-06
 Conv-d = yes

 Amplitude    Transitions between orbitals
  0.6553       47 (A) A                  ->    50 (A) B                   
 -0.6372       45 (A) A                  ->    48 (A) B                   
  0.1296       45 (A) A                  ->    51 (A) B                   
  0.1020       46 (A) A                  ->    52 (A) B                   

              Summary of significant orbitals:

               Number  Type             Irrep      Energy
               45      Occ  Alpha      45 (A)     -0.2841
               46      Occ  Alpha      46 (A)     -0.2614
               47      Occ  Alpha      47 (A)     -0.1669
               48      Vir  Beta       48 (A)      0.1408
               50      Vir  Beta       50 (A)      0.2718
               51      Vir  Beta       51 (A)      0.3516
               52      Vir  Beta       52 (A)      0.3570


 EOMSF transition 10/A
 Total energy = -530.01375787 a.u.  Excitation energy = 6.8572 eV.
 R1^2 = 0.8363  R2^2 = 0.1637  Res^2 = 3.13e-06
 Conv-d = yes

 Amplitude    Transitions between orbitals
 -0.6266       43 (A) A                  ->    49 (A) B                   
 -0.5518       46 (A) A                  ->    52 (A) B                   
  0.2354       47 (A) A                  ->    50 (A) B                   
 -0.1412       44 (A) A                  ->    50 (A) B                   
  0.1284       39 (A) A                  ->    52 (A) B                   
  0.1023       43 (A) A                  ->    53 (A) B                   

              Summary of significant orbitals:

               Number  Type             Irrep      Energy
               39      Occ  Alpha      39 (A)     -0.4503
               43      Occ  Alpha      43 (A)     -0.3534
               44      Occ  Alpha      44 (A)     -0.3477
               46      Occ  Alpha      46 (A)     -0.2614
               47      Occ  Alpha      47 (A)     -0.1669
               49      Vir  Beta       49 (A)      0.2446
               50      Vir  Beta       50 (A)      0.2718
               52      Vir  Beta       52 (A)      0.3570
               53      Vir  Beta       53 (A)      0.4924


 EOMSF transition 11/A
 Total energy = -530.01121913 a.u.  Excitation energy = 6.9263 eV.
 R1^2 = 0.8490  R2^2 = 0.1510  Res^2 = 5.73e-07
 Conv-d = yes

 Amplitude    Transitions between orbitals
  0.5325       45 (A) A                  ->    49 (A) B                   
  0.4418       46 (A) A                  ->    50 (A) B                   
 -0.3322       43 (A) A                  ->    48 (A) B                   
  0.2420       44 (A) A                  ->    52 (A) B                   
  0.2321       43 (A) A                  ->    51 (A) B                   
 -0.2290       36 (A) A                  ->    48 (A) B                   
 -0.1737       47 (A) A                  ->    52 (A) B                   
 -0.1482       47 (A) A                  ->    54 (A) B                   
  0.1433       36 (A) A                  ->    51 (A) B                   
  0.1232       44 (A) A                  ->    54 (A) B                   

              Summary of significant orbitals:

               Number  Type             Irrep      Energy
               36      Occ  Alpha      36 (A)     -0.4993
               43      Occ  Alpha      43 (A)     -0.3534
               44      Occ  Alpha      44 (A)     -0.3477
               45      Occ  Alpha      45 (A)     -0.2841
               46      Occ  Alpha      46 (A)     -0.2614
               47      Occ  Alpha      47 (A)     -0.1669
               48      Vir  Beta       48 (A)      0.1408
               49      Vir  Beta       49 (A)      0.2446
               50      Vir  Beta       50 (A)      0.2718
               51      Vir  Beta       51 (A)      0.3516
               52      Vir  Beta       52 (A)      0.3570
               54      Vir  Beta       54 (A)      0.5732


 EOMSF transition 12/A
 Total energy = -529.99219024 a.u.  Excitation energy = 7.4441 eV.
 R1^2 = 0.9074  R2^2 = 0.0926  Res^2 = 7.83e-06
 Conv-d = yes

 Amplitude    Transitions between orbitals
 -0.9136       41 (A) A                  ->    48 (A) B                   
 -0.1614       38 (A) A                  ->    50 (A) B                   
  0.1009       33 (A) A                  ->    48 (A) B                   
 -0.0985       29 (A) A                  ->    48 (A) B                   

              Summary of significant orbitals:

               Number  Type             Irrep      Energy
               29      Occ  Alpha      29 (A)     -0.5879
               33      Occ  Alpha      33 (A)     -0.5302
               38      Occ  Alpha      38 (A)     -0.4692
               41      Occ  Alpha      41 (A)     -0.4094
               48      Vir  Beta       48 (A)      0.1408
               50      Vir  Beta       50 (A)      0.2718


 EOMSF transition 13/A
 Total energy = -529.98733199 a.u.  Excitation energy = 7.5763 eV.
 R1^2 = 0.9001  R2^2 = 0.0999  Res^2 = 8.16e-06
 Conv-d = yes

 Amplitude    Transitions between orbitals
 -0.9191       42 (A) A                  ->    48 (A) B                   
 -0.1560       40 (A) A                  ->    50 (A) B                   
  0.0943       37 (A) A                  ->    48 (A) B                   
 -0.0795       37 (A) A                  ->    51 (A) B                   

              Summary of significant orbitals:

               Number  Type             Irrep      Energy
               37      Occ  Alpha      37 (A)     -0.4972
               40      Occ  Alpha      40 (A)     -0.4382
               42      Occ  Alpha      42 (A)     -0.4072
               48      Vir  Beta       48 (A)      0.1408
               50      Vir  Beta       50 (A)      0.2718
               51      Vir  Beta       51 (A)      0.3516


 EOMSF transition 14/A
 Total energy = -529.98075483 a.u.  Excitation energy = 7.7553 eV.
 R1^2 = 0.8420  R2^2 = 0.1580  Res^2 = 1.98e-06
 Conv-d = yes

 Amplitude    Transitions between orbitals
  0.5636       44 (A) A                  ->    48 (A) B                   
 -0.5278       45 (A) A                  ->    50 (A) B                   
 -0.2984       47 (A) A                  ->    51 (A) B                   
 -0.2970       44 (A) A                  ->    51 (A) B                   
  0.1570       47 (A) A                  ->    48 (A) B                   
  0.1447       46 (A) A                  ->    49 (A) B                   

              Summary of significant orbitals:

               Number  Type             Irrep      Energy
               44      Occ  Alpha      44 (A)     -0.3477
               45      Occ  Alpha      45 (A)     -0.2841
               46      Occ  Alpha      46 (A)     -0.2614
               47      Occ  Alpha      47 (A)     -0.1669
               48      Vir  Beta       48 (A)      0.1408
               49      Vir  Beta       49 (A)      0.2446
               50      Vir  Beta       50 (A)      0.2718
               51      Vir  Beta       51 (A)      0.3516


 EOMSF transition 15/A
 Total energy = -529.97588232 a.u.  Excitation energy = 7.8879 eV.
 R1^2 = 0.9123  R2^2 = 0.0877  Res^2 = 4.21e-06
 Conv-d = yes

 Amplitude    Transitions between orbitals
  0.5286       46 (A) A                  ->    50 (A) B                   
 -0.5174       47 (A) A                  ->    52 (A) B                   
 -0.4300       45 (A) A                  ->    49 (A) B                   
  0.3995       43 (A) A                  ->    48 (A) B                   
  0.1021       43 (A) A                  ->    51 (A) B                   

              Summary of significant orbitals:

               Number  Type             Irrep      Energy
               43      Occ  Alpha      43 (A)     -0.3534
               45      Occ  Alpha      45 (A)     -0.2841
               46      Occ  Alpha      46 (A)     -0.2614
               47      Occ  Alpha      47 (A)     -0.1669
               48      Vir  Beta       48 (A)      0.1408
               49      Vir  Beta       49 (A)      0.2446
               50      Vir  Beta       50 (A)      0.2718
               51      Vir  Beta       51 (A)      0.3516
               52      Vir  Beta       52 (A)      0.3570


 EOMSF transition 16/A
 Total energy = -529.97516526 a.u.  Excitation energy = 7.9074 eV.
 R1^2 = 0.8466  R2^2 = 0.1534  Res^2 = 5.95e-06
 Conv-d = yes

 Amplitude    Transitions between orbitals
  0.6609       47 (A) A                  ->    51 (A) B                   
 -0.3895       45 (A) A                  ->    50 (A) B                   
 -0.3325       44 (A) A                  ->    48 (A) B                   
 -0.2877       44 (A) A                  ->    51 (A) B                   
  0.1358       47 (A) A                  ->    48 (A) B                   
 -0.1094       39 (A) A                  ->    49 (A) B                   
  0.1053       46 (A) A                  ->    49 (A) B                   

              Summary of significant orbitals:

               Number  Type             Irrep      Energy
               39      Occ  Alpha      39 (A)     -0.4503
               44      Occ  Alpha      44 (A)     -0.3477
               45      Occ  Alpha      45 (A)     -0.2841
               46      Occ  Alpha      46 (A)     -0.2614
               47      Occ  Alpha      47 (A)     -0.1669
               48      Vir  Beta       48 (A)      0.1408
               49      Vir  Beta       49 (A)      0.2446
               50      Vir  Beta       50 (A)      0.2718
               51      Vir  Beta       51 (A)      0.3516


 EOMSF transition 17/A
 Total energy = -529.97008942 a.u.  Excitation energy = 8.0455 eV.
 R1^2 = 0.5842  R2^2 = 0.4158  Res^2 = 7.80e-06
 Conv-d = yes

 Amplitude    Transitions between orbitals
 -0.4621       44 (A) A                  ->    49 (A) B                   
 -0.3293       46 (A) A                  ->    51 (A) B                   
 -0.3129       39 (A) A                  ->    48 (A) B                   
 -0.2249       36 (A) A                  ->    50 (A) B                   
 -0.1690       45 (A) A                  ->    54 (A) B                   
 -0.1677       39 (A) A                  ->    51 (A) B                   
 -0.1611       47 (A) A                  ->    53 (A) B                   
 -0.1586       44 (A) A                  ->    53 (A) B                   
 -0.2956       45 (A) A      47 (A) A    ->    48 (A) A      48 (A) B     
  0.2956       47 (A) A      45 (A) A    ->    48 (A) A      48 (A) B     
  0.2956       45 (A) A      47 (A) A    ->    48 (A) B      48 (A) A     
 -0.2956       47 (A) A      45 (A) A    ->    48 (A) B      48 (A) A     
  0.2727       47 (A) A      47 (A) B    ->    48 (A) B      50 (A) B     
 -0.2727       47 (A) A      47 (A) B    ->    50 (A) B      48 (A) B     
 -0.2727       47 (A) B      47 (A) A    ->    48 (A) B      50 (A) B     
  0.2727       47 (A) B      47 (A) A    ->    50 (A) B      48 (A) B     
  0.1025       45 (A) A      47 (A) A    ->    50 (A) A      50 (A) B     
 -0.1025       47 (A) A      45 (A) A    ->    50 (A) A      50 (A) B     
 -0.1025       45 (A) A      47 (A) A    ->    50 (A) B      50 (A) A     
  0.1025       47 (A) A      45 (A) A    ->    50 (A) B      50 (A) A     
 -0.1013       45 (A) A      45 (A) B    ->    48 (A) B      50 (A) B     
  0.1013       45 (A) A      45 (A) B    ->    50 (A) B      48 (A) B     
  0.1013       45 (A) B      45 (A) A    ->    48 (A) B      50 (A) B     
 -0.1013       45 (A) B      45 (A) A    ->    50 (A) B      48 (A) B     

              Summary of significant orbitals:

               Number  Type             Irrep      Energy
               36      Occ  Alpha      36 (A)     -0.4993
               39      Occ  Alpha      39 (A)     -0.4503
               44      Occ  Alpha      44 (A)     -0.3477
               45      Occ  Alpha      45 (A)     -0.2841
               46      Occ  Alpha      46 (A)     -0.2614
               47      Occ  Alpha      47 (A)     -0.1669
               45      Occ  Beta       45 (A)     -0.2841
               47      Occ  Beta       47 (A)     -0.1669
               48      Vir  Alpha      48 (A)      0.1408
               50      Vir  Alpha      50 (A)      0.2718
               48      Vir  Beta       48 (A)      0.1408
               49      Vir  Beta       49 (A)      0.2446
               50      Vir  Beta       50 (A)      0.2718
               51      Vir  Beta       51 (A)      0.3516
               53      Vir  Beta       53 (A)      0.4924
               54      Vir  Beta       54 (A)      0.5732


 EOMSF transition 18/A
 Total energy = -529.96873211 a.u.  Excitation energy = 8.0824 eV.
 R1^2 = 0.7076  R2^2 = 0.2924  Res^2 = 8.17e-06
 Conv-d = yes

 Amplitude    Transitions between orbitals
  0.5136       36 (A) A                  ->    48 (A) B                   
  0.3597       39 (A) A                  ->    50 (A) B                   
  0.2910       47 (A) A                  ->    54 (A) B                   
  0.2744       45 (A) A                  ->    53 (A) B                   
  0.1997       45 (A) A                  ->    49 (A) B                   
 -0.1819       43 (A) A                  ->    51 (A) B                   
  0.1803       46 (A) A                  ->    50 (A) B                   
 -0.1767       44 (A) A                  ->    52 (A) B                   

              Summary of significant orbitals:

               Number  Type             Irrep      Energy
               36      Occ  Alpha      36 (A)     -0.4993
               39      Occ  Alpha      39 (A)     -0.4503
               43      Occ  Alpha      43 (A)     -0.3534
               44      Occ  Alpha      44 (A)     -0.3477
               45      Occ  Alpha      45 (A)     -0.2841
               46      Occ  Alpha      46 (A)     -0.2614
               47      Occ  Alpha      47 (A)     -0.1669
               48      Vir  Beta       48 (A)      0.1408
               49      Vir  Beta       49 (A)      0.2446
               50      Vir  Beta       50 (A)      0.2718
               51      Vir  Beta       51 (A)      0.3516
               52      Vir  Beta       52 (A)      0.3570
               53      Vir  Beta       53 (A)      0.4924
               54      Vir  Beta       54 (A)      0.5732


 EOMSF transition 19/A
 Total energy = -529.96287936 a.u.  Excitation energy = 8.2417 eV.
 R1^2 = 0.8080  R2^2 = 0.1920  Res^2 = 5.48e-06
 Conv-d = yes

 Amplitude    Transitions between orbitals
  0.6080       44 (A) A                  ->    50 (A) B                   
  0.5371       45 (A) A                  ->    51 (A) B                   
 -0.1598       45 (A) A                  ->    48 (A) B                   
  0.1532       36 (A) A                  ->    49 (A) B                   
 -0.1505       43 (A) A                  ->    49 (A) B                   
 -0.1478       47 (A) A                  ->    50 (A) B                   
 -0.1287       46 (A) A                  ->    52 (A) B                   
  0.1131       46 (A) A                  ->    54 (A) B                   

              Summary of significant orbitals:

               Number  Type             Irrep      Energy
               36      Occ  Alpha      36 (A)     -0.4993
               43      Occ  Alpha      43 (A)     -0.3534
               44      Occ  Alpha      44 (A)     -0.3477
               45      Occ  Alpha      45 (A)     -0.2841
               46      Occ  Alpha      46 (A)     -0.2614
               47      Occ  Alpha      47 (A)     -0.1669
               48      Vir  Beta       48 (A)      0.1408
               49      Vir  Beta       49 (A)      0.2446
               50      Vir  Beta       50 (A)      0.2718
               51      Vir  Beta       51 (A)      0.3516
               52      Vir  Beta       52 (A)      0.3570
               54      Vir  Beta       54 (A)      0.5732


 EOMSF transition 20/A
 Total energy = -529.95635328 a.u.  Excitation energy = 8.4193 eV.
 R1^2 = 0.8996  R2^2 = 0.1004  Res^2 = 6.87e-06
 Conv-d = yes

 Amplitude    Transitions between orbitals
  0.8703       40 (A) A                  ->    48 (A) B                   
  0.2861       42 (A) A                  ->    50 (A) B                   
  0.1364       37 (A) A                  ->    50 (A) B                   
 -0.1141       35 (A) A                  ->    48 (A) B                   

              Summary of significant orbitals:

               Number  Type             Irrep      Energy
               35      Occ  Alpha      35 (A)     -0.5056
               37      Occ  Alpha      37 (A)     -0.4972
               40      Occ  Alpha      40 (A)     -0.4382
               42      Occ  Alpha      42 (A)     -0.4072
               48      Vir  Beta       48 (A)      0.1408
               50      Vir  Beta       50 (A)      0.2718


Running a double precision version
      EOM-CCSD/MP2 left amplitudes will be solved using Davidson.
        Amplitudes will be solved using MOM  algorithm.
     Hard-coded thresholds: 
     LinDepThresh=1.00e-15  NormThresh=1.00e-06  ReorthogonThresh=1.00e-02

      Roots     MaxVec    MaxIter   Precond   Conv      Shift    
      20        120       60        1         1.00e-05  0.00e+00  
 ------------------------------------------------------------------------------
      Iter ConvRoots NVecs ResNorm^2 Current eigenvalues (eV)
 ------------------------------------------------------------------------------
      0    0      20    2.32e-03   1.4297   3.5260   4.1952   4.5088   5.2711   5.6509   5.7557   6.6979   6.7256   6.8572   6.9263   7.4441   7.5763   7.7553   7.8879   7.9074   8.0455   8.0824   8.2417   8.4193   
      1    0      40    2.05e-04   1.4297   3.5260   4.1952   4.5084   5.2710   5.6508   5.7555   6.6979   6.7256   6.8575   6.9263   7.4442   7.5766   7.7554   7.8877   7.9079   8.0450   8.0824   8.2415   8.4188   
      2    0      60    2.87e-05   1.4298   3.5260   4.1952   4.5084   5.2709   5.6508   5.7557   6.6979   6.7256   6.8574   6.9263   7.4441   7.5766   7.7555   7.8876   7.9084   8.0449   8.0824   8.2414   8.4182   
      3    17     80    6.19e-06   1.4298*  3.5260*  4.1952*  4.5083*  5.2708*  5.6508*  5.7558*  6.6979*  6.7254*  6.8574*  6.9263*  7.4438*  7.5764*  7.7554   7.8876*  7.9084*  8.0447   8.0823   8.2413*  8.4182*  
      4    20     83    5.21e-06   1.4298*  3.5260*  4.1952*  4.5083*  5.2708*  5.6508*  5.7558*  6.6979*  6.7254*  6.8574*  6.9263*  7.4438*  7.5764*  7.7554*  7.8876*  7.9084*  8.0447*  8.0823*  8.2413*  8.4182*  

     Davidson procedure converged

 EOMSF-CCSD transition 1/A
S^2 calculation will be performed in  double precision
 EOMSF-CCSD transition 2/A
S^2 calculation will be performed in  double precision
 EOMSF-CCSD transition 3/A
S^2 calculation will be performed in  double precision
 EOMSF-CCSD transition 4/A
S^2 calculation will be performed in  double precision
 EOMSF-CCSD transition 5/A
S^2 calculation will be performed in  double precision
 EOMSF-CCSD transition 6/A
S^2 calculation will be performed in  double precision
 EOMSF-CCSD transition 7/A
S^2 calculation will be performed in  double precision
 EOMSF-CCSD transition 8/A
S^2 calculation will be performed in  double precision
 EOMSF-CCSD transition 9/A
S^2 calculation will be performed in  double precision
 EOMSF-CCSD transition 10/A
S^2 calculation will be performed in  double precision
 EOMSF-CCSD transition 11/A
S^2 calculation will be performed in  double precision
 EOMSF-CCSD transition 12/A
S^2 calculation will be performed in  double precision
 EOMSF-CCSD transition 13/A
S^2 calculation will be performed in  double precision
 EOMSF-CCSD transition 14/A
S^2 calculation will be performed in  double precision
 EOMSF-CCSD transition 15/A
S^2 calculation will be performed in  double precision
 EOMSF-CCSD transition 16/A
S^2 calculation will be performed in  double precision
 EOMSF-CCSD transition 17/A
S^2 calculation will be performed in  double precision
 EOMSF-CCSD transition 18/A
S^2 calculation will be performed in  double precision
 EOMSF-CCSD transition 19/A
S^2 calculation will be performed in  double precision
 EOMSF-CCSD transition 20/A
S^2 calculation will be performed in  double precision
 Excited state properties for  EOMSF-CCSD transition 1/A
 Dipole moment (a.u.): 0.000097 (X 0.000000, Y 0.000000, Z -0.000097)
 R-squared (a.u.): 2859.629567 (XX 2262.911790, YY 538.662317, ZZ 58.055459)
 Gauge origin (a.u.): (0.000000, 0.000000, 0.000000)
 Angular momentum (a.u.) against gauge origin: 
 (X 0.000000i, Y 0.000000i, Z 0.000000i)
 Traces of the OPDMs: Tr(AA) 46.000000, Tr(BB) 48.000000
 <S^2> = 2.000000
 Density matrix was written to a file for further analysis.

 Excited state properties for  EOMSF-CCSD transition 2/A
 Dipole moment (a.u.): 0.000088 (X 0.000000, Y 0.000000, Z -0.000088)
 R-squared (a.u.): 2859.340812 (XX 2262.644909, YY 538.712757, ZZ 57.983146)
 Gauge origin (a.u.): (0.000000, 0.000000, 0.000000)
 Angular momentum (a.u.) against gauge origin: 
 (X 0.000000i, Y 0.000000i, Z 0.000000i)
 Traces of the OPDMs: Tr(AA) 46.000000, Tr(BB) 48.000000
 <S^2> = 2.000000

 Excited state properties for  EOMSF-CCSD transition 3/A
 Dipole moment (a.u.): 0.000093 (X 0.000000, Y 0.000000, Z -0.000093)
 R-squared (a.u.): 2859.139375 (XX 2261.997744, YY 539.165681, ZZ 57.975950)
 Gauge origin (a.u.): (0.000000, 0.000000, 0.000000)
 Angular momentum (a.u.) against gauge origin: 
 (X 0.000000i, Y 0.000000i, Z 0.000000i)
 Traces of the OPDMs: Tr(AA) 46.000000, Tr(BB) 48.000000
 <S^2> = 2.000000

 Excited state properties for  EOMSF-CCSD transition 4/A
 Dipole moment (a.u.): 0.000093 (X 0.000000, Y 0.000000, Z -0.000093)
 R-squared (a.u.): 2860.103945 (XX 2263.417463, YY 538.743017, ZZ 57.943465)
 Gauge origin (a.u.): (0.000000, 0.000000, 0.000000)
 Angular momentum (a.u.) against gauge origin: 
 (X 0.000000i, Y 0.000000i, Z 0.000000i)
 Traces of the OPDMs: Tr(AA) 46.000000, Tr(BB) 48.000000
 <S^2> = 2.000000

 Excited state properties for  EOMSF-CCSD transition 5/A
 Dipole moment (a.u.): 0.000088 (X 0.000000, Y 0.000000, Z -0.000088)
 R-squared (a.u.): 2858.443484 (XX 2261.275947, YY 539.243282, ZZ 57.924255)
 Gauge origin (a.u.): (0.000000, 0.000000, 0.000000)
 Angular momentum (a.u.) against gauge origin: 
 (X 0.000000i, Y 0.000000i, Z 0.000000i)
 Traces of the OPDMs: Tr(AA) 46.000000, Tr(BB) 48.000000
 <S^2> = 2.000000

 Excited state properties for  EOMSF-CCSD transition 6/A
 Dipole moment (a.u.): 0.000097 (X 0.000000, Y 0.000000, Z -0.000097)
 R-squared (a.u.): 2859.568454 (XX 2262.488959, YY 539.166138, ZZ 57.913357)
 Gauge origin (a.u.): (0.000000, 0.000000, 0.000000)
 Angular momentum (a.u.) against gauge origin: 
 (X 0.000000i, Y 0.000000i, Z 0.000000i)
 Traces of the OPDMs: Tr(AA) 46.000000, Tr(BB) 48.000000
 <S^2> = 2.000000

 Excited state properties for  EOMSF-CCSD transition 7/A
 Dipole moment (a.u.): 0.000116 (X 0.000000, Y 0.000000, Z -0.000116)
 R-squared (a.u.): 2860.132082 (XX 2263.421565, YY 538.698126, ZZ 58.012391)
 Gauge origin (a.u.): (0.000000, 0.000000, 0.000000)
 Angular momentum (a.u.) against gauge origin: 
 (X 0.000000i, Y 0.000000i, Z 0.000000i)
 Traces of the OPDMs: Tr(AA) 46.000000, Tr(BB) 48.000000
 <S^2> = 2.000000

 Excited state properties for  EOMSF-CCSD transition 8/A
 Dipole moment (a.u.): 0.000092 (X 0.000000, Y 0.000000, Z -0.000092)
 R-squared (a.u.): 2859.304025 (XX 2262.305481, YY 539.135912, ZZ 57.862632)
 Gauge origin (a.u.): (0.000000, 0.000000, 0.000000)
 Angular momentum (a.u.) against gauge origin: 
 (X 0.000000i, Y 0.000000i, Z 0.000000i)
 Traces of the OPDMs: Tr(AA) 46.000000, Tr(BB) 48.000000
 <S^2> = 2.000000

 Excited state properties for  EOMSF-CCSD transition 9/A
 Dipole moment (a.u.): 0.000097 (X 0.000000, Y 0.000000, Z -0.000097)
 R-squared (a.u.): 2859.064360 (XX 2262.379664, YY 538.689846, ZZ 57.994851)
 Gauge origin (a.u.): (0.000000, 0.000000, 0.000000)
 Angular momentum (a.u.) against gauge origin: 
 (X 0.000000i, Y 0.000000i, Z 0.000000i)
 Traces of the OPDMs: Tr(AA) 46.000000, Tr(BB) 48.000000
 <S^2> = 2.000000

 Excited state properties for  EOMSF-CCSD transition 10/A
 Dipole moment (a.u.): 0.000118 (X 0.000000, Y 0.000000, Z -0.000118)
 R-squared (a.u.): 2860.098438 (XX 2263.202352, YY 539.029622, ZZ 57.866463)
 Gauge origin (a.u.): (0.000000, 0.000000, 0.000000)
 Angular momentum (a.u.) against gauge origin: 
 (X 0.000000i, Y 0.000000i, Z 0.000000i)
 Traces of the OPDMs: Tr(AA) 46.000000, Tr(BB) 48.000000
 <S^2> = 2.000000

 Excited state properties for  EOMSF-CCSD transition 11/A
 Dipole moment (a.u.): 0.000081 (X 0.000000, Y 0.000000, Z -0.000081)
 R-squared (a.u.): 2859.448657 (XX 2262.555223, YY 539.002369, ZZ 57.891064)
 Gauge origin (a.u.): (0.000000, 0.000000, 0.000000)
 Angular momentum (a.u.) against gauge origin: 
 (X 0.000000i, Y 0.000000i, Z 0.000000i)
 Traces of the OPDMs: Tr(AA) 46.000000, Tr(BB) 48.000000
 <S^2> = 2.000000

 Excited state properties for  EOMSF-CCSD transition 12/A
 Dipole moment (a.u.): 0.000080 (X 0.000000, Y 0.000000, Z -0.000080)
 R-squared (a.u.): 2857.291575 (XX 2259.243922, YY 538.918635, ZZ 59.129018)
 Gauge origin (a.u.): (0.000000, 0.000000, 0.000000)
 Angular momentum (a.u.) against gauge origin: 
 (X 0.000000i, Y 0.000000i, Z 0.000000i)
 Traces of the OPDMs: Tr(AA) 46.000000, Tr(BB) 48.000000
 <S^2> = 2.000000

 Excited state properties for  EOMSF-CCSD transition 13/A
 Dipole moment (a.u.): 0.000153 (X 0.000000, Y 0.000000, Z -0.000153)
 R-squared (a.u.): 2860.076033 (XX 2265.110552, YY 535.867920, ZZ 59.097561)
 Gauge origin (a.u.): (0.000000, 0.000000, 0.000000)
 Angular momentum (a.u.) against gauge origin: 
 (X 0.000000i, Y 0.000000i, Z 0.000000i)
 Traces of the OPDMs: Tr(AA) 46.000000, Tr(BB) 48.000000
 <S^2> = 2.000000

 Excited state properties for  EOMSF-CCSD transition 14/A
 Dipole moment (a.u.): 0.000022 (X 0.000001, Y 0.000000, Z 0.000022)
 R-squared (a.u.): 2854.921566 (XX 2258.117189, YY 538.880897, ZZ 57.923481)
 Gauge origin (a.u.): (0.000000, 0.000000, 0.000000)
 Angular momentum (a.u.) against gauge origin: 
 (X 0.000000i, Y 0.000000i, Z 0.000000i)
 Traces of the OPDMs: Tr(AA) 46.000000, Tr(BB) 48.000000
 <S^2> = 2.000000

 Excited state properties for  EOMSF-CCSD transition 15/A
 Dipole moment (a.u.): 0.000133 (X 0.000000, Y 0.000000, Z -0.000133)
 R-squared (a.u.): 2861.046752 (XX 2264.209945, YY 538.890209, ZZ 57.946599)
 Gauge origin (a.u.): (0.000000, 0.000000, 0.000000)
 Angular momentum (a.u.) against gauge origin: 
 (X 0.000000i, Y 0.000000i, Z 0.000000i)
 Traces of the OPDMs: Tr(AA) 46.000000, Tr(BB) 48.000000
 <S^2> = 2.000000

 Excited state properties for  EOMSF-CCSD transition 16/A
 Dipole moment (a.u.): 0.000215 (X 0.000000, Y 0.000000, Z -0.000215)
 R-squared (a.u.): 2864.318058 (XX 2267.792924, YY 538.598757, ZZ 57.926377)
 Gauge origin (a.u.): (0.000000, 0.000000, 0.000000)
 Angular momentum (a.u.) against gauge origin: 
 (X 0.000000i, Y 0.000000i, Z 0.000000i)
 Traces of the OPDMs: Tr(AA) 46.000000, Tr(BB) 48.000000
 <S^2> = 2.000000

 Excited state properties for  EOMSF-CCSD transition 17/A
 Dipole moment (a.u.): 0.000107 (X 0.000000, Y 0.000000, Z -0.000107)
 R-squared (a.u.): 2859.672295 (XX 2263.007752, YY 538.833009, ZZ 57.831535)
 Gauge origin (a.u.): (0.000000, 0.000000, 0.000000)
 Angular momentum (a.u.) against gauge origin: 
 (X 0.000000i, Y 0.000000i, Z 0.000000i)
 Traces of the OPDMs: Tr(AA) 46.000000, Tr(BB) 48.000000
 <S^2> = 2.000000

 Excited state properties for  EOMSF-CCSD transition 18/A
 Dipole moment (a.u.): 0.000093 (X 0.000000, Y 0.000000, Z -0.000093)
 R-squared (a.u.): 2860.039417 (XX 2263.010225, YY 539.217740, ZZ 57.811452)
 Gauge origin (a.u.): (0.000000, 0.000000, 0.000000)
 Angular momentum (a.u.) against gauge origin: 
 (X 0.000000i, Y 0.000000i, Z 0.000000i)
 Traces of the OPDMs: Tr(AA) 46.000000, Tr(BB) 48.000000
 <S^2> = 2.000000

 Excited state properties for  EOMSF-CCSD transition 19/A
 Dipole moment (a.u.): 0.000104 (X 0.000000, Y 0.000000, Z -0.000104)
 R-squared (a.u.): 2860.160190 (XX 2263.490830, YY 538.810466, ZZ 57.858894)
 Gauge origin (a.u.): (0.000000, 0.000000, 0.000000)
 Angular momentum (a.u.) against gauge origin: 
 (X 0.000000i, Y 0.000000i, Z 0.000000i)
 Traces of the OPDMs: Tr(AA) 46.000000, Tr(BB) 48.000000
 <S^2> = 2.000000

 Excited state properties for  EOMSF-CCSD transition 20/A
 Dipole moment (a.u.): 0.000077 (X 0.000000, Y 0.000000, Z -0.000077)
 R-squared (a.u.): 2855.527998 (XX 2260.014818, YY 536.416510, ZZ 59.096670)
 Gauge origin (a.u.): (0.000000, 0.000000, 0.000000)
 Angular momentum (a.u.) against gauge origin: 
 (X 0.000000i, Y 0.000000i, Z 0.000000i)
 Traces of the OPDMs: Tr(AA) 46.000000, Tr(BB) 48.000000
 <S^2> = 2.000000

 EOMSF-MP2 calculation:   CPU 868.19 s  wall 868.14 s


 Start computing the transition properties

 ------------------------------------------------------------------------------
 The new SOC module will be executed 
 Authors: Pavel Pokhilko and Evgeny Epifanovsky 
 SOC 1e and mf integrals are evaluating by libqints...
 ------------------------------------------------------------------------------
 State A: eomsf_mp2: 1/A
 State B: eomsf_mp2: 2/A
 Energy GAP = 0.077037 a.u. = 2.096278 eV
 Transition dipole moment (a.u.):
   A->B: 0.112226 (X 0.112226, Y 0.000000, Z 0.000000)
   B->A: 0.110736 (X 0.110736, Y 0.000000, Z 0.000000)
 Oscillator strength (a.u.): 0.000638
 Transition angular momentum against gauge origin (a.u.):
   A->B:  (X 0.000030i, Y 0.000007i, Z 0.000000i)
   B->A:  (X -0.000026i, Y -0.000004i, Z 0.000000i)
 Norm of one-particle transition density matrix:
   A->B: 0.838987;   B->A: 0.835220
   ||gamma^AB||*||gamma^BA||: 0.700739

 ______________________________________________________________
 A(Ket)->B(Bra) transition SO matrices
Full 2e SOC is not implemented withing libqints. 
I will do mean-field SOC with libqints, which is usually as good as full 2e SOC
 Analysing Sz ans S^2 of the pair of states...
 Ket state:  Computed S^2 = 2.000000 will be treated as 2.000000 Sz = -1.000000
 Bra state:  Computed S^2 = 2.000000 will be treated as 2.000000 Sz = -1.000000
 Clebsh-Gordan coefficient: <1.000,-1.000;1.000,0.000|1.000,-1.000> = -0.707
 _________________________________________________
 One-electron SO (cm-1)
 Reduced matrix elements:
 <S|| Hso(L-) ||S'> = (0.000012,0.000262)
 <S|| Hso(L0) ||S'> = (0.000000,0.000000)
 <S|| Hso(L+) ||S'> = (0.000012,-0.000262)
 SOCC = 0.000371
 Actual matrix elements:
       |Sz=-1.00>           |Sz=0.00>           |Sz=1.00>
 <Sz=-1.00|(-0.000000,-0.000000)(0.000008,-0.000185)(0.000000,-0.000000)
 <Sz=0.00|(-0.000008,-0.000185)(-0.000000,0.000000)(0.000008,-0.000185)
 <Sz=1.00|(0.000000,0.000000)(-0.000008,-0.000185)(-0.000000,0.000000)
 _________________________________________________
 Mean-field SO (cm-1)
 Reduced matrix elements:
 <S|| Hso(L-) ||S'> = (-0.000009,0.000097)
 <S|| Hso(L0) ||S'> = (0.000000,0.000000)
 <S|| Hso(L+) ||S'> = (-0.000009,-0.000097)
 SOCC = 0.000138
 Actual matrix elements:
       |Sz=-1.00>           |Sz=0.00>           |Sz=1.00>
 <Sz=-1.00|(0.000000,-0.000000)(-0.000006,-0.000068)(-0.000000,-0.000000)
 <Sz=0.00|(0.000006,-0.000068)(0.000000,0.000000)(-0.000006,-0.000068)
 <Sz=1.00|(-0.000000,0.000000)(0.000006,-0.000068)(0.000000,0.000000)
 Singlet part of <S|| Hso(L0) ||S'> = (-0.000000,-0.000000) (excluded from all matrix elements)
 L-/L+ Averaged reduced matrix elements:
 <S|| Hso(L-) ||S'> = (-0.000009,0.000097)
 <S|| Hso(L+) ||S'> = (-0.000009,-0.000097)
 ______________________________________________________________
 B(Ket)->A(Bra) transition SO matrices
Full 2e SOC is not implemented withing libqints. 
I will do mean-field SOC with libqints, which is usually as good as full 2e SOC
 Analysing Sz ans S^2 of the pair of states...
 Ket state:  Computed S^2 = 2.000000 will be treated as 2.000000 Sz = -1.000000
 Bra state:  Computed S^2 = 2.000000 will be treated as 2.000000 Sz = -1.000000
 Clebsh-Gordan coefficient: <1.000,-1.000;1.000,0.000|1.000,-1.000> = -0.707
 _________________________________________________
 One-electron SO (cm-1)
 Reduced matrix elements:
 <S|| Hso(L-) ||S'> = (-0.000021,-0.000202)
 <S|| Hso(L0) ||S'> = (0.000000,-0.000000)
 <S|| Hso(L+) ||S'> = (-0.000021,0.000202)
 SOCC = 0.000287
 Actual matrix elements:
       |Sz=-1.00>           |Sz=0.00>           |Sz=1.00>
 <Sz=-1.00|(0.000000,0.000000)(-0.000015,0.000143)(-0.000000,0.000000)
 <Sz=0.00|(0.000015,0.000143)(0.000000,-0.000000)(-0.000015,0.000143)
 <Sz=1.00|(-0.000000,-0.000000)(0.000015,0.000143)(0.000000,-0.000000)
 _________________________________________________
 Mean-field SO (cm-1)
 Reduced matrix elements:
 <S|| Hso(L-) ||S'> = (0.000004,-0.000067)
 <S|| Hso(L0) ||S'> = (0.000000,-0.000000)
 <S|| Hso(L+) ||S'> = (0.000004,0.000067)
 SOCC = 0.000095
 Actual matrix elements:
       |Sz=-1.00>           |Sz=0.00>           |Sz=1.00>
 <Sz=-1.00|(-0.000000,0.000000)(0.000003,0.000047)(0.000000,0.000000)
 <Sz=0.00|(-0.000003,0.000047)(-0.000000,-0.000000)(0.000003,0.000047)
 <Sz=1.00|(0.000000,-0.000000)(-0.000003,0.000047)(-0.000000,-0.000000)
 Singlet part of <S|| Hso(L0) ||S'> = (-0.000000,-0.000000) (excluded from all matrix elements)
 L-/L+ Averaged reduced matrix elements:
 <S|| Hso(L-) ||S'> = (0.000004,-0.000067)
 <S|| Hso(L+) ||S'> = (0.000004,0.000067)
 ______________________________________________________________
   Arithmetically averaged transition SO matrices
   (The phases shown, Ket and Bra assingment are from A(Ket)->B(Bra))
 _________________________________________________
 One-electron SO (cm-1)
 SOCC = 0.000329
 Actual matrix elements:
       |Sz=-1.00>           |Sz=0.00>           |Sz=1.00>
 <Sz=-1.00|(0.000000,-0.000000)(0.000012,-0.000164)(0.000000,-0.000000)
 <Sz=0.00|(-0.000012,-0.000164)(0.000000,0.000000)(0.000012,-0.000164)
 <Sz=1.00|(-0.000000,-0.000000)(-0.000012,-0.000164)(0.000000,0.000000)
 _________________________________________________
 Mean-field SO (cm-1)
 SOCC = 0.000116
 Actual matrix elements:
       |Sz=-1.00>           |Sz=0.00>           |Sz=1.00>
 <Sz=-1.00|(0.000000,-0.000000)(-0.000004,-0.000058)(-0.000000,-0.000000)
 <Sz=0.00|(0.000004,-0.000058)(0.000000,0.000000)(-0.000004,-0.000058)
 <Sz=1.00|(0.000000,-0.000000)(0.000004,-0.000058)(0.000000,0.000000)
 ______________________________________________________________

 ------------------------------------------------------------------------------
 State A: eomsf_mp2: 1/A
 State B: eomsf_mp2: 3/A
 Energy GAP = 0.101631 a.u. = 2.765522 eV
 Transition dipole moment (a.u.):
   A->B: 0.000001 (X 0.000000, Y 0.000000, Z 0.000001)
   B->A: 0.000001 (X 0.000000, Y 0.000000, Z 0.000001)
 Oscillator strength (a.u.): 0.000000
 Transition angular momentum against gauge origin (a.u.):
   A->B:  (X 0.000000i, Y 0.000000i, Z -0.009541i)
   B->A:  (X 0.000000i, Y 0.000000i, Z -0.002431i)
 Norm of one-particle transition density matrix:
   A->B: 0.868285;   B->A: 0.874000
   ||gamma^AB||*||gamma^BA||: 0.758881

 ______________________________________________________________
 A(Ket)->B(Bra) transition SO matrices
Full 2e SOC is not implemented withing libqints. 
I will do mean-field SOC with libqints, which is usually as good as full 2e SOC
 Analysing Sz ans S^2 of the pair of states...
 Ket state:  Computed S^2 = 2.000000 will be treated as 2.000000 Sz = -1.000000
 Bra state:  Computed S^2 = 2.000000 will be treated as 2.000000 Sz = -1.000000
 Clebsh-Gordan coefficient: <1.000,-1.000;1.000,0.000|1.000,-1.000> = -0.707
 _________________________________________________
 One-electron SO (cm-1)
 Reduced matrix elements:
 <S|| Hso(L-) ||S'> = (-0.000003,-0.000004)
 <S|| Hso(L0) ||S'> = (0.000000,1.808966)
 <S|| Hso(L+) ||S'> = (-0.000003,0.000004)
 SOCC = 1.808966
 Actual matrix elements:
       |Sz=-1.00>           |Sz=0.00>           |Sz=1.00>
 <Sz=-1.00|(0.000000,-1.279132)(-0.000002,0.000002)(-0.000000,0.000000)
 <Sz=0.00|(0.000002,0.000002)(0.000000,0.000000)(-0.000002,0.000002)
 <Sz=1.00|(-0.000000,0.000000)(0.000002,0.000002)(0.000000,1.279132)
 _________________________________________________
 Mean-field SO (cm-1)
 Reduced matrix elements:
 <S|| Hso(L-) ||S'> = (-0.000002,-0.000002)
 <S|| Hso(L0) ||S'> = (0.000000,-0.025664)
 <S|| Hso(L+) ||S'> = (-0.000002,0.000002)
 SOCC = 0.025664
 Actual matrix elements:
       |Sz=-1.00>           |Sz=0.00>           |Sz=1.00>
 <Sz=-1.00|(0.000000,0.018147)(-0.000001,0.000001)(-0.000000,-0.000000)
 <Sz=0.00|(0.000001,0.000001)(0.000000,-0.000000)(-0.000001,0.000001)
 <Sz=1.00|(-0.000000,-0.000000)(0.000001,0.000001)(0.000000,-0.018147)
 Singlet part of <S|| Hso(L0) ||S'> = (-0.000000,-0.000000) (excluded from all matrix elements)
 L-/L+ Averaged reduced matrix elements:
 <S|| Hso(L-) ||S'> = (-0.000002,-0.000002)
 <S|| Hso(L+) ||S'> = (-0.000002,0.000002)
 ______________________________________________________________
 B(Ket)->A(Bra) transition SO matrices
Full 2e SOC is not implemented withing libqints. 
I will do mean-field SOC with libqints, which is usually as good as full 2e SOC
 Analysing Sz ans S^2 of the pair of states...
 Ket state:  Computed S^2 = 2.000000 will be treated as 2.000000 Sz = -1.000000
 Bra state:  Computed S^2 = 2.000000 will be treated as 2.000000 Sz = -1.000000
 Clebsh-Gordan coefficient: <1.000,-1.000;1.000,0.000|1.000,-1.000> = -0.707
 _________________________________________________
 One-electron SO (cm-1)
 Reduced matrix elements:
 <S|| Hso(L-) ||S'> = (0.000003,0.000003)
 <S|| Hso(L0) ||S'> = (0.000000,-1.895382)
 <S|| Hso(L+) ||S'> = (0.000003,-0.000003)
 SOCC = 1.895382
 Actual matrix elements:
       |Sz=-1.00>           |Sz=0.00>           |Sz=1.00>
 <Sz=-1.00|(-0.000000,1.340238)(0.000002,-0.000002)(0.000000,-0.000000)
 <Sz=0.00|(-0.000002,-0.000002)(-0.000000,-0.000000)(0.000002,-0.000002)
 <Sz=1.00|(0.000000,-0.000000)(-0.000002,-0.000002)(-0.000000,-1.340238)
 _________________________________________________
 Mean-field SO (cm-1)
 Reduced matrix elements:
 <S|| Hso(L-) ||S'> = (0.000002,0.000002)
 <S|| Hso(L0) ||S'> = (0.000000,0.025582)
 <S|| Hso(L+) ||S'> = (0.000002,-0.000002)
 SOCC = 0.025582
 Actual matrix elements:
       |Sz=-1.00>           |Sz=0.00>           |Sz=1.00>
 <Sz=-1.00|(-0.000000,-0.018089)(0.000001,-0.000001)(0.000000,0.000000)
 <Sz=0.00|(-0.000001,-0.000001)(-0.000000,0.000000)(0.000001,-0.000001)
 <Sz=1.00|(0.000000,0.000000)(-0.000001,-0.000001)(-0.000000,0.018089)
 Singlet part of <S|| Hso(L0) ||S'> = (-0.000000,-0.000000) (excluded from all matrix elements)
 L-/L+ Averaged reduced matrix elements:
 <S|| Hso(L-) ||S'> = (0.000002,0.000002)
 <S|| Hso(L+) ||S'> = (0.000002,-0.000002)
 ______________________________________________________________
   Arithmetically averaged transition SO matrices
   (The phases shown, Ket and Bra assingment are from A(Ket)->B(Bra))
 _________________________________________________
 One-electron SO (cm-1)
 SOCC = 1.852174
 Actual matrix elements:
       |Sz=-1.00>           |Sz=0.00>           |Sz=1.00>
 <Sz=-1.00|(-0.000000,-1.309685)(-0.000002,0.000002)(-0.000000,0.000000)
 <Sz=0.00|(0.000002,0.000002)(-0.000000,0.000000)(-0.000002,0.000002)
 <Sz=1.00|(0.000000,0.000000)(0.000002,0.000002)(-0.000000,1.309685)
 _________________________________________________
 Mean-field SO (cm-1)
 SOCC = 0.025623
 Actual matrix elements:
       |Sz=-1.00>           |Sz=0.00>           |Sz=1.00>
 <Sz=-1.00|(-0.000000,0.018118)(-0.000001,0.000001)(-0.000000,-0.000000)
 <Sz=0.00|(0.000001,0.000001)(-0.000000,-0.000000)(-0.000001,0.000001)
 <Sz=1.00|(0.000000,-0.000000)(0.000001,0.000001)(-0.000000,-0.018118)
 ______________________________________________________________

 ------------------------------------------------------------------------------
 State A: eomsf_mp2: 1/A
 State B: eomsf_mp2: 4/A
 Energy GAP = 0.113153 a.u. = 3.079049 eV
 Transition dipole moment (a.u.):
   A->B: 0.000011 (X 0.000000, Y 0.000000, Z 0.000011)
   B->A: 0.000011 (X 0.000000, Y 0.000000, Z 0.000011)
 Oscillator strength (a.u.): 0.000000
 Transition angular momentum against gauge origin (a.u.):
   A->B:  (X 0.000000i, Y 0.000000i, Z 0.000000i)
   B->A:  (X 0.000000i, Y 0.000000i, Z 0.000000i)
 Norm of one-particle transition density matrix:
   A->B: 0.815829;   B->A: 0.811006
   ||gamma^AB||*||gamma^BA||: 0.661642

 ______________________________________________________________
 A(Ket)->B(Bra) transition SO matrices
Full 2e SOC is not implemented withing libqints. 
I will do mean-field SOC with libqints, which is usually as good as full 2e SOC
 Analysing Sz ans S^2 of the pair of states...
 Ket state:  Computed S^2 = 2.000000 will be treated as 2.000000 Sz = -1.000000
 Bra state:  Computed S^2 = 2.000000 will be treated as 2.000000 Sz = -1.000000
 Clebsh-Gordan coefficient: <1.000,-1.000;1.000,0.000|1.000,-1.000> = -0.707
 _________________________________________________
 One-electron SO (cm-1)
 Reduced matrix elements:
 <S|| Hso(L-) ||S'> = (0.000008,0.000000)
 <S|| Hso(L0) ||S'> = (0.000000,0.000006)
 <S|| Hso(L+) ||S'> = (0.000008,-0.000000)
 SOCC = 0.000013
 Actual matrix elements:
       |Sz=-1.00>           |Sz=0.00>           |Sz=1.00>
 <Sz=-1.00|(-0.000000,-0.000004)(0.000006,-0.000000)(0.000000,0.000000)
 <Sz=0.00|(-0.000006,-0.000000)(-0.000000,0.000000)(0.000006,-0.000000)
 <Sz=1.00|(0.000000,0.000000)(-0.000006,-0.000000)(-0.000000,0.000004)
 _________________________________________________
 Mean-field SO (cm-1)
 Reduced matrix elements:
 <S|| Hso(L-) ||S'> = (0.000004,0.000000)
 <S|| Hso(L0) ||S'> = (0.000000,-0.000000)
 <S|| Hso(L+) ||S'> = (0.000004,-0.000000)
 SOCC = 0.000006
 Actual matrix elements:
       |Sz=-1.00>           |Sz=0.00>           |Sz=1.00>
 <Sz=-1.00|(-0.000000,0.000000)(0.000003,-0.000000)(0.000000,-0.000000)
 <Sz=0.00|(-0.000003,-0.000000)(-0.000000,0.000000)(0.000003,-0.000000)
 <Sz=1.00|(0.000000,-0.000000)(-0.000003,-0.000000)(-0.000000,-0.000000)
 Singlet part of <S|| Hso(L0) ||S'> = (-0.000000,-0.000000) (excluded from all matrix elements)
 L-/L+ Averaged reduced matrix elements:
 <S|| Hso(L-) ||S'> = (0.000004,0.000000)
 <S|| Hso(L+) ||S'> = (0.000004,-0.000000)
 ______________________________________________________________
 B(Ket)->A(Bra) transition SO matrices
Full 2e SOC is not implemented withing libqints. 
I will do mean-field SOC with libqints, which is usually as good as full 2e SOC
 Analysing Sz ans S^2 of the pair of states...
 Ket state:  Computed S^2 = 2.000000 will be treated as 2.000000 Sz = -1.000000
 Bra state:  Computed S^2 = 2.000000 will be treated as 2.000000 Sz = -1.000000
 Clebsh-Gordan coefficient: <1.000,-1.000;1.000,0.000|1.000,-1.000> = -0.707
 _________________________________________________
 One-electron SO (cm-1)
 Reduced matrix elements:
 <S|| Hso(L-) ||S'> = (-0.000008,-0.000000)
 <S|| Hso(L0) ||S'> = (0.000000,-0.000007)
 <S|| Hso(L+) ||S'> = (-0.000008,0.000000)
 SOCC = 0.000013
 Actual matrix elements:
       |Sz=-1.00>           |Sz=0.00>           |Sz=1.00>
 <Sz=-1.00|(0.000000,0.000005)(-0.000006,0.000000)(-0.000000,-0.000000)
 <Sz=0.00|(0.000006,0.000000)(0.000000,-0.000000)(-0.000006,0.000000)
 <Sz=1.00|(-0.000000,-0.000000)(0.000006,0.000000)(0.000000,-0.000005)
 _________________________________________________
 Mean-field SO (cm-1)
 Reduced matrix elements:
 <S|| Hso(L-) ||S'> = (-0.000004,-0.000000)
 <S|| Hso(L0) ||S'> = (0.000000,0.000000)
 <S|| Hso(L+) ||S'> = (-0.000004,0.000000)
 SOCC = 0.000006
 Actual matrix elements:
       |Sz=-1.00>           |Sz=0.00>           |Sz=1.00>
 <Sz=-1.00|(0.000000,-0.000000)(-0.000003,0.000000)(-0.000000,0.000000)
 <Sz=0.00|(0.000003,0.000000)(0.000000,-0.000000)(-0.000003,0.000000)
 <Sz=1.00|(-0.000000,0.000000)(0.000003,0.000000)(0.000000,0.000000)
 Singlet part of <S|| Hso(L0) ||S'> = (-0.000000,-0.000000) (excluded from all matrix elements)
 L-/L+ Averaged reduced matrix elements:
 <S|| Hso(L-) ||S'> = (-0.000004,-0.000000)
 <S|| Hso(L+) ||S'> = (-0.000004,0.000000)
 ______________________________________________________________
   Arithmetically averaged transition SO matrices
   (The phases shown, Ket and Bra assingment are from A(Ket)->B(Bra))
 _________________________________________________
 One-electron SO (cm-1)
 SOCC = 0.000013
 Actual matrix elements:
       |Sz=-1.00>           |Sz=0.00>           |Sz=1.00>
 <Sz=-1.00|(-0.000000,-0.000005)(0.000006,-0.000000)(0.000000,0.000000)
 <Sz=0.00|(-0.000006,-0.000000)(-0.000000,0.000000)(0.000006,-0.000000)
 <Sz=1.00|(-0.000000,0.000000)(-0.000006,-0.000000)(-0.000000,0.000005)
 _________________________________________________
 Mean-field SO (cm-1)
 SOCC = 0.000006
 Actual matrix elements:
       |Sz=-1.00>           |Sz=0.00>           |Sz=1.00>
 <Sz=-1.00|(-0.000000,0.000000)(0.000003,-0.000000)(0.000000,-0.000000)
 <Sz=0.00|(-0.000003,-0.000000)(-0.000000,0.000000)(0.000003,-0.000000)
 <Sz=1.00|(-0.000000,-0.000000)(-0.000003,-0.000000)(-0.000000,-0.000000)
 ______________________________________________________________

 ------------------------------------------------------------------------------
 State A: eomsf_mp2: 1/A
 State B: eomsf_mp2: 5/A
 Energy GAP = 0.141170 a.u. = 3.841427 eV
 Transition dipole moment (a.u.):
   A->B: 0.116625 (X 0.000000, Y 0.116625, Z 0.000000)
   B->A: 0.112545 (X 0.000000, Y 0.112545, Z 0.000000)
 Oscillator strength (a.u.): 0.001235
 Transition angular momentum against gauge origin (a.u.):
   A->B:  (X 0.000001i, Y 0.000023i, Z 0.000000i)
   B->A:  (X -0.000002i, Y -0.000025i, Z 0.000000i)
 Norm of one-particle transition density matrix:
   A->B: 0.761086;   B->A: 0.755274
   ||gamma^AB||*||gamma^BA||: 0.574829

 ______________________________________________________________
 A(Ket)->B(Bra) transition SO matrices
Full 2e SOC is not implemented withing libqints. 
I will do mean-field SOC with libqints, which is usually as good as full 2e SOC
 Analysing Sz ans S^2 of the pair of states...
 Ket state:  Computed S^2 = 2.000000 will be treated as 2.000000 Sz = -1.000000
 Bra state:  Computed S^2 = 2.000000 will be treated as 2.000000 Sz = -1.000000
 Clebsh-Gordan coefficient: <1.000,-1.000;1.000,0.000|1.000,-1.000> = -0.707
 _________________________________________________
 One-electron SO (cm-1)
 Reduced matrix elements:
 <S|| Hso(L-) ||S'> = (0.000728,-0.000265)
 <S|| Hso(L0) ||S'> = (0.000000,0.000000)
 <S|| Hso(L+) ||S'> = (0.000728,0.000265)
 SOCC = 0.001096
 Actual matrix elements:
       |Sz=-1.00>           |Sz=0.00>           |Sz=1.00>
 <Sz=-1.00|(-0.000000,-0.000000)(0.000515,0.000187)(0.000000,0.000000)
 <Sz=0.00|(-0.000515,0.000187)(-0.000000,-0.000000)(0.000515,0.000187)
 <Sz=1.00|(0.000000,-0.000000)(-0.000515,0.000187)(-0.000000,0.000000)
 _________________________________________________
 Mean-field SO (cm-1)
 Reduced matrix elements:
 <S|| Hso(L-) ||S'> = (0.000360,-0.000131)
 <S|| Hso(L0) ||S'> = (0.000000,0.000000)
 <S|| Hso(L+) ||S'> = (0.000360,0.000131)
 SOCC = 0.000542
 Actual matrix elements:
       |Sz=-1.00>           |Sz=0.00>           |Sz=1.00>
 <Sz=-1.00|(-0.000000,-0.000000)(0.000255,0.000093)(0.000000,0.000000)
 <Sz=0.00|(-0.000255,0.000093)(-0.000000,-0.000000)(0.000255,0.000093)
 <Sz=1.00|(0.000000,-0.000000)(-0.000255,0.000093)(-0.000000,0.000000)
 Singlet part of <S|| Hso(L0) ||S'> = (-0.000000,-0.000000) (excluded from all matrix elements)
 L-/L+ Averaged reduced matrix elements:
 <S|| Hso(L-) ||S'> = (0.000360,-0.000131)
 <S|| Hso(L+) ||S'> = (0.000360,0.000131)
 ______________________________________________________________
 B(Ket)->A(Bra) transition SO matrices
Full 2e SOC is not implemented withing libqints. 
[...]
 ______________________________________________________________

 ------------------------------------------------------------------------------
 State A: eomsf_mp2: 1/A
 State B: eomsf_mp2: 18/A
 Energy GAP = 0.244484 a.u. = 6.652740 eV
 Transition dipole moment (a.u.):
   A->B: 0.062685 (X -0.000001, Y -0.062685, Z 0.000000)
   B->A: 0.057184 (X 0.000000, Y -0.057184, Z 0.000000)
 Oscillator strength (a.u.): 0.000584
 Transition angular momentum against gauge origin (a.u.):
   A->B:  (X -0.000027i, Y 0.000010i, Z 0.000000i)
   B->A:  (X 0.000024i, Y -0.000011i, Z 0.000000i)
 Norm of one-particle transition density matrix:
   A->B: 0.658651;   B->A: 0.641940
   ||gamma^AB||*||gamma^BA||: 0.422814

 ______________________________________________________________
 A(Ket)->B(Bra) transition SO matrices
Full 2e SOC is not implemented withing libqints. 
I will do mean-field SOC with libqints, which is usually as good as full 2e SOC
 Analysing Sz ans S^2 of the pair of states...
 Ket state:  Computed S^2 = 2.000000 will be treated as 2.000000 Sz = -1.000000
 Bra state:  Computed S^2 = 2.000000 will be treated as 2.000000 Sz = -1.000000
 Clebsh-Gordan coefficient: <1.000,-1.000;1.000,0.000|1.000,-1.000> = -0.707
 _________________________________________________
 One-electron SO (cm-1)
 Reduced matrix elements:
 <S|| Hso(L-) ||S'> = (0.002137,-0.000330)
 <S|| Hso(L0) ||S'> = (0.000000,0.000001)
 <S|| Hso(L+) ||S'> = (0.002137,0.000330)
 SOCC = 0.003058
 Actual matrix elements:
       |Sz=-1.00>           |Sz=0.00>           |Sz=1.00>
 <Sz=-1.00|(-0.000000,-0.000000)(0.001511,0.000233)(0.000000,0.000000)
 <Sz=0.00|(-0.001511,0.000233)(-0.000000,-0.000000)(0.001511,0.000233)
 <Sz=1.00|(0.000000,-0.000000)(-0.001511,0.000233)(-0.000000,0.000000)
 _________________________________________________
 Mean-field SO (cm-1)
 Reduced matrix elements:
 <S|| Hso(L-) ||S'> = (0.001097,-0.000131)
 <S|| Hso(L0) ||S'> = (0.000000,0.000000)
 <S|| Hso(L+) ||S'> = (0.001097,0.000131)
 SOCC = 0.001562
 Actual matrix elements:
       |Sz=-1.00>           |Sz=0.00>           |Sz=1.00>
 <Sz=-1.00|(-0.000000,-0.000000)(0.000776,0.000093)(0.000000,0.000000)
 <Sz=0.00|(-0.000776,0.000093)(-0.000000,-0.000000)(0.000776,0.000093)
 <Sz=1.00|(0.000000,-0.000000)(-0.000776,0.000093)(-0.000000,0.000000)
 Singlet part of <S|| Hso(L0) ||S'> = (-0.000000,-0.000000) (excluded from all matrix elements)
 L-/L+ Averaged reduced matrix elements:
 <S|| Hso(L-) ||S'> = (0.001097,-0.000131)
 <S|| Hso(L+) ||S'> = (0.001097,0.000131)
 ______________________________________________________________
 B(Ket)->A(Bra) transition SO matrices
Full 2e SOC is not implemented withing libqints. 
I will do mean-field SOC with libqints, which is usually as good as full 2e SOC
 Analysing Sz ans S^2 of the pair of states...
 Ket state:  Computed S^2 = 2.000000 will be treated as 2.000000 Sz = -1.000000
 Bra state:  Computed S^2 = 2.000000 will be treated as 2.000000 Sz = -1.000000
 Clebsh-Gordan coefficient: <1.000,-1.000;1.000,0.000|1.000,-1.000> = -0.707
 _________________________________________________
 One-electron SO (cm-1)
 Reduced matrix elements:
 <S|| Hso(L-) ||S'> = (-0.002134,0.000278)
 <S|| Hso(L0) ||S'> = (0.000000,-0.000001)
 <S|| Hso(L+) ||S'> = (-0.002134,-0.000278)
 SOCC = 0.003043
 Actual matrix elements:
       |Sz=-1.00>           |Sz=0.00>           |Sz=1.00>
 <Sz=-1.00|(0.000000,0.000000)(-0.001509,-0.000197)(-0.000000,-0.000000)
 <Sz=0.00|(0.001509,-0.000197)(0.000000,0.000000)(-0.001509,-0.000197)
 <Sz=1.00|(-0.000000,0.000000)(0.001509,-0.000197)(0.000000,-0.000000)
 _________________________________________________
 Mean-field SO (cm-1)
 Reduced matrix elements:
 <S|| Hso(L-) ||S'> = (-0.001099,0.000102)
 <S|| Hso(L0) ||S'> = (0.000000,-0.000000)
 <S|| Hso(L+) ||S'> = (-0.001099,-0.000102)
 SOCC = 0.001560
 Actual matrix elements:
       |Sz=-1.00>           |Sz=0.00>           |Sz=1.00>
 <Sz=-1.00|(0.000000,0.000000)(-0.000777,-0.000072)(-0.000000,-0.000000)
 <Sz=0.00|(0.000777,-0.000072)(0.000000,0.000000)(-0.000777,-0.000072)
 <Sz=1.00|(-0.000000,0.000000)(0.000777,-0.000072)(0.000000,-0.000000)
 Singlet part of <S|| Hso(L0) ||S'> = (-0.000000,-0.000000) (excluded from all matrix elements)
 L-/L+ Averaged reduced matrix elements:
 <S|| Hso(L-) ||S'> = (-0.001099,0.000102)
 <S|| Hso(L+) ||S'> = (-0.001099,-0.000102)
 ______________________________________________________________
   Arithmetically averaged transition SO matrices
   (The phases shown, Ket and Bra assingment are from A(Ket)->B(Bra))
 _________________________________________________
 One-electron SO (cm-1)
 SOCC = 0.003050
 Actual matrix elements:
       |Sz=-1.00>           |Sz=0.00>           |Sz=1.00>
 <Sz=-1.00|(-0.000000,-0.000000)(0.001510,0.000215)(0.000000,0.000000)
 <Sz=0.00|(-0.001510,0.000215)(-0.000000,-0.000000)(0.001510,0.000215)
 <Sz=1.00|(-0.000000,0.000000)(-0.001510,0.000215)(-0.000000,0.000000)
 _________________________________________________
 Mean-field SO (cm-1)
 SOCC = 0.001561
 Actual matrix elements:
       |Sz=-1.00>           |Sz=0.00>           |Sz=1.00>
 <Sz=-1.00|(0.000000,-0.000000)(0.000776,0.000082)(0.000000,0.000000)
 <Sz=0.00|(-0.000776,0.000082)(0.000000,-0.000000)(0.000776,0.000082)
 <Sz=1.00|(-0.000000,0.000000)(-0.000776,0.000082)(0.000000,0.000000)
 ______________________________________________________________

 ------------------------------------------------------------------------------
 State A: eomsf_mp2: 1/A
 State B: eomsf_mp2: 19/A
 Energy GAP = 0.250336 a.u. = 6.812002 eV
 Transition dipole moment (a.u.):
   A->B: 0.005437 (X -0.005437, Y 0.000000, Z 0.000000)
   B->A: 0.004630 (X -0.004630, Y 0.000000, Z 0.000000)
 Oscillator strength (a.u.): 0.000004
 Transition angular momentum against gauge origin (a.u.):
   A->B:  (X -0.000012i, Y 0.000000i, Z 0.000000i)
   B->A:  (X 0.000010i, Y -0.000002i, Z 0.000000i)
 Norm of one-particle transition density matrix:
   A->B: 0.416740;   B->A: 0.401458
   ||gamma^AB||*||gamma^BA||: 0.167303

 ______________________________________________________________
 A(Ket)->B(Bra) transition SO matrices
Full 2e SOC is not implemented withing libqints. 
I will do mean-field SOC with libqints, which is usually as good as full 2e SOC
 Analysing Sz ans S^2 of the pair of states...
 Ket state:  Computed S^2 = 2.000000 will be treated as 2.000000 Sz = -1.000000
 Bra state:  Computed S^2 = 2.000000 will be treated as 2.000000 Sz = -1.000000
 Clebsh-Gordan coefficient: <1.000,-1.000;1.000,0.000|1.000,-1.000> = -0.707
 _________________________________________________
 One-electron SO (cm-1)
 Reduced matrix elements:
 <S|| Hso(L-) ||S'> = (0.000000,0.000137)
 <S|| Hso(L0) ||S'> = (0.000000,0.000000)
 <S|| Hso(L+) ||S'> = (0.000000,-0.000137)
 SOCC = 0.000194
 Actual matrix elements:
       |Sz=-1.00>           |Sz=0.00>           |Sz=1.00>
 <Sz=-1.00|(-0.000000,-0.000000)(0.000000,-0.000097)(0.000000,-0.000000)
 <Sz=0.00|(-0.000000,-0.000097)(-0.000000,0.000000)(0.000000,-0.000097)
 <Sz=1.00|(0.000000,0.000000)(-0.000000,-0.000097)(-0.000000,0.000000)
 _________________________________________________
 Mean-field SO (cm-1)
 Reduced matrix elements:
 <S|| Hso(L-) ||S'> = (0.000023,0.000103)
 <S|| Hso(L0) ||S'> = (0.000000,0.000000)
 <S|| Hso(L+) ||S'> = (0.000023,-0.000103)
 SOCC = 0.000149
 Actual matrix elements:
       |Sz=-1.00>           |Sz=0.00>           |Sz=1.00>
 <Sz=-1.00|(-0.000000,-0.000000)(0.000016,-0.000073)(0.000000,-0.000000)
 <Sz=0.00|(-0.000016,-0.000073)(-0.000000,0.000000)(0.000016,-0.000073)
 <Sz=1.00|(0.000000,0.000000)(-0.000016,-0.000073)(-0.000000,0.000000)
 Singlet part of <S|| Hso(L0) ||S'> = (-0.000000,-0.000000) (excluded from all matrix elements)
 L-/L+ Averaged reduced matrix elements:
 <S|| Hso(L-) ||S'> = (0.000023,0.000103)
 <S|| Hso(L+) ||S'> = (0.000023,-0.000103)
 ______________________________________________________________
 B(Ket)->A(Bra) transition SO matrices
Full 2e SOC is not implemented withing libqints. 
I will do mean-field SOC with libqints, which is usually as good as full 2e SOC
 Analysing Sz ans S^2 of the pair of states...
 Ket state:  Computed S^2 = 2.000000 will be treated as 2.000000 Sz = -1.000000
 Bra state:  Computed S^2 = 2.000000 will be treated as 2.000000 Sz = -1.000000
 Clebsh-Gordan coefficient: <1.000,-1.000;1.000,0.000|1.000,-1.000> = -0.707
 _________________________________________________
 One-electron SO (cm-1)
 Reduced matrix elements:
 <S|| Hso(L-) ||S'> = (0.000018,-0.000251)
 <S|| Hso(L0) ||S'> = (0.000000,-0.000000)
 <S|| Hso(L+) ||S'> = (0.000018,0.000251)
 SOCC = 0.000356
 Actual matrix elements:
       |Sz=-1.00>           |Sz=0.00>           |Sz=1.00>
 <Sz=-1.00|(-0.000000,0.000000)(0.000013,0.000178)(0.000000,0.000000)
 <Sz=0.00|(-0.000013,0.000178)(-0.000000,-0.000000)(0.000013,0.000178)
 <Sz=1.00|(0.000000,-0.000000)(-0.000013,0.000178)(-0.000000,-0.000000)
 _________________________________________________
 Mean-field SO (cm-1)
 Reduced matrix elements:
 <S|| Hso(L-) ||S'> = (-0.000012,-0.000155)
 <S|| Hso(L0) ||S'> = (0.000000,-0.000000)
 <S|| Hso(L+) ||S'> = (-0.000012,0.000155)
 SOCC = 0.000220
 Actual matrix elements:
       |Sz=-1.00>           |Sz=0.00>           |Sz=1.00>
 <Sz=-1.00|(0.000000,0.000000)(-0.000009,0.000110)(-0.000000,0.000000)
 <Sz=0.00|(0.000009,0.000110)(0.000000,-0.000000)(-0.000009,0.000110)
 <Sz=1.00|(-0.000000,-0.000000)(0.000009,0.000110)(0.000000,-0.000000)
 Singlet part of <S|| Hso(L0) ||S'> = (-0.000000,-0.000000) (excluded from all matrix elements)
 L-/L+ Averaged reduced matrix elements:
 <S|| Hso(L-) ||S'> = (-0.000012,-0.000155)
 <S|| Hso(L+) ||S'> = (-0.000012,0.000155)
 ______________________________________________________________
   Arithmetically averaged transition SO matrices
   (The phases shown, Ket and Bra assingment are from A(Ket)->B(Bra))
 _________________________________________________
 One-electron SO (cm-1)
 SOCC = 0.000275
 Actual matrix elements:
       |Sz=-1.00>           |Sz=0.00>           |Sz=1.00>
 <Sz=-1.00|(-0.000000,-0.000000)(-0.000006,-0.000137)(0.000000,-0.000000)
 <Sz=0.00|(0.000006,-0.000137)(-0.000000,0.000000)(-0.000006,-0.000137)
 <Sz=1.00|(0.000000,-0.000000)(0.000006,-0.000137)(-0.000000,0.000000)
 _________________________________________________
 Mean-field SO (cm-1)
 SOCC = 0.000184
 Actual matrix elements:
       |Sz=-1.00>           |Sz=0.00>           |Sz=1.00>
 <Sz=-1.00|(-0.000000,-0.000000)(0.000012,-0.000091)(0.000000,-0.000000)
 <Sz=0.00|(-0.000012,-0.000091)(-0.000000,0.000000)(0.000012,-0.000091)
 <Sz=1.00|(-0.000000,-0.000000)(-0.000012,-0.000091)(-0.000000,0.000000)
 ______________________________________________________________

 ------------------------------------------------------------------------------
 State A: eomsf_mp2: 1/A
 State B: eomsf_mp2: 20/A
 Energy GAP = 0.256862 a.u. = 6.989585 eV
 Transition dipole moment (a.u.):
   A->B: 0.000001 (X 0.000000, Y -0.000001, Z 0.000000)
   B->A: 0.000001 (X 0.000000, Y -0.000001, Z 0.000000)
 Oscillator strength (a.u.): 0.000000
 Transition angular momentum against gauge origin (a.u.):
   A->B:  (X 0.000000i, Y 0.000000i, Z -0.000087i)
   B->A:  (X 0.000000i, Y 0.000000i, Z 0.000088i)
 Norm of one-particle transition density matrix:
   A->B: 0.829252;   B->A: 0.830434
   ||gamma^AB||*||gamma^BA||: 0.688639

 ______________________________________________________________
 A(Ket)->B(Bra) transition SO matrices
Full 2e SOC is not implemented withing libqints. 
I will do mean-field SOC with libqints, which is usually as good as full 2e SOC
 Analysing Sz ans S^2 of the pair of states...
 Ket state:  Computed S^2 = 2.000000 will be treated as 2.000000 Sz = -1.000000
 Bra state:  Computed S^2 = 2.000000 will be treated as 2.000000 Sz = -1.000000
 Clebsh-Gordan coefficient: <1.000,-1.000;1.000,0.000|1.000,-1.000> = -0.707
 _________________________________________________
 One-electron SO (cm-1)
 Reduced matrix elements:
 <S|| Hso(L-) ||S'> = (0.000001,0.000000)
 <S|| Hso(L0) ||S'> = (0.000000,0.004034)
 <S|| Hso(L+) ||S'> = (0.000001,-0.000000)
 SOCC = 0.004034
 Actual matrix elements:
       |Sz=-1.00>           |Sz=0.00>           |Sz=1.00>
 <Sz=-1.00|(-0.000000,-0.002852)(0.000001,-0.000000)(0.000000,0.000000)
 <Sz=0.00|(-0.000001,-0.000000)(-0.000000,0.000000)(0.000001,-0.000000)
 <Sz=1.00|(0.000000,0.000000)(-0.000001,-0.000000)(-0.000000,0.002852)
 _________________________________________________
 Mean-field SO (cm-1)
 Reduced matrix elements:
 <S|| Hso(L-) ||S'> = (0.000001,0.000000)
 <S|| Hso(L0) ||S'> = (0.000000,0.001960)
 <S|| Hso(L+) ||S'> = (0.000001,-0.000000)
 SOCC = 0.001960
 Actual matrix elements:
       |Sz=-1.00>           |Sz=0.00>           |Sz=1.00>
 <Sz=-1.00|(-0.000000,-0.001386)(0.000000,-0.000000)(0.000000,0.000000)
 <Sz=0.00|(-0.000000,-0.000000)(-0.000000,0.000000)(0.000000,-0.000000)
 <Sz=1.00|(0.000000,0.000000)(-0.000000,-0.000000)(-0.000000,0.001386)
 Singlet part of <S|| Hso(L0) ||S'> = (-0.000000,-0.000000) (excluded from all matrix elements)
 L-/L+ Averaged reduced matrix elements:
 <S|| Hso(L-) ||S'> = (0.000001,0.000000)
 <S|| Hso(L+) ||S'> = (0.000001,-0.000000)
 ______________________________________________________________
 B(Ket)->A(Bra) transition SO matrices
Full 2e SOC is not implemented withing libqints. 
I will do mean-field SOC with libqints, which is usually as good as full 2e SOC
 Analysing Sz ans S^2 of the pair of states...
 Ket state:  Computed S^2 = 2.000000 will be treated as 2.000000 Sz = -1.000000
 Bra state:  Computed S^2 = 2.000000 will be treated as 2.000000 Sz = -1.000000
 Clebsh-Gordan coefficient: <1.000,-1.000;1.000,0.000|1.000,-1.000> = -0.707
 _________________________________________________
 One-electron SO (cm-1)
 Reduced matrix elements:
 <S|| Hso(L-) ||S'> = (-0.000001,-0.000000)
 <S|| Hso(L0) ||S'> = (0.000000,-0.004151)
 <S|| Hso(L+) ||S'> = (-0.000001,0.000000)
 SOCC = 0.004151
 Actual matrix elements:
       |Sz=-1.00>           |Sz=0.00>           |Sz=1.00>
 <Sz=-1.00|(0.000000,0.002935)(-0.000001,0.000000)(-0.000000,-0.000000)
 <Sz=0.00|(0.000001,0.000000)(0.000000,-0.000000)(-0.000001,0.000000)
 <Sz=1.00|(-0.000000,-0.000000)(0.000001,0.000000)(0.000000,-0.002935)
 _________________________________________________
 Mean-field SO (cm-1)
 Reduced matrix elements:
 <S|| Hso(L-) ||S'> = (-0.000001,-0.000000)
 <S|| Hso(L0) ||S'> = (0.000000,-0.002027)
 <S|| Hso(L+) ||S'> = (-0.000001,0.000000)
 SOCC = 0.002027
 Actual matrix elements:
       |Sz=-1.00>           |Sz=0.00>           |Sz=1.00>
 <Sz=-1.00|(0.000000,0.001433)(-0.000000,0.000000)(-0.000000,-0.000000)
 <Sz=0.00|(0.000000,0.000000)(0.000000,-0.000000)(-0.000000,0.000000)
 <Sz=1.00|(-0.000000,-0.000000)(0.000000,0.000000)(0.000000,-0.001433)
 Singlet part of <S|| Hso(L0) ||S'> = (-0.000000,-0.000000) (excluded from all matrix elements)
 L-/L+ Averaged reduced matrix elements:
 <S|| Hso(L-) ||S'> = (-0.000001,-0.000000)
 <S|| Hso(L+) ||S'> = (-0.000001,0.000000)
 ______________________________________________________________
   Arithmetically averaged transition SO matrices
   (The phases shown, Ket and Bra assingment are from A(Ket)->B(Bra))
 _________________________________________________
 One-electron SO (cm-1)
 SOCC = 0.004092
 Actual matrix elements:
       |Sz=-1.00>           |Sz=0.00>           |Sz=1.00>
 <Sz=-1.00|(0.000000,-0.002894)(0.000001,-0.000000)(0.000000,0.000000)
 <Sz=0.00|(-0.000001,-0.000000)(0.000000,0.000000)(0.000001,-0.000000)
 <Sz=1.00|(-0.000000,0.000000)(-0.000001,-0.000000)(0.000000,0.002894)
 _________________________________________________
 Mean-field SO (cm-1)
 SOCC = 0.001994
 Actual matrix elements:
       |Sz=-1.00>           |Sz=0.00>           |Sz=1.00>
 <Sz=-1.00|(0.000000,-0.001410)(0.000000,-0.000000)(0.000000,0.000000)
 <Sz=0.00|(-0.000000,-0.000000)(0.000000,0.000000)(0.000000,-0.000000)
 <Sz=1.00|(-0.000000,0.000000)(-0.000000,-0.000000)(0.000000,0.001410)
 ______________________________________________________________


 All requested transition properties have been computed

 Transition Properties:   CPU 326.65 s  wall 328.83 s

 Total ccman2 time:   CPU 1200.06 s  wall 1203.72 s

 
 --------------------------------------------------------------
 
                    Orbital Energies (a.u.)
 --------------------------------------------------------------
 
 Alpha MOs
 -- Occupied --
-11.0400 -11.0399 -11.0399 -11.0399 -11.0306 -11.0306 -11.0303 -11.0302
-11.0287 -11.0287 -11.0286 -11.0286 -11.0259 -11.0258  -1.1238  -1.0917
 -1.0198  -0.9980  -0.9602  -0.9525  -0.8841  -0.8293  -0.7755  -0.7609
 -0.7544  -0.6907  -0.6566  -0.6336  -0.5879  -0.5820  -0.5719  -0.5586
 -0.5302  -0.5188  -0.5056  -0.4993  -0.4972  -0.4692  -0.4503  -0.4382
 -0.4094  -0.4072  -0.3534  -0.3477  -0.2841  -0.2614  -0.1669
 -- Virtual --
  0.1408   0.2446   0.2718   0.3516   0.3570   0.4924   0.5732   0.5878
  0.5890   0.5997   0.6516   0.6587   0.6805   0.6834   0.7056   0.7274
  0.7295   0.7469   0.7705   0.7760   0.7767   0.8586   0.8822   0.8824
  0.8935   0.9590   0.9755   0.9770   0.9824   1.1009   1.1031   1.1672
  1.1928
 --------------------------------------------------------------
 
          Ground-State Mulliken Net Atomic Charges

     Atom                 Charge (a.u.)
  ----------------------------------------
      1 C                    -0.004971
      2 C                    -0.059857
      3 H                     0.060535
      4 C                    -0.063828
      5 H                     0.063443
      6 C                    -0.063828
      7 H                     0.063443
      8 C                    -0.059857
      9 H                     0.060535
     10 C                    -0.004971
     11 C                    -0.048064
     12 H                     0.057418
     13 C                    -0.048064
     14 H                     0.057418
     15 C                    -0.004971
     16 C                    -0.059857
     17 H                     0.060535
     18 C                    -0.063828
     19 H                     0.063443
     20 C                    -0.063828
     21 H                     0.063443
     22 C                    -0.059857
     23 H                     0.060535
     24 C                    -0.004971
  ----------------------------------------
  Sum of atomic charges =     0.000000

 -----------------------------------------------------------------
                    Cartesian Multipole Moments
 -----------------------------------------------------------------
    Charge (ESU x 10^10)
                -0.0000
    Dipole Moment (Debye)
         X       0.0000      Y       0.0000      Z      -0.0002
       Tot       0.0002
    Quadrupole Moments (Debye-Ang)
        XX     -70.5215     XY      -0.0000     YY     -69.9259
        XZ      -0.0000     YZ      -0.0000     ZZ     -78.0866
    Octopole Moments (Debye-Ang^2)
       XXX       0.0000    XXY      -0.0000    XYY      -0.0000
       YYY       0.0000    XXZ      -0.0009    XYZ       0.0042
       YYZ      -0.0021    XZZ      -0.0000    YZZ       0.0000
       ZZZ      -0.0001
    Hexadecapole Moments (Debye-Ang^3)
      XXXX   -2814.8957   XXXY       0.0000   XXYY    -581.7632
      XYYY      -0.0000   YYYY    -652.4677   XXXZ      -0.0003
      XXYZ      -0.0000   XYYZ      -0.0000   YYYZ      -0.0000
      XXZZ    -536.4886   XYZZ      -0.0000   YYZZ    -133.8673
      XZZZ      -0.0000   YZZZ      -0.0000   ZZZZ     -63.2824
 -----------------------------------------------------------------
 Total job time:  1226.82s(wall), 1220.72s(cpu) 
 Sat Jan 27 13:14:49 2024

        *************************************************************
        *                                                           *
        *  Thank you very much for using Q-Chem.  Have a nice day.  *
        *                                                           *
        *************************************************************


