                  Welcome to Q-Chem
     A Quantum Leap Into The Future Of Chemistry


 Q-Chem 6.0 (devel), Q-Chem, Inc., Pleasanton, CA (2022)

 E. Epifanovsky,  A. T. B. Gilbert,  Xintian Feng,  Joonho Lee,  Yuezhi Mao,  
 N. Mardirossian,  P. Pokhilko,  A. White,  M. Wormit,  M. P. Coons,  
 A. L. Dempwolff,  Zhengting Gan,  D. Hait,  P. R. Horn,  L. D. Jacobson,  
 I. Kaliman,  J. Kussmann,  A. W. Lange,  Ka Un Lao,  D. S. Levine,  Jie Liu,  
 S. C. McKenzie,  A. F. Morrison,  K. Nanda,  F. Plasser,  D. R. Rehn,  
 M. L. Vidal,  Zhi-Qiang You,  Ying Zhu,  B. Alam,  B. Albrecht,  
 A. Aldossary,  E. Alguire,  J. H. Andersen,  V. Athavale,  D. Barton,  
 K. Begam,  A. Behn,  N. Bellonzi,  Y. A. Bernard,  E. J. Berquist,  
 H. Burton,  A. Carreras,  K. Carter-Fenk,  Romit Chakraborty,  
 Chandrima Chakravarty,  Junhan Chen,  A. D. Chien,  K. D. Closser,  
 V. Cofer-Shabica,  L. Cunha,  S. Dasgupta,  Jia Deng,  M. de Wergifosse,  
 M. Diedenhofen,  Hainam Do,  S. Ehlert,  Po-Tung Fang,  S. Fatehi,  
 Qingguo Feng,  T. Friedhoff,  B. Ganoe,  J. Gayvert,  Qinghui Ge,  
 G. Gidofalvi,  M. Goldey,  J. Gomes,  C. Gonzalez-Espinoza,  S. Gulania,  
 A. Gunina,  J. A. Gyamfi,  M. W. D. Hanson-Heine,  P. H. P. Harbach,  
 A. W. Hauser,  M. F. Herbst,  M. Hernandez Vera,  M. Hodecker,  
 Z. C. Holden,  S. Houck,  Xunkun Huang,  Kerwin Hui,  B. C. Huynh,  
 K. Ikeda,  M. Ivanov,  Hyunjun Ji,  Zuxin Jin,  Hanjie Jiang,  B. Kaduk,  
 S. Kaehler,  R. Kang,  K. Khistyaev,  Jaehoon Kim,  Yongbin Kim,  
 P. Klunzinger,  Z. Koczor-Benda,  Joong Hoon Koh,  D. Kosenkov,  
 Saikiran Kotaru,  L. Koulias,  T. Kowalczyk,  C. M. Krauter,  K. Kue,  
 A. Kunitsa,  T. Kus,  A. Landau,  K. V. Lawler,  D. Lefrancois,  S. Lehtola,  
 Rain Li,  Shaozhi Li,  Yi-Pei Li,  Jiashu Liang,  M. Liebenthal,  
 Hung-Hsuan Lin,  You-Sheng Lin,  Fenglai Liu,  Kuan-Yu Liu,  
 M. Loipersberger,  A. Luenser,  C. Malbon,  A. Manjanath,  P. Manohar,  
 E. Mansoor,  S. F. Manzer,  Shan-Ping Mao,  A. V. Marenich,  T. Markovich,  
 S. Mason,  F. Matz,  S. A. Maurer,  P. F. McLaughlin,  M. F. S. J. Menger,  
 J.-M. Mewes,  S. A. Mewes,  P. Morgante,  Mohammad Mostafanejad,  
 J. W. Mullinax,  K. J. Oosterbaan,  G. Paran,  V. Parravicini,  
 Alexander C. Paul,  Suranjan K. Paul,  F. Pavosevic,  Zheng Pei,  S. Prager,  
 E. I. Proynov,  E. Ramos,  B. Rana,  A. E. Rask,  A. Rettig,  R. M. Richard,  
 F. Rob,  E. Rossomme,  T. Scheele,  M. Scheurer,  M. Schneider,  
 P. E. Schneider,  N. Sergueev,  S. M. Sharada,  Hengyuan Shen,  
 W. Skomorowski,  D. W. Small,  C. J. Stein,  Yingli Su,  Yu-Chuan Su,  
 E. J. Sundstrom,  Zhen Tao,  J. Thirman,  Hung-Yi Tsai,  T. Tsuchimochi,  
 N. M. Tubman,  C. Utku,  S. P. Veccham,  O. Vydrov,  J. Wenzel,  
 Jonathan Wong,  J. Witte,  A. Yamada,  Chou-Hsun Yang,  Kun Yao,  
 S. Yeganeh,  S. R. Yost,  A. Zech,  F. Zeller,  Igor Ying Zhang,  
 Xing Zhang,  Yu Zhang,  D. Zuev,  A. Aspuru-Guzik,  A. T. Bell,  
 N. A. Besley,  K. B. Bravaya,  B. R. Brooks,  D. Casanova,  Jeng-Da Chai,  
 Hsing-Ta Chen,  S. Coriani,  C. J. Cramer,  A. E. DePrince, III,  
 R. A. DiStasio Jr.,  A. Dreuw,  B. D. Dunietz,  T. R. Furlani,  
 W. A. Goddard III,  S. Grimme,  S. Hammes-Schiffer,  T. Head-Gordon,  
 W. J. Hehre,  Chao-Ping Hsu,  T.-C. Jagau,  Yousung Jung,  A. Klamt,  
 Jing Kong,  D. S. Lambrecht,  Xiangyuan Li,  WanZhen Liang,  N. J. Mayhall,  
 C. W. McCurdy,  J. B. Neaton,  T. Neudecker,  C. Ochsenfeld,  
 J. A. Parkhill,  R. Peverati,  V. A. Rassolov,  Haisheng Ren,  Yihan Shao,  
 L. V. Slipchenko,  R. P. Steele,  J. E. Subotnik,  A. J. W. Thom,  
 A. Tkatchenko,  D. G. Truhlar,  T. Van Voorhis,  Fan Wang,  
 T. A. Wesolowski,  K. B. Whaley,  H. L. Woodcock III,  P. M. Zimmerman,  
 S. Faraji,  P. M. W. Gill,  M. Head-Gordon,  J. M. Herbert,  A. I. Krylov

 Contributors to earlier versions of Q-Chem not listed above: 
 R. D. Adamson,  B. Austin,  R. Baer,  J. Baker,  G. J. O. Beran,  
 K. Brandhorst,  S. T. Brown,  E. F. C. Byrd,  Arup K. Chakraborty,  
 G. K. L. Chan,  Chun-Min Chang,  Yunqing Chen,  C.-L. Cheng,  
 Siu Hung Chien,  D. M. Chipman,  D. L. Crittenden,  H. Dachsel,  
 R. J. Doerksen,  A. D. Dutoi,  R. G. Edgar,  J. Fosso-Tande,  
 L. Fusti-Molnar,  D. Ghosh,  A. Ghysels,  A. Golubeva-Zadorozhnaya,  
 J. Gonthier,  M. S. Gordon,  S. R. Gwaltney,  G. Hawkins,  J. E. Herr,  
 A. Heyden,  S. Hirata,  E. G. Hohenstein,  G. Kedziora,  F. J. Keil,  
 C. Kelley,  Jihan Kim,  R. A. King,  R. Z. Khaliullin,  P. P. Korambath,  
 W. Kurlancheek,  A. Laurent,  A. M. Lee,  M. S. Lee,  S. V. Levchenko,  
 Ching Yeh Lin,  D. Liotard,  E. Livshits,  R. C. Lochan,  I. Lotan,  
 L. A. Martinez-Martinez,  P. E. Maslen,  N. Nair,  D. P. O'Neill,  
 D. Neuhauser,  E. Neuscamman,  C. M. Oana,  R. Olivares-Amaya,  R. Olson,  
 T. M. Perrine,  B. Peters,  P. A. Pieniazek,  A. Prociuk,  Y. M. Rhee,  
 J. Ritchie,  M. A. Rohrdanz,  E. Rosta,  N. J. Russ,  H. F. Schaefer III,  
 M. W. Schmidt,  N. E. Schultz,  S. Sharma,  N. Shenvi,  C. D. Sherrill,  
 A. C. Simmonett,  A. Sodt,  T. Stein,  D. Stuck,  K. S. Thanthiriwatte,  
 V. Vanovschi,  L. Vogt,  Tao Wang,  A. Warshel,  M. A. Watson,  
 C. F. Williams,  Q. Wu,  X. Xu,  Jun Yang,  W. Zhang,  Yan Zhao

   Please cite Q-Chem as follows:
  "Software for the frontiers of quantum chemistry:
   An overview of developments in the Q-Chem 5 package"
   J. Chem. Phys. 155, 084801 (2021)
   https://doi.org/10.1063/5.0055522 (open access)

 Q-Chem 6.0.1 for Intel X86 EM64T Linux

 Parts of Q-Chem use Armadillo 9.900.5 (Nocturnal Misbehaviour).
 http://arma.sourceforge.net/

 Q-Chem begins on Fri Jan 26 13:13:21 2024  

 Host: atlas-254
0

     Scratch files written to ./qchem69919//
 Processing $rem in /scratch/abel/SOFTWARE/qchem/config/preferences:
 Processing $rem in /dipc/acebg/.qchemrc:
 Core orbitals will be frozen

 Checking the input file for inconsistencies... 	...done.

--------------------------------------------------------------
User input:
--------------------------------------------------------------
$comment
 RAS-SF CALCULATION
$end

$molecule
 READ benzoquinone_singlet.molecule
$end

$rem
!**CALCULATION TYPE***     
JOBTYPE            sp    
!BASIS              def2-TZVP
BASIS             STO-3G

!***SCF REFERENCE***
INPUT_BOHR 	    TRUE
!SKIP_SCFMAN        FALSE
UNRESTRICTED       FALSE
!SCF_GUESS          core
!SCF_GUESS_MIX      FALSE
!SCF_GUESS_ALWAYS   FALSE
MAX_SCF_CYCLES     500
!SCF_CONVERGENCE    10
SCF_ALGORITHM      DIIS_GDM !DIIS,DM,DIIS_DM,GDM,DIIS_GDM,GD

!SYMMETRY           TRUE   !use of symmetry for calculating integrals
!SYM_IGNORE         FALSE  !turn off using symmetry
!SYM_TOL            5      !tolerance for determining point group
!USE_ABELIAN_SUBGROUP      !define to use abelian group

!THRESH             14
!SCF_FINAL_PRINT     1 !0,1,2,3

!****CCSD****
CORRELATION        CCSD
!CC_CONVERGENCE     6
!CC_MAX_ITER        200
CC_PRINT	   2
!CHOLESKY_TOL       3 !Toler. decomposition 2e integrals
CC_REF_PROP  	   1 !one-particle CCSD properties calculation
!CC_REF_PROP_TE	   0 !two-particle CCSD properties calculation
!CC_FNO_THRESH
!CC_BACKEND	   XM !Used to specify the computational back-end of CCMAN2.

!****EOM****
METHOD             EOM-MP2
SF_STATES	   [10, 3, 10, 10]
CC_STATE_TO_OPT    [2, 1]
CC_EOM_PROP        1
CC_EOM_PROP_TE	   1
CC_TRANS_PROP      1
CALC_SOC           TRUE   !calculate SOC for EOM-CC, RAS-CI, ADC, TDDFT/TDA and TDDFT

!****MEMORY****
MEM_TOTAL          90000 !Default 2000 MB
MEM_STATIC         7000  !Default 64 MB
CC_MEMORY          72000

!**Molecular Properties and Analysis **                                                                                          
!POP_MULLIKEN       TRUE   !Run Mulliken population analysis
!LOWDIN_POPULATION  TRUE   !Run Löwdin population analysis
GUI                0       !Checkpoints generation
!STATE_ANALYSIS     TRUE

!**Wave function analysis**
!PLOTS = 0     ! Note: This can be omitted, default is 0
!NTO_PAIRS = 2 ! Note: This can be omitted, default is 2
!GUI 0
!MOLDEN_FORMAT      TRUE
!PRINT_ORBITALS     15
$end

!$plots
!   grid_points 100 100 100
!   grid_range  (-10,10) (-10,10) (-10,10)
!$end

--------------------------------------------------------------
 ----------------------------------------------------------------
             Standard Nuclear Orientation (Bohr)
    I     Atom           X                Y                Z
 ----------------------------------------------------------------
    1      O       0.0000000000    -0.0000000000     5.0873465738
    2      C       0.0000000000    -0.0000000000     2.6403222818
    3      C       2.3453549260    -0.0000000000     1.3021362826
    4      C      -2.3453549260     0.0000000000     1.3021362826
    5      C      -2.3309491506     0.0000000000    -1.2666211182
    6      C       2.3309491506    -0.0000000000    -1.2666211182
    7      C      -0.0000000000     0.0000000000    -2.7415020535
    8      O      -0.0000000000     0.0000000000    -5.0815679785
    9      H       4.0818321701    -0.0000000000     2.3803198434
   10      H      -4.0818321701     0.0000000000     2.3803198434
   11      H       4.0900977079    -0.0000000000    -2.3129858956
   12      H      -4.0900977079     0.0000000000    -2.3129858956
 ----------------------------------------------------------------
 Molecular Point Group                 C2v   NOp =  4
 Largest Abelian Subgroup              C2v   NOp =  4
 Nuclear Repulsion Energy =         323.04806769 hartrees
 There are       28 alpha and       28 beta electrons
 Requested basis set is STO-3G
 There are 20 shells and 44 basis functions
WARNING: MEM_STATIC is adjusted to be 2000 MB!
 Total memory of 90000 MB is distributed as follows: 
   MEM_STATIC is set to 2000 MB
   QALLOC/CCMAN JOB total memory use is  88000 MB
 Warning: actual memory use might exceed 90000 MB

 Total QAlloc Memory Limit  90000 MB
 Mega-Array Size      1956 MB
 MEM_STATIC part      2000 MB


                       Distance Matrix (Bohrs)
             O (  1)   C (  2)   C (  3)   C (  4)   C (  5)   C (  6)
   C (  2)  2.447024
   C (  3)  4.452921  2.700265
   C (  4)  4.452921  2.700265  4.690710
   C (  5)  6.768030  4.549454  5.335385  2.568798
   C (  6)  6.768030  4.549454  2.568798  5.335385  4.661898
   C (  7)  7.828849  5.381824  4.674580  4.674580  2.758369  2.758369
   O (  8) 10.168915  7.721890  6.800909  6.800909  4.470698  4.470698
   H (  9)  4.897892  4.090105  2.043975  6.516994  7.377258  4.045463
   H ( 10)  4.897892  4.090105  6.516994  2.043975  4.045463  7.377258
   H ( 11)  8.455402  6.423719  4.014130  7.381339  6.505745  2.046823
   H ( 12)  8.455402  6.423719  7.381339  4.014130  2.046823  6.505745
             C (  7)   O (  8)   H (  9)   H ( 10)   H ( 11)
   O (  8)  2.340066
   H (  9)  6.549383  8.505359
   H ( 10)  6.549383  8.505359  8.163664
   H ( 11)  4.112484  4.939023  4.693313  9.423776
   H ( 12)  4.112484  4.939023  9.423776  4.693313  8.180195
 
 A cutoff of  1.0D-14 yielded    188 shell pairs
 There are      1010 function pairs
 Smallest overlap matrix eigenvalue = 1.78E-01

 Scale SEOQF with 1.000000e-01/1.000000e+00/1.000000e-01

 Standard Electronic Orientation quadrupole field applied
 Nucleus-field energy     =    -0.0000000149 hartrees
 Guess from superposition of atomic densities
 Warning:  Energy on first SCF cycle will be non-variational
 SAD guess density has 56.000000 electrons

 -----------------------------------------------------------------------
  General SCF calculation program by
  Eric Jon Sundstrom, Paul Horn, Yuezhi Mao, Dmitri Zuev, Alec White,
  David Stuck, Shaama M.S., Shane Yost, Joonho Lee, David Small,
  Daniel Levine, Susi Lehtola, Hugh Burton, Evgeny Epifanovsky,
  Bang C. Huynh
 -----------------------------------------------------------------------
 Hartree-Fock
 A restricted SCF calculation will be
 performed using DIIS, GDM
 SCF converges when RMS gradient is below 1.0e-08
 ---------------------------------------
  Cycle       Energy         DIIS error
 ---------------------------------------
    1    -374.6037996362      1.78e-01  
    2    -373.9658043378      3.10e-02  
    3    -374.1226326585      2.82e-02  
    4    -374.3244675225      2.62e-03  Done DIIS. Switching to GDM
 ---------------------------------------
  Cycle       Energy        RMS Gradient
 ---------------------------------------
    1    -374.3244675225      1.89e-02   Normal BFGS step
    2    -374.3279301166      1.54e-02   Normal BFGS step
    3    -374.3287320132      4.70e-03   Normal BFGS step
    4    -374.3288489467      1.65e-03   Normal BFGS step
    5    -374.3288648786      6.35e-04   Normal BFGS step
    6    -374.3288670634      2.96e-04   Normal BFGS step
    7    -374.3288672675      3.82e-05   Normal BFGS step
    8    -374.3288672846      2.14e-05   Normal BFGS step
    9    -374.3288672890      5.63e-06   Normal BFGS step
   10    -374.3288672894      4.09e-06   Normal BFGS step
   11    -374.3288672894      9.49e-07   Normal BFGS step
   12    -374.3288672894      1.24e-07   Normal BFGS step
   13    -374.3288672894      3.45e-08   Normal BFGS step
   14    -374.3288672894      6.53e-09  Convergence criterion met
 ---------------------------------------
 SCF time:   CPU 0.58s  wall 1.00s 
 SCF   energy in the final basis set =     -374.3288672894
 Total energy in the final basis set =     -374.3288672894
 mp2 is not implemented in computing transition properties!


 ------------------------------------------------------------------------------

   CCMAN2: suite of methods based on coupled cluster
           and equation of motion theories.

   Components:
   * libvmm-1.3-trunk
     by Evgeny Epifanovsky, Ilya Kaliman.
   * libtensor-2.5-trunk
     by Evgeny Epifanovsky, Michael Wormit, Dmitry Zuev, Sam Manzer, 
        Ilya Kaliman.
   * libcc-2.5-trunk
     by Evgeny Epifanovsky, Arik Landau, Tomasz Kus, Kirill Khistyaev, 
        Dmitry Zuev, Prashant Manohar, Xintian Feng, Anna Krylov, 
        Matthew Goldey, Alec White, Thomas Jagau, Kaushik Nanda, 
        Anastasia Gunina, Alexander Kunitsa, Joonho Lee.

   CCMAN original authors:
   Anna I. Krylov, C. David Sherrill, Steven R. Gwaltney,
   Edward F. C. Byrd (2000)
   Sergey V. Levchenko, Lyudmila V. Slipchenko, Tao Wang,
   Ana-Maria C. Cristian (2003)
   Piotr A. Pieniazek, C. Melania Oana, Evgeny Epifanovsky (2007)
   Prashant Manohar (2009)

 ------------------------------------------------------------------------------


 Allocating and initializing 72000MB of RAM...
 Calculation will run on 1 core.

 
 Alpha MOs, Restricted
 -- Occupied --                  
-20.296 -20.281 -11.139 -11.123 -11.063 -11.063 -11.060 -11.059
  1 A1    2 A1    3 A1    4 A1    1 B1    5 A1    2 B1    6 A1                 
 -1.332  -1.296  -1.090  -0.998  -0.902  -0.808  -0.759  -0.635
  7 A1    8 A1    9 A1    3 B1   10 A1    4 B1   11 A1    5 B1                 
 -0.634  -0.605  -0.573  -0.527  -0.523  -0.506  -0.479  -0.446
 12 A1   13 A1    6 B1   14 A1    1 B2    7 B1   15 A1    2 B2                 
 -0.362  -0.345  -0.339  -0.275
  8 B1    9 B1    1 A2    3 B2                                                 
 -- Virtual --                   
  0.116   0.269   0.323   0.485   0.583   0.604   0.640   0.649
  4 B2    2 A2    5 B2    6 B2   16 A1   10 B1   17 A1   18 A1                 
  0.718   0.735   0.821   0.873   0.895   0.923   1.037   1.128
 11 B1   19 A1   12 B1   13 B1   20 A1   21 A1   14 B1   22 A1                 
 
 Beta MOs, Restricted
 -- Occupied --                  
-20.296 -20.281 -11.139 -11.123 -11.063 -11.063 -11.060 -11.059
  1 A1    2 A1    3 A1    4 A1    1 B1    5 A1    2 B1    6 A1                 
 -1.332  -1.296  -1.090  -0.998  -0.902  -0.808  -0.759  -0.635
  7 A1    8 A1    9 A1    3 B1   10 A1    4 B1   11 A1    5 B1                 
 -0.634  -0.605  -0.573  -0.527  -0.523  -0.506  -0.479  -0.446
 12 A1   13 A1    6 B1   14 A1    1 B2    7 B1   15 A1    2 B2                 
 -0.362  -0.345  -0.339  -0.275
  8 B1    9 B1    1 A2    3 B2                                                 
 -- Virtual --                   
  0.116   0.269   0.323   0.485   0.583   0.604   0.640   0.649
  4 B2    2 A2    5 B2    6 B2   16 A1   10 B1   17 A1   18 A1                 
  0.718   0.735   0.821   0.873   0.895   0.923   1.037   1.128
 11 B1   19 A1   12 B1   13 B1   20 A1   21 A1   14 B1   22 A1                 

 Occupation and symmetry of molecular orbitals

 Point group: C2v (4 irreducible representations).

                           A1   A2   B1   B2    All 
 ----------------------------------------------------
 All molecular orbitals:
  - Alpha                  22   2    14   6     44  
  - Beta                   22   2    14   6     44  
 ----------------------------------------------------
 Alpha orbitals:
  - Frozen occupied        6    0    2    0     8   
  - Active occupied        9    1    7    3     20  
  - Active virtual         7    1    5    3     16  
  - Frozen virtual         0    0    0    0     0   
 ----------------------------------------------------
 Beta orbitals:
  - Frozen occupied        6    0    2    0     8   
  - Active occupied        9    1    7    3     20  
  - Active virtual         7    1    5    3     16  
  - Frozen virtual         0    0    0    0     0   
 ----------------------------------------------------

 Import integrals:   CPU 0.00 s  wall 0.00 s

 Import integrals:   CPU 0.30 s  wall 0.34 s

 Computing CCSD intermediates for later calculations in double precision
 Finished.

 MP2 amplitudes:   CPU 0.63 s  wall 0.71 s

        Solving for EOMSF-CCSD A1 transitions.

Running a double precision version
       EOMSF-CCSD/MP2 right amplitudes will be solved using Davidson.
        Amplitudes will be solved using standard  algorithm.
     Hard-coded thresholds: 
     LinDepThresh=1.00e-15  NormThresh=1.00e-06  ReorthogonThresh=1.00e-02

      Roots     MaxVec    MaxIter   Precond   Conv      Shift    
      10        120       60        1         1.00e-05  0.00e+00  
 ------------------------------------------------------------------------------
      Iter ConvRoots NVecs ResNorm^2 Current eigenvalues (eV)
 ------------------------------------------------------------------------------
      0    0      20    1.20e-01   3.2887   6.0675   6.9216   12.3090   13.5838   16.0249   16.8669   17.6495   19.7755   21.0487   
      1    0      30    1.81e-02   2.1542   5.0416   5.9676   9.4604   10.4221   12.5574   13.7439   13.9592   15.4814   16.2309   
      2    0      40    8.45e-03   1.8631   4.8476   5.7984   8.7099   9.7986   11.0489   12.1342   12.8476   14.5675   15.1788   
      3    0      50    8.12e-03   1.7922   4.7973   5.7625   8.2159   9.7335   10.0844   10.5543   12.5674   14.4193   14.8149   
      4    0      60    2.68e-03   1.7764   4.7820   5.7522   8.0327   9.6484   9.7634   10.0336   12.4505   13.1638   14.3718   
      5    1      70    1.12e-03   1.7744*  4.7799   5.7501   7.9905   9.5539   9.7375   9.9335   12.3646   12.8165   14.0604   
      6    3      79    3.65e-04   1.7745*  4.7798*  5.7498*  7.9821   9.5330   9.7334   9.9117   12.3369   12.7597   13.8325   
      7    5      86    1.17e-03   1.7745*  4.7798*  5.7498*  7.9805*  9.5295   9.7327*  9.9076   12.3310   12.7494   13.6497   
      8    6      91    7.91e-03   1.7745*  4.7798*  5.7498*  7.9802*  8.5915   9.5286*  9.7326*  9.9067   12.3288   12.7486   
      9    8      95    1.41e-03   1.7745*  4.7798*  5.7498*  6.7803   7.9802*  9.5286*  9.7326*  9.9064*  12.3284*  12.7476   
Found complex roots...
      10   8      97    2.72e-04   1.7745*  4.7798*  5.7498*  6.4903   7.9802*  9.5286*  9.7326*  9.9064*  12.3284*  12.7467   
Found complex roots...
      11   7      99    2.17e-03   1.7745*  4.7798*  5.7498*  6.4265   7.9802*  9.5286*  9.7326*  9.9064*  12.3282   12.7144   
      12   8      102   2.63e-03   1.7745*  4.7798*  5.7498*  6.4086   7.9802*  9.5286*  9.7325*  9.9064*  11.1080   12.3285*  
      13   8      104   9.79e-04   1.7745*  4.7798*  5.7498*  6.4032   7.9802*  9.5285*  9.7326*  9.9064*  10.3394   12.3284*  
      14   8      106   2.97e-04   1.7745*  4.7798*  5.7498*  6.4019   7.9802*  9.5285*  9.7326*  9.9063*  10.0725   12.3284*  
      15   9      108   9.83e-05   1.7745*  4.7798*  5.7498*  6.4017*  7.9802*  9.5285*  9.7326*  9.9062*  9.9958   12.3284*  
      16   9      109   3.59e-05   1.7745*  4.7798*  5.7498*  6.4017*  7.9802*  9.5286*  9.7326*  9.9062*  9.9697   12.3284*  
      17   9      110   1.27e-05   1.7745*  4.7798*  5.7498*  6.4016*  7.9802*  9.5286*  9.7326*  9.9062*  9.9608   12.3284*  
      18   9      111   5.46e-06   1.7745*  4.7798*  5.7498*  6.4016*  7.9802*  9.5286*  9.7325*  9.9062*  9.9573   12.3284*  
      19   9      112   3.28e-06   1.7745*  4.7798*  5.7498*  6.4016*  7.9802*  9.5286*  9.7325*  9.9061*  9.9559   12.3284*  
      20   9      113   3.92e-06   1.7745*  4.7798*  5.7498*  6.4017*  7.9802*  9.5286*  9.7325*  9.9061*  9.9548   12.3284*  
      21   8      114   5.59e-03   1.7745*  4.7798*  5.7498*  6.4016*  7.9802*  9.5286*  9.7325*  9.9061*  9.9505   10.8003   
      22   8      116   2.04e-03   1.7745*  4.7798*  5.7498*  6.4016*  7.9802*  9.1514   9.5286*  9.7325*  9.9062*  9.9602   
Found complex roots...
      23   8      118   6.12e-04   1.7745*  4.7798*  5.7498*  6.4016*  7.9802*  8.6297   9.5286*  9.7325*  9.9062*  9.9580   
      24   9      120   2.36e-04   1.7745*  4.7798*  5.7498*  6.4016*  7.9802*  8.4583   9.5286*  9.7325*  9.9062*  9.9575*  
      25   9      11    1.10e-04   1.7745*  4.7798*  5.7498*  6.4016*  7.9802*  8.4057   9.5286*  9.7325*  9.9062*  9.9573*  
      26   9      12    1.01e-04   1.7745*  4.7798*  5.7498*  6.4016*  7.9802*  8.3553   9.5286*  9.7325*  9.9062*  9.9571*  
      27   9      13    5.21e-05   1.7745*  4.7798*  5.7498*  6.4016*  7.9802*  8.3217   9.5286*  9.7325*  9.9061*  9.9569*  
      28   9      14    1.64e-05   1.7745*  4.7798*  5.7498*  6.4016*  7.9802*  8.3091   9.5286*  9.7325*  9.9061*  9.9568*  
      29   9      15    4.69e-06   1.7745*  4.7798*  5.7498*  6.4016*  7.9802*  8.3063   9.5286*  9.7325*  9.9061*  9.9567*  
      30   9      16    1.64e-06   1.7745*  4.7798*  5.7498*  6.4016*  7.9802*  8.3060   9.5286*  9.7325*  9.9061*  9.9567*  
      31   10     17    1.03e-06   1.7745*  4.7798*  5.7498*  6.4016*  7.9802*  8.3059*  9.5286*  9.7325*  9.9061*  9.9567*  

     Davidson procedure converged

 EOMSF transition 1/A1
 Total energy = -374.73529630 a.u.  Excitation energy = 1.7745 eV.
 R1^2 = 0.9160  R2^2 = 0.0840  Res^2 = 1.63e-07
 Conv-d = yes

 Amplitude    Transitions between orbitals
 -0.8920       3 (B2) A                  ->    4 (B2) B                   
  0.2265       1 (A2) A                  ->    2 (A2) B                   
 -0.2043       2 (B2) A                  ->    5 (B2) B                   
  0.1029       1 (B2) A                  ->    6 (B2) B                   

              Summary of significant orbitals:

               Number  Type             Irrep      Energy
               27      Occ  Alpha       1 (A2)     -0.3391
               21      Occ  Alpha       1 (B2)     -0.5232
               24      Occ  Alpha       2 (B2)     -0.4459
               28      Occ  Alpha       3 (B2)     -0.2750
               30      Vir  Beta        2 (A2)      0.2694
               29      Vir  Beta        4 (B2)      0.1156
               31      Vir  Beta        5 (B2)      0.3231
               32      Vir  Beta        6 (B2)      0.4852


 EOMSF transition 2/A1
 Total energy = -374.62485330 a.u.  Excitation energy = 4.7798 eV.
 R1^2 = 0.9294  R2^2 = 0.0706  Res^2 = 8.84e-08
 Conv-d = yes

 Amplitude    Transitions between orbitals
 -0.7120       2 (B2) A                  ->    4 (B2) B                   
 -0.5669       3 (B2) A                  ->    5 (B2) B                   
 -0.2278       1 (B2) A                  ->    5 (B2) B                   
  0.1575       2 (B2) A                  ->    6 (B2) B                   
  0.1279       1 (A2) A                  ->    2 (A2) B                   

              Summary of significant orbitals:

               Number  Type             Irrep      Energy
               27      Occ  Alpha       1 (A2)     -0.3391
               21      Occ  Alpha       1 (B2)     -0.5232
               24      Occ  Alpha       2 (B2)     -0.4459
               28      Occ  Alpha       3 (B2)     -0.2750
               30      Vir  Beta        2 (A2)      0.2694
               29      Vir  Beta        4 (B2)      0.1156
               31      Vir  Beta        5 (B2)      0.3231
               32      Vir  Beta        6 (B2)      0.4852


 EOMSF transition 3/A1
 Total energy = -374.58920614 a.u.  Excitation energy = 5.7498 eV.
 R1^2 = 0.9404  R2^2 = 0.0596  Res^2 = 8.49e-08
 Conv-d = yes

 Amplitude    Transitions between orbitals
  0.7472       1 (A2) A                  ->    2 (A2) B                   
  0.4620       1 (B2) A                  ->    4 (B2) B                   
 -0.3247       3 (B2) A                  ->    6 (B2) B                   
  0.1836       2 (B2) A                  ->    5 (B2) B                   

              Summary of significant orbitals:

               Number  Type             Irrep      Energy
               27      Occ  Alpha       1 (A2)     -0.3391
               21      Occ  Alpha       1 (B2)     -0.5232
               24      Occ  Alpha       2 (B2)     -0.4459
               28      Occ  Alpha       3 (B2)     -0.2750
               30      Vir  Beta        2 (A2)      0.2694
               29      Vir  Beta        4 (B2)      0.1156
               31      Vir  Beta        5 (B2)      0.3231
               32      Vir  Beta        6 (B2)      0.4852


 EOMSF transition 4/A1
 Total energy = -374.56525301 a.u.  Excitation energy = 6.4016 eV.
 R1^2 = 0.0000  R2^2 = 1.0000  Res^2 = 1.11e-06
 Conv-d = yes

 Amplitude    Transitions between orbitals
 -0.8695       8 (B1) A      9 (B1) A    ->    4 (B2) A      4 (B2) B     
  0.8695       9 (B1) A      8 (B1) A    ->    4 (B2) A      4 (B2) B     
  0.8695       8 (B1) A      9 (B1) A    ->    4 (B2) B      4 (B2) A     
 -0.8695       9 (B1) A      8 (B1) A    ->    4 (B2) B      4 (B2) A     
  0.2719       7 (B1) A      8 (B1) A    ->    4 (B2) A      4 (B2) B     
 -0.2719       8 (B1) A      7 (B1) A    ->    4 (B2) A      4 (B2) B     
 -0.2719       7 (B1) A      8 (B1) A    ->    4 (B2) B      4 (B2) A     
  0.2719       8 (B1) A      7 (B1) A    ->    4 (B2) B      4 (B2) A     
  0.2087       8 (B1) A      9 (B1) A    ->    5 (B2) A      5 (B2) B     
 -0.2087       9 (B1) A      8 (B1) A    ->    5 (B2) A      5 (B2) B     
 -0.2087       8 (B1) A      9 (B1) A    ->    5 (B2) B      5 (B2) A     
  0.2087       9 (B1) A      8 (B1) A    ->    5 (B2) B      5 (B2) A     
  0.1571       8 (B1) A      9 (B1) A    ->    4 (B2) A      6 (B2) B     
 -0.1571       9 (B1) A      8 (B1) A    ->    4 (B2) A      6 (B2) B     
 -0.1571       8 (B1) A      9 (B1) A    ->    6 (B2) B      4 (B2) A     
  0.1571       9 (B1) A      8 (B1) A    ->    6 (B2) B      4 (B2) A     
  0.1501       8 (B1) A      9 (B1) A    ->    6 (B2) A      4 (B2) B     
 -0.1501       9 (B1) A      8 (B1) A    ->    6 (B2) A      4 (B2) B     
 -0.1501       8 (B1) A      9 (B1) A    ->    4 (B2) B      6 (B2) A     
  0.1501       9 (B1) A      8 (B1) A    ->    4 (B2) B      6 (B2) A     
  0.1365       5 (B1) A      9 (B1) A    ->    4 (B2) A      4 (B2) B     
 -0.1365       9 (B1) A      5 (B1) A    ->    4 (B2) A      4 (B2) B     
 -0.1365       5 (B1) A      9 (B1) A    ->    4 (B2) B      4 (B2) A     
  0.1365       9 (B1) A      5 (B1) A    ->    4 (B2) B      4 (B2) A     

              Summary of significant orbitals:

               Number  Type             Irrep      Energy
               16      Occ  Alpha       5 (B1)     -0.6345
               22      Occ  Alpha       7 (B1)     -0.5062
               25      Occ  Alpha       8 (B1)     -0.3623
               26      Occ  Alpha       9 (B1)     -0.3447
               29      Vir  Alpha       4 (B2)      0.1156
               31      Vir  Alpha       5 (B2)      0.3231
               32      Vir  Alpha       6 (B2)      0.4852
               29      Vir  Beta        4 (B2)      0.1156
               31      Vir  Beta        5 (B2)      0.3231
               32      Vir  Beta        6 (B2)      0.4852


 EOMSF transition 5/A1
 Total energy = -374.50724340 a.u.  Excitation energy = 7.9802 eV.
 R1^2 = 0.5881  R2^2 = 0.4119  Res^2 = 6.92e-07
 Conv-d = yes

 Amplitude    Transitions between orbitals
 -0.6035       2 (B2) A                  ->    5 (B2) B                   
 -0.2959       1 (B2) A                  ->    4 (B2) B                   
  0.2565       1 (A2) A                  ->    2 (A2) B                   
  0.1868       1 (B2) A                  ->    6 (B2) B                   
  0.1317       3 (B2) A                  ->    6 (B2) B                   
  0.1036       3 (B2) A                  ->    4 (B2) B                   
 -0.3683       2 (B2) A      3 (B2) A    ->    4 (B2) A      4 (B2) B     
  0.3683       3 (B2) A      2 (B2) A    ->    4 (B2) A      4 (B2) B     
  0.3683       2 (B2) A      3 (B2) A    ->    4 (B2) B      4 (B2) A     
 -0.3683       3 (B2) A      2 (B2) A    ->    4 (B2) B      4 (B2) A     
  0.2984       3 (B2) A      3 (B2) B    ->    4 (B2) B      5 (B2) B     
 -0.2984       3 (B2) A      3 (B2) B    ->    5 (B2) B      4 (B2) B     
 -0.2984       3 (B2) B      3 (B2) A    ->    4 (B2) B      5 (B2) B     
  0.2984       3 (B2) B      3 (B2) A    ->    5 (B2) B      4 (B2) B     
  0.1112       1 (B2) A      3 (B2) B    ->    4 (B2) B      5 (B2) B     
 -0.1112       1 (B2) A      3 (B2) B    ->    5 (B2) B      4 (B2) B     
 -0.1112       3 (B2) B      1 (B2) A    ->    4 (B2) B      5 (B2) B     
  0.1112       3 (B2) B      1 (B2) A    ->    5 (B2) B      4 (B2) B     
 -0.1068       2 (B2) A      2 (B2) B    ->    4 (B2) B      5 (B2) B     
  0.1068       2 (B2) A      2 (B2) B    ->    5 (B2) B      4 (B2) B     
  0.1068       2 (B2) B      2 (B2) A    ->    4 (B2) B      5 (B2) B     
 -0.1068       2 (B2) B      2 (B2) A    ->    5 (B2) B      4 (B2) B     
 -0.1029       1 (B2) A      3 (B2) A    ->    5 (B2) A      4 (B2) B     
  0.1029       3 (B2) A      1 (B2) A    ->    5 (B2) A      4 (B2) B     
  0.1029       1 (B2) A      3 (B2) A    ->    4 (B2) B      5 (B2) A     
 -0.1029       3 (B2) A      1 (B2) A    ->    4 (B2) B      5 (B2) A     
  0.1003       2 (B2) A      3 (B2) A    ->    5 (B2) A      5 (B2) B     
 -0.1003       3 (B2) A      2 (B2) A    ->    5 (B2) A      5 (B2) B     
 -0.1003       2 (B2) A      3 (B2) A    ->    5 (B2) B      5 (B2) A     
  0.1003       3 (B2) A      2 (B2) A    ->    5 (B2) B      5 (B2) A     

              Summary of significant orbitals:

               Number  Type             Irrep      Energy
               27      Occ  Alpha       1 (A2)     -0.3391
               21      Occ  Alpha       1 (B2)     -0.5232
               24      Occ  Alpha       2 (B2)     -0.4459
               28      Occ  Alpha       3 (B2)     -0.2750
               24      Occ  Beta        2 (B2)     -0.4459
               28      Occ  Beta        3 (B2)     -0.2750
               29      Vir  Alpha       4 (B2)      0.1156
               31      Vir  Alpha       5 (B2)      0.3231
               30      Vir  Beta        2 (A2)      0.2694
               29      Vir  Beta        4 (B2)      0.1156
               31      Vir  Beta        5 (B2)      0.3231
               32      Vir  Beta        6 (B2)      0.4852


 EOMSF transition 6/A1
 Total energy = -374.49527388 a.u.  Excitation energy = 8.3059 eV.
 R1^2 = 0.0000  R2^2 = 1.0000  Res^2 = 4.24e-06
 Conv-d = yes

 Amplitude    Transitions between orbitals
 -0.4250       1 (A2) A      3 (B2) B    ->    2 (A2) B      4 (B2) B     
  0.4250       1 (A2) A      3 (B2) B    ->    4 (B2) B      2 (A2) B     
  0.4250       3 (B2) B      1 (A2) A    ->    2 (A2) B      4 (B2) B     
 -0.4250       3 (B2) B      1 (A2) A    ->    4 (B2) B      2 (A2) B     
  0.4247       1 (A2) A      3 (B2) A    ->    2 (A2) A      4 (B2) B     
 -0.4247       1 (A2) A      3 (B2) A    ->    4 (B2) B      2 (A2) A     
 -0.4247       3 (B2) A      1 (A2) A    ->    2 (A2) A      4 (B2) B     
  0.4247       3 (B2) A      1 (A2) A    ->    4 (B2) B      2 (A2) A     
 -0.4247       1 (A2) A      3 (B2) A    ->    4 (B2) A      2 (A2) B     
  0.4247       1 (A2) A      3 (B2) A    ->    2 (A2) B      4 (B2) A     
  0.4247       3 (B2) A      1 (A2) A    ->    4 (B2) A      2 (A2) B     
 -0.4247       3 (B2) A      1 (A2) A    ->    2 (A2) B      4 (B2) A     
  0.4247       3 (B2) A      1 (A2) B    ->    2 (A2) B      4 (B2) B     
 -0.4247       3 (B2) A      1 (A2) B    ->    4 (B2) B      2 (A2) B     
 -0.4247       1 (A2) B      3 (B2) A    ->    2 (A2) B      4 (B2) B     
  0.4247       1 (A2) B      3 (B2) A    ->    4 (B2) B      2 (A2) B     
 -0.1482       2 (B2) A      3 (B2) A    ->    5 (B2) A      4 (B2) B     
  0.1482       3 (B2) A      2 (B2) A    ->    5 (B2) A      4 (B2) B     
  0.1482       2 (B2) A      3 (B2) A    ->    4 (B2) B      5 (B2) A     
 -0.1482       3 (B2) A      2 (B2) A    ->    4 (B2) B      5 (B2) A     
  0.1482       3 (B2) A      2 (B2) B    ->    4 (B2) B      5 (B2) B     
 -0.1482       3 (B2) A      2 (B2) B    ->    5 (B2) B      4 (B2) B     
 -0.1482       2 (B2) B      3 (B2) A    ->    4 (B2) B      5 (B2) B     
  0.1482       2 (B2) B      3 (B2) A    ->    5 (B2) B      4 (B2) B     
 -0.1481       2 (B2) A      3 (B2) B    ->    4 (B2) B      5 (B2) B     
  0.1481       2 (B2) A      3 (B2) B    ->    5 (B2) B      4 (B2) B     
  0.1481       3 (B2) B      2 (B2) A    ->    4 (B2) B      5 (B2) B     
 -0.1481       3 (B2) B      2 (B2) A    ->    5 (B2) B      4 (B2) B     
  0.1481       2 (B2) A      3 (B2) A    ->    4 (B2) A      5 (B2) B     
 -0.1481       3 (B2) A      2 (B2) A    ->    4 (B2) A      5 (B2) B     
 -0.1481       2 (B2) A      3 (B2) A    ->    5 (B2) B      4 (B2) A     
  0.1481       3 (B2) A      2 (B2) A    ->    5 (B2) B      4 (B2) A     
  0.1264       2 (B2) A      1 (A2) B    ->    2 (A2) B      5 (B2) B     
 -0.1264       2 (B2) A      1 (A2) B    ->    5 (B2) B      2 (A2) B     
 -0.1264       1 (A2) B      2 (B2) A    ->    2 (A2) B      5 (B2) B     
  0.1264       1 (A2) B      2 (B2) A    ->    5 (B2) B      2 (A2) B     
 -0.1264       1 (A2) A      2 (B2) A    ->    5 (B2) A      2 (A2) B     
  0.1264       1 (A2) A      2 (B2) A    ->    2 (A2) B      5 (B2) A     
  0.1264       2 (B2) A      1 (A2) A    ->    5 (B2) A      2 (A2) B     
 -0.1264       2 (B2) A      1 (A2) A    ->    2 (A2) B      5 (B2) A     
  0.1264       1 (A2) A      2 (B2) A    ->    2 (A2) A      5 (B2) B     
 -0.1264       1 (A2) A      2 (B2) A    ->    5 (B2) B      2 (A2) A     
 -0.1264       2 (B2) A      1 (A2) A    ->    2 (A2) A      5 (B2) B     
  0.1264       2 (B2) A      1 (A2) A    ->    5 (B2) B      2 (A2) A     
 -0.1263       1 (A2) A      2 (B2) B    ->    2 (A2) B      5 (B2) B     
  0.1263       1 (A2) A      2 (B2) B    ->    5 (B2) B      2 (A2) B     
  0.1263       2 (B2) B      1 (A2) A    ->    2 (A2) B      5 (B2) B     
 -0.1263       2 (B2) B      1 (A2) A    ->    5 (B2) B      2 (A2) B     
  0.1093       1 (B2) A      3 (B2) B    ->    4 (B2) B      6 (B2) B     
 -0.1093       1 (B2) A      3 (B2) B    ->    6 (B2) B      4 (B2) B     
 -0.1093       3 (B2) B      1 (B2) A    ->    4 (B2) B      6 (B2) B     
  0.1093       3 (B2) B      1 (B2) A    ->    6 (B2) B      4 (B2) B     
  0.1092       1 (B2) A      3 (B2) A    ->    6 (B2) A      4 (B2) B     
 -0.1092       3 (B2) A      1 (B2) A    ->    6 (B2) A      4 (B2) B     
 -0.1092       1 (B2) A      3 (B2) A    ->    4 (B2) B      6 (B2) A     
  0.1092       3 (B2) A      1 (B2) A    ->    4 (B2) B      6 (B2) A     
 -0.1092       1 (B2) A      3 (B2) A    ->    4 (B2) A      6 (B2) B     
  0.1092       3 (B2) A      1 (B2) A    ->    4 (B2) A      6 (B2) B     
  0.1092       1 (B2) A      3 (B2) A    ->    6 (B2) B      4 (B2) A     
 -0.1092       3 (B2) A      1 (B2) A    ->    6 (B2) B      4 (B2) A     
 -0.1091       3 (B2) A      1 (B2) B    ->    4 (B2) B      6 (B2) B     
  0.1091       3 (B2) A      1 (B2) B    ->    6 (B2) B      4 (B2) B     
  0.1091       1 (B2) B      3 (B2) A    ->    4 (B2) B      6 (B2) B     
 -0.1091       1 (B2) B      3 (B2) A    ->    6 (B2) B      4 (B2) B     

              Summary of significant orbitals:

               Number  Type             Irrep      Energy
               27      Occ  Alpha       1 (A2)     -0.3391
               21      Occ  Alpha       1 (B2)     -0.5232
               24      Occ  Alpha       2 (B2)     -0.4459
               28      Occ  Alpha       3 (B2)     -0.2750
               27      Occ  Beta        1 (A2)     -0.3391
               21      Occ  Beta        1 (B2)     -0.5232
               24      Occ  Beta        2 (B2)     -0.4459
               28      Occ  Beta        3 (B2)     -0.2750
               30      Vir  Alpha       2 (A2)      0.2694
               29      Vir  Alpha       4 (B2)      0.1156
               31      Vir  Alpha       5 (B2)      0.3231
               32      Vir  Alpha       6 (B2)      0.4852
               30      Vir  Beta        2 (A2)      0.2694
               29      Vir  Beta        4 (B2)      0.1156
               31      Vir  Beta        5 (B2)      0.3231
               32      Vir  Beta        6 (B2)      0.4852


 EOMSF transition 7/A1
 Total energy = -374.45034046 a.u.  Excitation energy = 9.5286 eV.
 R1^2 = 0.4073  R2^2 = 0.5927  Res^2 = 2.07e-06
 Conv-d = yes

 Amplitude    Transitions between orbitals
 -0.3155       1 (B2) A                  ->    4 (B2) B                   
  0.2795       1 (B2) A                  ->    5 (B2) B                   
  0.2401       2 (B2) A                  ->    4 (B2) B                   
  0.2345       1 (A2) A                  ->    2 (A2) B                   
 -0.2166       3 (B2) A                  ->    5 (B2) B                   
 -0.1905       2 (B2) A                  ->    6 (B2) B                   
  0.1113       2 (B2) A                  ->    5 (B2) B                   
  0.1069       3 (B2) A                  ->    4 (B2) B                   
  0.3010       1 (B2) A      3 (B2) A    ->    4 (B2) A      4 (B2) B     
 -0.3010       3 (B2) A      1 (B2) A    ->    4 (B2) A      4 (B2) B     
 -0.3010       1 (B2) A      3 (B2) A    ->    4 (B2) B      4 (B2) A     
  0.3010       3 (B2) A      1 (B2) A    ->    4 (B2) B      4 (B2) A     
  0.2031       3 (B2) A      1 (A2) B    ->    2 (A2) B      4 (B2) B     
 -0.2031       3 (B2) A      1 (A2) B    ->    4 (B2) B      2 (A2) B     
 -0.2031       1 (A2) B      3 (B2) A    ->    2 (A2) B      4 (B2) B     
  0.2031       1 (A2) B      3 (B2) A    ->    4 (B2) B      2 (A2) B     
  0.1981       3 (B2) A      3 (B2) B    ->    4 (B2) B      6 (B2) B     
 -0.1981       3 (B2) A      3 (B2) B    ->    6 (B2) B      4 (B2) B     
 -0.1981       3 (B2) B      3 (B2) A    ->    4 (B2) B      6 (B2) B     
  0.1981       3 (B2) B      3 (B2) A    ->    6 (B2) B      4 (B2) B     
  0.1899       1 (A2) A      3 (B2) A    ->    4 (B2) A      2 (A2) B     
 -0.1899       1 (A2) A      3 (B2) A    ->    2 (A2) B      4 (B2) A     
 -0.1899       3 (B2) A      1 (A2) A    ->    4 (B2) A      2 (A2) B     
  0.1899       3 (B2) A      1 (A2) A    ->    2 (A2) B      4 (B2) A     
  0.1782       1 (A2) A      3 (B2) B    ->    2 (A2) B      4 (B2) B     
 -0.1782       1 (A2) A      3 (B2) B    ->    4 (B2) B      2 (A2) B     
 -0.1782       3 (B2) B      1 (A2) A    ->    2 (A2) B      4 (B2) B     
  0.1782       3 (B2) B      1 (A2) A    ->    4 (B2) B      2 (A2) B     
 -0.1677       3 (B2) A      3 (B2) B    ->    4 (B2) B      5 (B2) B     
  0.1677       3 (B2) A      3 (B2) B    ->    5 (B2) B      4 (B2) B     
  0.1677       3 (B2) B      3 (B2) A    ->    4 (B2) B      5 (B2) B     
 -0.1677       3 (B2) B      3 (B2) A    ->    5 (B2) B      4 (B2) B     
  0.1651       1 (A2) A      3 (B2) A    ->    2 (A2) A      4 (B2) B     
 -0.1651       1 (A2) A      3 (B2) A    ->    4 (B2) B      2 (A2) A     
 -0.1651       3 (B2) A      1 (A2) A    ->    2 (A2) A      4 (B2) B     
  0.1651       3 (B2) A      1 (A2) A    ->    4 (B2) B      2 (A2) A     
  0.1650       2 (B2) A      3 (B2) A    ->    4 (B2) A      4 (B2) B     
 -0.1650       3 (B2) A      2 (B2) A    ->    4 (B2) A      4 (B2) B     
 -0.1650       2 (B2) A      3 (B2) A    ->    4 (B2) B      4 (B2) A     
  0.1650       3 (B2) A      2 (B2) A    ->    4 (B2) B      4 (B2) A     
  0.1433       2 (B2) A      3 (B2) A    ->    4 (B2) A      5 (B2) B     
 -0.1433       3 (B2) A      2 (B2) A    ->    4 (B2) A      5 (B2) B     
 -0.1433       2 (B2) A      3 (B2) A    ->    5 (B2) B      4 (B2) A     
  0.1433       3 (B2) A      2 (B2) A    ->    5 (B2) B      4 (B2) A     
 -0.1308       1 (B2) A      2 (B2) A    ->    4 (B2) A      4 (B2) B     
  0.1308       2 (B2) A      1 (B2) A    ->    4 (B2) A      4 (B2) B     
  0.1308       1 (B2) A      2 (B2) A    ->    4 (B2) B      4 (B2) A     
 -0.1308       2 (B2) A      1 (B2) A    ->    4 (B2) B      4 (B2) A     
  0.1170       1 (A2) A      2 (B2) B    ->    2 (A2) B      5 (B2) B     
 -0.1170       1 (A2) A      2 (B2) B    ->    5 (B2) B      2 (A2) B     
 -0.1170       2 (B2) B      1 (A2) A    ->    2 (A2) B      5 (B2) B     
  0.1170       2 (B2) B      1 (A2) A    ->    5 (B2) B      2 (A2) B     
  0.1115       1 (A2) A      2 (B2) A    ->    2 (A2) A      5 (B2) B     
 -0.1115       1 (A2) A      2 (B2) A    ->    5 (B2) B      2 (A2) A     
 -0.1115       2 (B2) A      1 (A2) A    ->    2 (A2) A      5 (B2) B     
  0.1115       2 (B2) A      1 (A2) A    ->    5 (B2) B      2 (A2) A     
  0.1114       2 (B2) A      2 (B2) B    ->    4 (B2) B      5 (B2) B     
 -0.1114       2 (B2) A      2 (B2) B    ->    5 (B2) B      4 (B2) B     
 -0.1114       2 (B2) B      2 (B2) A    ->    4 (B2) B      5 (B2) B     
  0.1114       2 (B2) B      2 (B2) A    ->    5 (B2) B      4 (B2) B     
 -0.1056       2 (B2) A      3 (B2) A    ->    5 (B2) A      5 (B2) B     
  0.1056       3 (B2) A      2 (B2) A    ->    5 (B2) A      5 (B2) B     
  0.1056       2 (B2) A      3 (B2) A    ->    5 (B2) B      5 (B2) A     
 -0.1056       3 (B2) A      2 (B2) A    ->    5 (B2) B      5 (B2) A     
  0.1037       2 (B2) A      3 (B2) A    ->    5 (B2) A      4 (B2) B     
 -0.1037       3 (B2) A      2 (B2) A    ->    5 (B2) A      4 (B2) B     
 -0.1037       2 (B2) A      3 (B2) A    ->    4 (B2) B      5 (B2) A     
  0.1037       3 (B2) A      2 (B2) A    ->    4 (B2) B      5 (B2) A     
 -0.1036       1 (B2) A      3 (B2) B    ->    4 (B2) B      5 (B2) B     
  0.1036       1 (B2) A      3 (B2) B    ->    5 (B2) B      4 (B2) B     
  0.1036       3 (B2) B      1 (B2) A    ->    4 (B2) B      5 (B2) B     
 -0.1036       3 (B2) B      1 (B2) A    ->    5 (B2) B      4 (B2) B     
  0.1023       2 (B2) A      1 (A2) B    ->    2 (A2) B      5 (B2) B     
 -0.1023       2 (B2) A      1 (A2) B    ->    5 (B2) B      2 (A2) B     
 -0.1023       1 (A2) B      2 (B2) A    ->    2 (A2) B      5 (B2) B     
  0.1023       1 (A2) B      2 (B2) A    ->    5 (B2) B      2 (A2) B     

              Summary of significant orbitals:

               Number  Type             Irrep      Energy
               27      Occ  Alpha       1 (A2)     -0.3391
               21      Occ  Alpha       1 (B2)     -0.5232
               24      Occ  Alpha       2 (B2)     -0.4459
               28      Occ  Alpha       3 (B2)     -0.2750
               27      Occ  Beta        1 (A2)     -0.3391
               24      Occ  Beta        2 (B2)     -0.4459
               28      Occ  Beta        3 (B2)     -0.2750
               30      Vir  Alpha       2 (A2)      0.2694
               29      Vir  Alpha       4 (B2)      0.1156
               31      Vir  Alpha       5 (B2)      0.3231
               30      Vir  Beta        2 (A2)      0.2694
               29      Vir  Beta        4 (B2)      0.1156
               31      Vir  Beta        5 (B2)      0.3231
               32      Vir  Beta        6 (B2)      0.4852


 EOMSF transition 8/A1
 Total energy = -374.44284456 a.u.  Excitation energy = 9.7325 eV.
 R1^2 = 0.8234  R2^2 = 0.1766  Res^2 = 8.46e-07
 Conv-d = yes

 Amplitude    Transitions between orbitals
 -0.6998       3 (B2) A                  ->    5 (B2) B                   
  0.5433       2 (B2) A                  ->    4 (B2) B                   
  0.1289       1 (B2) A                  ->    4 (B2) B                   
 -0.0785       1 (A2) A                  ->    2 (A2) B                   

              Summary of significant orbitals:

               Number  Type             Irrep      Energy
               27      Occ  Alpha       1 (A2)     -0.3391
               21      Occ  Alpha       1 (B2)     -0.5232
               24      Occ  Alpha       2 (B2)     -0.4459
               28      Occ  Alpha       3 (B2)     -0.2750
               30      Vir  Beta        2 (A2)      0.2694
               29      Vir  Beta        4 (B2)      0.1156
               31      Vir  Beta        5 (B2)      0.3231


 EOMSF transition 9/A1
 Total energy = -374.43646441 a.u.  Excitation energy = 9.9061 eV.
 R1^2 = 0.5075  R2^2 = 0.4925  Res^2 = 6.75e-07
 Conv-d = yes

 Amplitude    Transitions between orbitals
  0.4433       1 (B2) A                  ->    4 (B2) B                   
 -0.3361       1 (A2) A                  ->    2 (A2) B                   
  0.2449       1 (B2) A                  ->    5 (B2) B                   
 -0.1985       2 (B2) A                  ->    6 (B2) B                   
 -0.1958       3 (B2) A                  ->    4 (B2) B                   
 -0.1662       2 (B2) A                  ->    4 (B2) B                   
  0.1445       3 (B2) A                  ->    5 (B2) B                   
  0.2120       1 (B2) A      3 (B2) A    ->    4 (B2) A      4 (B2) B     
 -0.2120       3 (B2) A      1 (B2) A    ->    4 (B2) A      4 (B2) B     
 -0.2120       1 (B2) A      3 (B2) A    ->    4 (B2) B      4 (B2) A     
  0.2120       3 (B2) A      1 (B2) A    ->    4 (B2) B      4 (B2) A     
 -0.2106       2 (B2) A      3 (B2) A    ->    4 (B2) A      4 (B2) B     
  0.2106       3 (B2) A      2 (B2) A    ->    4 (B2) A      4 (B2) B     
  0.2106       2 (B2) A      3 (B2) A    ->    4 (B2) B      4 (B2) A     
 -0.2106       3 (B2) A      2 (B2) A    ->    4 (B2) B      4 (B2) A     
  0.1746       3 (B2) A      3 (B2) B    ->    4 (B2) B      5 (B2) B     
 -0.1746       3 (B2) A      3 (B2) B    ->    5 (B2) B      4 (B2) B     
 -0.1746       3 (B2) B      3 (B2) A    ->    4 (B2) B      5 (B2) B     
  0.1746       3 (B2) B      3 (B2) A    ->    5 (B2) B      4 (B2) B     
  0.1629       3 (B2) A      3 (B2) B    ->    4 (B2) B      6 (B2) B     
 -0.1629       3 (B2) A      3 (B2) B    ->    6 (B2) B      4 (B2) B     
 -0.1629       3 (B2) B      3 (B2) A    ->    4 (B2) B      6 (B2) B     
  0.1629       3 (B2) B      3 (B2) A    ->    6 (B2) B      4 (B2) B     
  0.1627       1 (A2) A      3 (B2) A    ->    2 (A2) A      4 (B2) B     
 -0.1627       1 (A2) A      3 (B2) A    ->    4 (B2) B      2 (A2) A     
 -0.1627       3 (B2) A      1 (A2) A    ->    2 (A2) A      4 (B2) B     
  0.1627       3 (B2) A      1 (A2) A    ->    4 (B2) B      2 (A2) A     
  0.1613       1 (A2) A      3 (B2) A    ->    4 (B2) A      2 (A2) B     
 -0.1613       1 (A2) A      3 (B2) A    ->    2 (A2) B      4 (B2) A     
 -0.1613       3 (B2) A      1 (A2) A    ->    4 (B2) A      2 (A2) B     
  0.1613       3 (B2) A      1 (A2) A    ->    2 (A2) B      4 (B2) A     
  0.1478       1 (A2) A      3 (B2) B    ->    2 (A2) B      4 (B2) B     
 -0.1478       1 (A2) A      3 (B2) B    ->    4 (B2) B      2 (A2) B     
 -0.1478       3 (B2) B      1 (A2) A    ->    2 (A2) B      4 (B2) B     
  0.1478       3 (B2) B      1 (A2) A    ->    4 (B2) B      2 (A2) B     
  0.1465       3 (B2) A      1 (A2) B    ->    2 (A2) B      4 (B2) B     
 -0.1465       3 (B2) A      1 (A2) B    ->    4 (B2) B      2 (A2) B     
 -0.1465       1 (A2) B      3 (B2) A    ->    2 (A2) B      4 (B2) B     
  0.1465       1 (A2) B      3 (B2) A    ->    4 (B2) B      2 (A2) B     
 -0.1383       2 (B2) A      2 (B2) B    ->    4 (B2) B      5 (B2) B     
  0.1383       2 (B2) A      2 (B2) B    ->    5 (B2) B      4 (B2) B     
  0.1383       2 (B2) B      2 (B2) A    ->    4 (B2) B      5 (B2) B     
 -0.1383       2 (B2) B      2 (B2) A    ->    5 (B2) B      4 (B2) B     
  0.1367       1 (B2) A      2 (B2) A    ->    4 (B2) A      4 (B2) B     
 -0.1367       2 (B2) A      1 (B2) A    ->    4 (B2) A      4 (B2) B     
 -0.1367       1 (B2) A      2 (B2) A    ->    4 (B2) B      4 (B2) A     
  0.1367       2 (B2) A      1 (B2) A    ->    4 (B2) B      4 (B2) A     
  0.1172       1 (A2) A      2 (B2) A    ->    5 (B2) A      2 (A2) B     
 -0.1172       1 (A2) A      2 (B2) A    ->    2 (A2) B      5 (B2) A     
 -0.1172       2 (B2) A      1 (A2) A    ->    5 (B2) A      2 (A2) B     
  0.1172       2 (B2) A      1 (A2) A    ->    2 (A2) B      5 (B2) A     
  0.1159       2 (B2) A      1 (A2) B    ->    2 (A2) B      5 (B2) B     
 -0.1159       2 (B2) A      1 (A2) B    ->    5 (B2) B      2 (A2) B     
 -0.1159       1 (A2) B      2 (B2) A    ->    2 (A2) B      5 (B2) B     
  0.1159       1 (A2) B      2 (B2) A    ->    5 (B2) B      2 (A2) B     
  0.1070       2 (B2) A      3 (B2) A    ->    5 (B2) A      5 (B2) B     
 -0.1070       3 (B2) A      2 (B2) A    ->    5 (B2) A      5 (B2) B     
 -0.1070       2 (B2) A      3 (B2) A    ->    5 (B2) B      5 (B2) A     
  0.1070       3 (B2) A      2 (B2) A    ->    5 (B2) B      5 (B2) A     
  0.1019       1 (A2) A      2 (B2) A    ->    2 (A2) A      5 (B2) B     
 -0.1019       1 (A2) A      2 (B2) A    ->    5 (B2) B      2 (A2) A     
 -0.1019       2 (B2) A      1 (A2) A    ->    2 (A2) A      5 (B2) B     
  0.1019       2 (B2) A      1 (A2) A    ->    5 (B2) B      2 (A2) A     
  0.1006       1 (A2) A      2 (B2) B    ->    2 (A2) B      5 (B2) B     
 -0.1006       1 (A2) A      2 (B2) B    ->    5 (B2) B      2 (A2) B     
 -0.1006       2 (B2) B      1 (A2) A    ->    2 (A2) B      5 (B2) B     
  0.1006       2 (B2) B      1 (A2) A    ->    5 (B2) B      2 (A2) B     

              Summary of significant orbitals:

               Number  Type             Irrep      Energy
               27      Occ  Alpha       1 (A2)     -0.3391
               21      Occ  Alpha       1 (B2)     -0.5232
               24      Occ  Alpha       2 (B2)     -0.4459
               28      Occ  Alpha       3 (B2)     -0.2750
               27      Occ  Beta        1 (A2)     -0.3391
               24      Occ  Beta        2 (B2)     -0.4459
               28      Occ  Beta        3 (B2)     -0.2750
               30      Vir  Alpha       2 (A2)      0.2694
               29      Vir  Alpha       4 (B2)      0.1156
               31      Vir  Alpha       5 (B2)      0.3231
               30      Vir  Beta        2 (A2)      0.2694
               29      Vir  Beta        4 (B2)      0.1156
               31      Vir  Beta        5 (B2)      0.3231
               32      Vir  Beta        6 (B2)      0.4852


 EOMSF transition 10/A1
 Total energy = -374.43460704 a.u.  Excitation energy = 9.9567 eV.
 R1^2 = 0.0030  R2^2 = 0.9970  Res^2 = 3.15e-07
 Conv-d = yes

 Amplitude    Transitions between orbitals
 -0.6240       8 (B1) A      8 (B1) B    ->    4 (B2) B      5 (B2) B     
  0.6240       8 (B1) A      8 (B1) B    ->    5 (B2) B      4 (B2) B     
  0.6240       8 (B1) B      8 (B1) A    ->    4 (B2) B      5 (B2) B     
 -0.6240       8 (B1) B      8 (B1) A    ->    5 (B2) B      4 (B2) B     
  0.6038       9 (B1) A      9 (B1) B    ->    4 (B2) B      5 (B2) B     
 -0.6038       9 (B1) A      9 (B1) B    ->    5 (B2) B      4 (B2) B     
 -0.6038       9 (B1) B      9 (B1) A    ->    4 (B2) B      5 (B2) B     
  0.6038       9 (B1) B      9 (B1) A    ->    5 (B2) B      4 (B2) B     
  0.2058       7 (B1) A      9 (B1) B    ->    4 (B2) B      5 (B2) B     
 -0.2058       7 (B1) A      9 (B1) B    ->    5 (B2) B      4 (B2) B     
 -0.2058       9 (B1) B      7 (B1) A    ->    4 (B2) B      5 (B2) B     
  0.2058       9 (B1) B      7 (B1) A    ->    5 (B2) B      4 (B2) B     
  0.1974       9 (B1) A      7 (B1) B    ->    4 (B2) B      5 (B2) B     
 -0.1974       9 (B1) A      7 (B1) B    ->    5 (B2) B      4 (B2) B     
 -0.1974       7 (B1) B      9 (B1) A    ->    4 (B2) B      5 (B2) B     
  0.1974       7 (B1) B      9 (B1) A    ->    5 (B2) B      4 (B2) B     
 -0.1873       8 (B1) A      8 (B1) B    ->    5 (B2) B      6 (B2) B     
  0.1873       8 (B1) A      8 (B1) B    ->    6 (B2) B      5 (B2) B     
  0.1873       8 (B1) B      8 (B1) A    ->    5 (B2) B      6 (B2) B     
 -0.1873       8 (B1) B      8 (B1) A    ->    6 (B2) B      5 (B2) B     
  0.1710       9 (B1) A      9 (B1) B    ->    5 (B2) B      6 (B2) B     
 -0.1710       9 (B1) A      9 (B1) B    ->    6 (B2) B      5 (B2) B     
 -0.1710       9 (B1) B      9 (B1) A    ->    5 (B2) B      6 (B2) B     
  0.1710       9 (B1) B      9 (B1) A    ->    6 (B2) B      5 (B2) B     
  0.1267       8 (B1) A      9 (B1) A    ->    4 (B2) A      4 (B2) B     
 -0.1267       9 (B1) A      8 (B1) A    ->    4 (B2) A      4 (B2) B     
 -0.1267       8 (B1) A      9 (B1) A    ->    4 (B2) B      4 (B2) A     
  0.1267       9 (B1) A      8 (B1) A    ->    4 (B2) B      4 (B2) A     
 -0.1150       8 (B1) A      9 (B1) B    ->    4 (B2) B      5 (B2) B     
  0.1150       8 (B1) A      9 (B1) B    ->    5 (B2) B      4 (B2) B     
  0.1150       9 (B1) B      8 (B1) A    ->    4 (B2) B      5 (B2) B     
 -0.1150       9 (B1) B      8 (B1) A    ->    5 (B2) B      4 (B2) B     
  0.1099       5 (B1) A      8 (B1) B    ->    4 (B2) B      5 (B2) B     
 -0.1099       5 (B1) A      8 (B1) B    ->    5 (B2) B      4 (B2) B     
 -0.1099       8 (B1) B      5 (B1) A    ->    4 (B2) B      5 (B2) B     
  0.1099       8 (B1) B      5 (B1) A    ->    5 (B2) B      4 (B2) B     
  0.1055       8 (B1) A      5 (B1) B    ->    4 (B2) B      5 (B2) B     
 -0.1055       8 (B1) A      5 (B1) B    ->    5 (B2) B      4 (B2) B     
 -0.1055       5 (B1) B      8 (B1) A    ->    4 (B2) B      5 (B2) B     
  0.1055       5 (B1) B      8 (B1) A    ->    5 (B2) B      4 (B2) B     
 -0.1001       9 (B1) A      8 (B1) B    ->    4 (B2) B      5 (B2) B     
  0.1001       9 (B1) A      8 (B1) B    ->    5 (B2) B      4 (B2) B     
  0.1001       8 (B1) B      9 (B1) A    ->    4 (B2) B      5 (B2) B     
 -0.1001       8 (B1) B      9 (B1) A    ->    5 (B2) B      4 (B2) B     

              Summary of significant orbitals:

               Number  Type             Irrep      Energy
               16      Occ  Alpha       5 (B1)     -0.6345
               22      Occ  Alpha       7 (B1)     -0.5062
               25      Occ  Alpha       8 (B1)     -0.3623
               26      Occ  Alpha       9 (B1)     -0.3447
               16      Occ  Beta        5 (B1)     -0.6345
               22      Occ  Beta        7 (B1)     -0.5062
               25      Occ  Beta        8 (B1)     -0.3623
               26      Occ  Beta        9 (B1)     -0.3447
               29      Vir  Alpha       4 (B2)      0.1156
               29      Vir  Beta        4 (B2)      0.1156
               31      Vir  Beta        5 (B2)      0.3231
               32      Vir  Beta        6 (B2)      0.4852


Running a double precision version
      EOM-CCSD/MP2 left amplitudes will be solved using Davidson.
        Amplitudes will be solved using MOM  algorithm.
     Hard-coded thresholds: 
     LinDepThresh=1.00e-15  NormThresh=1.00e-06  ReorthogonThresh=1.00e-02

      Roots     MaxVec    MaxIter   Precond   Conv      Shift    
      10        120       60        1         1.00e-05  0.00e+00  
 ------------------------------------------------------------------------------
      Iter ConvRoots NVecs ResNorm^2 Current eigenvalues (eV)
 ------------------------------------------------------------------------------
      0    0      10    1.06e-03   1.7745   4.7798   5.7498   6.4016   7.9802   8.3059   9.5286   9.7325   9.9061   9.9567   
      1    1      19    1.51e-04   1.7745   4.7798   5.7498   6.4016   7.9802   8.3056   9.5285   9.7324   9.9061   9.9567*  
      2    2      28    3.14e-05   1.7745   4.7798   5.7498   6.4016*  7.9802   8.3056   9.5286   9.7324   9.9061   9.9567*  
      3    7      36    7.38e-06   1.7745*  4.7798*  5.7498*  6.4016*  7.9802   8.3055*  9.5285*  9.7324   9.9061   9.9567*  
      4    10     39    3.91e-06   1.7745*  4.7798*  5.7498*  6.4016*  7.9802*  8.3055*  9.5285*  9.7324*  9.9061*  9.9567*  

     Davidson procedure converged

 EOMSF-CCSD transition 1/A1
S^2 calculation will be performed in  double precision
 EOMSF-CCSD transition 2/A1
S^2 calculation will be performed in  double precision
 EOMSF-CCSD transition 3/A1
S^2 calculation will be performed in  double precision
 EOMSF-CCSD transition 4/A1
S^2 calculation will be performed in  double precision
 EOMSF-CCSD transition 5/A1
S^2 calculation will be performed in  double precision
 EOMSF-CCSD transition 6/A1
S^2 calculation will be performed in  double precision
 EOMSF-CCSD transition 7/A1
S^2 calculation will be performed in  double precision
 EOMSF-CCSD transition 8/A1
S^2 calculation will be performed in  double precision
 EOMSF-CCSD transition 9/A1
S^2 calculation will be performed in  double precision
 EOMSF-CCSD transition 10/A1
S^2 calculation will be performed in  double precision
 Excited state properties for  EOMSF-CCSD transition 1/A1
 Dipole moment (a.u.): 0.073672 (X 0.000000, Y 0.000000, Z 0.073672)
 R-squared (a.u.): 856.711803 (XX 225.603441, YY 30.208162, ZZ 600.900200)
 Gauge origin (a.u.): (0.000000, 0.000000, 0.000000)
 Angular momentum (a.u.) against gauge origin: 
 (X 0.000000i, Y 0.000000i, Z 0.000000i)
 Traces of the OPDMs: Tr(AA) 27.000000, Tr(BB) 29.000000
 <S^2> = 2.000000

 Excited state properties for  EOMSF-CCSD transition 2/A1
 Dipole moment (a.u.): 0.020053 (X 0.000000, Y 0.000000, Z -0.020053)
 R-squared (a.u.): 857.106465 (XX 226.140232, YY 30.085986, ZZ 600.880246)
 Gauge origin (a.u.): (0.000000, 0.000000, 0.000000)
 Angular momentum (a.u.) against gauge origin: 
 (X 0.000000i, Y 0.000000i, Z 0.000000i)
 Traces of the OPDMs: Tr(AA) 27.000000, Tr(BB) 29.000000
 <S^2> = 2.000000

 Excited state properties for  EOMSF-CCSD transition 3/A1
 Dipole moment (a.u.): 0.065543 (X 0.000000, Y 0.000000, Z -0.065543)
 R-squared (a.u.): 857.907770 (XX 225.904843, YY 29.961930, ZZ 602.040997)
 Gauge origin (a.u.): (0.000000, 0.000000, 0.000000)
 Angular momentum (a.u.) against gauge origin: 
 (X 0.000000i, Y 0.000000i, Z 0.000000i)
 Traces of the OPDMs: Tr(AA) 27.000000, Tr(BB) 29.000000
 <S^2> = 2.000000

 Excited state properties for  EOMSF-CCSD transition 4/A1
 Dipole moment (a.u.): 0.033537 (X 0.000000, Y 0.000000, Z -0.033537)
 R-squared (a.u.): 844.591923 (XX 225.817998, YY 31.897021, ZZ 586.876904)
 Gauge origin (a.u.): (0.000000, 0.000000, 0.000000)
 Angular momentum (a.u.) against gauge origin: 
 (X 0.000000i, Y 0.000000i, Z 0.000000i)
 Traces of the OPDMs: Tr(AA) 27.000000, Tr(BB) 29.000000
 <S^2> = 2.000001

 Excited state properties for  EOMSF-CCSD transition 5/A1
 Dipole moment (a.u.): 0.064027 (X 0.000000, Y 0.000000, Z 0.064027)
 R-squared (a.u.): 856.352138 (XX 225.844311, YY 30.007435, ZZ 600.500392)
 Gauge origin (a.u.): (0.000000, 0.000000, 0.000000)
 Angular momentum (a.u.) against gauge origin: 
 (X 0.000000i, Y 0.000000i, Z 0.000000i)
 Traces of the OPDMs: Tr(AA) 27.000000, Tr(BB) 29.000000
 <S^2> = 2.000000

 Excited state properties for  EOMSF-CCSD transition 6/A1
 Dipole moment (a.u.): 0.083031 (X 0.000000, Y 0.000000, Z 0.083031)
 R-squared (a.u.): 856.852393 (XX 225.495822, YY 29.884025, ZZ 601.472546)
 Gauge origin (a.u.): (0.000000, 0.000000, 0.000000)
 Angular momentum (a.u.) against gauge origin: 
 (X 0.000000i, Y 0.000000i, Z 0.000000i)
 Traces of the OPDMs: Tr(AA) 27.000000, Tr(BB) 29.000000
 <S^2> = 5.999799

 Excited state properties for  EOMSF-CCSD transition 7/A1
 Dipole moment (a.u.): 0.133940 (X 0.000000, Y 0.000000, Z 0.133940)
 R-squared (a.u.): 856.572185 (XX 225.377916, YY 29.948379, ZZ 601.245889)
 Gauge origin (a.u.): (0.000000, 0.000000, 0.000000)
 Angular momentum (a.u.) against gauge origin: 
 (X 0.000000i, Y 0.000000i, Z 0.000000i)
 Traces of the OPDMs: Tr(AA) 27.000000, Tr(BB) 29.000000
 <S^2> = 2.000000

 Excited state properties for  EOMSF-CCSD transition 8/A1
 Dipole moment (a.u.): 0.113038 (X 0.000000, Y 0.000000, Z 0.113038)
 R-squared (a.u.): 856.826839 (XX 225.458805, YY 30.080379, ZZ 601.287654)
 Gauge origin (a.u.): (0.000000, 0.000000, 0.000000)
 Angular momentum (a.u.) against gauge origin: 
 (X 0.000000i, Y 0.000000i, Z 0.000000i)
 Traces of the OPDMs: Tr(AA) 27.000000, Tr(BB) 29.000000
 <S^2> = 2.000000

 Excited state properties for  EOMSF-CCSD transition 9/A1
 Dipole moment (a.u.): 0.056328 (X 0.000000, Y 0.000000, Z -0.056328)
 R-squared (a.u.): 857.343277 (XX 225.262594, YY 29.934202, ZZ 602.146481)
 Gauge origin (a.u.): (0.000000, 0.000000, 0.000000)
 Angular momentum (a.u.) against gauge origin: 
 (X 0.000000i, Y 0.000000i, Z 0.000000i)
 Traces of the OPDMs: Tr(AA) 27.000000, Tr(BB) 29.000000
 <S^2> = 2.000000

 Excited state properties for  EOMSF-CCSD transition 10/A1
 Dipole moment (a.u.): 0.190259 (X 0.000000, Y 0.000000, Z 0.190259)
 R-squared (a.u.): 842.389947 (XX 225.261825, YY 31.831353, ZZ 585.296769)
 Gauge origin (a.u.): (0.000000, 0.000000, 0.000000)
 Angular momentum (a.u.) against gauge origin: 
 (X 0.000000i, Y 0.000000i, Z 0.000000i)
 Traces of the OPDMs: Tr(AA) 27.000000, Tr(BB) 29.000000
 <S^2> = 2.000053

        Solving for EOMSF-CCSD A2 transitions.

Running a double precision version
       EOMSF-CCSD/MP2 right amplitudes will be solved using Davidson.
        Amplitudes will be solved using standard  algorithm.
     Hard-coded thresholds: 
     LinDepThresh=1.00e-15  NormThresh=1.00e-06  ReorthogonThresh=1.00e-02

      Roots     MaxVec    MaxIter   Precond   Conv      Shift    
      3         120       60        1         1.00e-05  0.00e+00  
 ------------------------------------------------------------------------------
      Iter ConvRoots NVecs ResNorm^2 Current eigenvalues (eV)
 ------------------------------------------------------------------------------
      0    0      6     1.36e-01   4.6212   5.4546   11.9535   
      1    0      9     2.05e-02   2.0287   2.6774   8.5266   
      2    0      12    6.97e-03   1.4371   1.9887   7.4347   
      3    0      15    3.48e-03   1.3047   1.8361   6.9699   
      4    0      18    2.58e-03   1.2585   1.7801   6.5626   
      5    0      21    9.84e-04   1.2445   1.7614   6.2677   
      6    0      24    2.15e-04   1.2419   1.7576   6.1851   
      7    2      27    6.86e-05   1.2414*  1.7568*  6.1702   
      8    2      28    6.97e-05   1.2413*  1.7566*  6.1618   
      9    2      29    1.37e-04   1.2413*  1.7566*  6.1497   
      10   2      30    2.19e-04   1.2413*  1.7567*  6.1262   
      11   2      31    1.35e-04   1.2413*  1.7567*  6.1026   
      12   2      32    6.91e-05   1.2413*  1.7567*  6.0910   
      13   2      33    3.37e-05   1.2413*  1.7567*  6.0840   
      14   2      34    1.40e-05   1.2413*  1.7567*  6.0816   
      15   2      35    5.39e-06   1.2413*  1.7567*  6.0808   
      16   3      36    2.84e-06   1.2413*  1.7566*  6.0801*  

     Davidson procedure converged

 EOMSF transition 1/A2
 Total energy = -374.75489178 a.u.  Excitation energy = 1.2413 eV.
 R1^2 = 0.8733  R2^2 = 0.1267  Res^2 = 2.74e-06
 Conv-d = yes

 Amplitude    Transitions between orbitals
 -0.6004       9 (B1) A                  ->    4 (B2) B                   
  0.5917       8 (B1) A                  ->    4 (B2) B                   
 -0.2611       8 (B1) A                  ->    5 (B2) B                   
 -0.1899       7 (B1) A                  ->    4 (B2) B                   
  0.1688       9 (B1) A                  ->    5 (B2) B                   

              Summary of significant orbitals:

               Number  Type             Irrep      Energy
               22      Occ  Alpha       7 (B1)     -0.5062
               25      Occ  Alpha       8 (B1)     -0.3623
               26      Occ  Alpha       9 (B1)     -0.3447
               29      Vir  Beta        4 (B2)      0.1156
               31      Vir  Beta        5 (B2)      0.3231


 EOMSF transition 2/A2
 Total energy = -374.73595308 a.u.  Excitation energy = 1.7566 eV.
 R1^2 = 0.8679  R2^2 = 0.1321  Res^2 = 2.68e-06
 Conv-d = yes

 Amplitude    Transitions between orbitals
 -0.6092       8 (B1) A                  ->    4 (B2) B                   
 -0.5694       9 (B1) A                  ->    4 (B2) B                   
 -0.2627       9 (B1) A                  ->    5 (B2) B                   
 -0.1816       8 (B1) A                  ->    5 (B2) B                   
 -0.1622       7 (B1) A                  ->    4 (B2) B                   
 -0.1163       7 (B1) A                  ->    5 (B2) B                   
  0.1042       5 (B1) A                  ->    4 (B2) B                   

              Summary of significant orbitals:

               Number  Type             Irrep      Energy
               16      Occ  Alpha       5 (B1)     -0.6345
               22      Occ  Alpha       7 (B1)     -0.5062
               25      Occ  Alpha       8 (B1)     -0.3623
               26      Occ  Alpha       9 (B1)     -0.3447
               29      Vir  Beta        4 (B2)      0.1156
               31      Vir  Beta        5 (B2)      0.3231


 EOMSF transition 3/A2
 Total energy = -374.57707077 a.u.  Excitation energy = 6.0801 eV.
 R1^2 = 0.5859  R2^2 = 0.4141  Res^2 = 3.09e-06
 Conv-d = yes

 Amplitude    Transitions between orbitals
 -0.6747       9 (B1) A                  ->    5 (B2) B                   
  0.1951       8 (B1) A                  ->    6 (B2) B                   
 -0.1748       7 (B1) A                  ->    5 (B2) B                   
  0.1490       8 (B1) A                  ->    4 (B2) B                   
 -0.1429       8 (B1) A                  ->    5 (B2) B                   
 -0.4051       9 (B1) A      3 (B2) A    ->    4 (B2) A      4 (B2) B     
  0.4051       9 (B1) A      3 (B2) A    ->    4 (B2) B      4 (B2) A     
  0.4051       3 (B2) A      9 (B1) A    ->    4 (B2) A      4 (B2) B     
 -0.4051       3 (B2) A      9 (B1) A    ->    4 (B2) B      4 (B2) A     
  0.2085       8 (B1) A      2 (B2) A    ->    4 (B2) A      4 (B2) B     
 -0.2085       8 (B1) A      2 (B2) A    ->    4 (B2) B      4 (B2) A     
 -0.2085       2 (B2) A      8 (B1) A    ->    4 (B2) A      4 (B2) B     
  0.2085       2 (B2) A      8 (B1) A    ->    4 (B2) B      4 (B2) A     
  0.1965       8 (B1) A      3 (B2) B    ->    4 (B2) B      5 (B2) B     
 -0.1965       8 (B1) A      3 (B2) B    ->    5 (B2) B      4 (B2) B     
 -0.1965       3 (B2) B      8 (B1) A    ->    4 (B2) B      5 (B2) B     
  0.1965       3 (B2) B      8 (B1) A    ->    5 (B2) B      4 (B2) B     
  0.1111       9 (B1) A      3 (B2) A    ->    5 (B2) A      5 (B2) B     
 -0.1111       9 (B1) A      3 (B2) A    ->    5 (B2) B      5 (B2) A     
 -0.1111       3 (B2) A      9 (B1) A    ->    5 (B2) A      5 (B2) B     
  0.1111       3 (B2) A      9 (B1) A    ->    5 (B2) B      5 (B2) A     
 -0.1030       7 (B1) A      3 (B2) A    ->    4 (B2) A      4 (B2) B     
  0.1030       7 (B1) A      3 (B2) A    ->    4 (B2) B      4 (B2) A     
  0.1030       3 (B2) A      7 (B1) A    ->    4 (B2) A      4 (B2) B     
 -0.1030       3 (B2) A      7 (B1) A    ->    4 (B2) B      4 (B2) A     

              Summary of significant orbitals:

               Number  Type             Irrep      Energy
               22      Occ  Alpha       7 (B1)     -0.5062
               25      Occ  Alpha       8 (B1)     -0.3623
               26      Occ  Alpha       9 (B1)     -0.3447
               24      Occ  Alpha       2 (B2)     -0.4459
               28      Occ  Alpha       3 (B2)     -0.2750
               28      Occ  Beta        3 (B2)     -0.2750
               29      Vir  Alpha       4 (B2)      0.1156
               31      Vir  Alpha       5 (B2)      0.3231
               29      Vir  Beta        4 (B2)      0.1156
               31      Vir  Beta        5 (B2)      0.3231
               32      Vir  Beta        6 (B2)      0.4852


Running a double precision version
      EOM-CCSD/MP2 left amplitudes will be solved using Davidson.
        Amplitudes will be solved using MOM  algorithm.
     Hard-coded thresholds: 
     LinDepThresh=1.00e-15  NormThresh=1.00e-06  ReorthogonThresh=1.00e-02

      Roots     MaxVec    MaxIter   Precond   Conv      Shift    
      3         120       60        1         1.00e-05  0.00e+00  
 ------------------------------------------------------------------------------
      Iter ConvRoots NVecs ResNorm^2 Current eigenvalues (eV)
 ------------------------------------------------------------------------------
      0    0      3     4.30e-03   1.2413   1.7566   6.0801   
      1    0      6     4.79e-04   1.2413   1.7566   6.0801   
      2    0      9     1.28e-04   1.2413   1.7566   6.0801   
      3    0      12    5.74e-05   1.2413   1.7565   6.0800   
      4    2      15    2.01e-05   1.2413*  1.7565*  6.0800   
      5    2      16    5.94e-06   1.2413*  1.7565*  6.0799   
      6    3      17    2.23e-06   1.2413*  1.7565*  6.0799*  

     Davidson procedure converged

 EOMSF-CCSD transition 1/A2
S^2 calculation will be performed in  double precision
 EOMSF-CCSD transition 2/A2
S^2 calculation will be performed in  double precision
 EOMSF-CCSD transition 3/A2
S^2 calculation will be performed in  double precision
 Excited state properties for  EOMSF-CCSD transition 1/A2
 Dipole moment (a.u.): 1.132006 (X 0.000000, Y 0.000000, Z 1.132006)
 R-squared (a.u.): 855.075853 (XX 225.955490, YY 30.935942, ZZ 598.184422)
 Gauge origin (a.u.): (0.000000, 0.000000, 0.000000)
 Angular momentum (a.u.) against gauge origin: 
 (X 0.000000i, Y 0.000000i, Z 0.000000i)
 Traces of the OPDMs: Tr(AA) 27.000000, Tr(BB) 29.000000
 <S^2> = 2.000000
 Density matrix was written to a file for further analysis.

 Excited state properties for  EOMSF-CCSD transition 2/A2
 Dipole moment (a.u.): 1.207138 (X 0.000000, Y 0.000000, Z -1.207138)
 R-squared (a.u.): 854.873276 (XX 225.841178, YY 30.958660, ZZ 598.073438)
 Gauge origin (a.u.): (0.000000, 0.000000, 0.000000)
 Angular momentum (a.u.) against gauge origin: 
 (X 0.000000i, Y 0.000000i, Z 0.000000i)
 Traces of the OPDMs: Tr(AA) 27.000000, Tr(BB) 29.000000
 <S^2> = 2.000000

 Excited state properties for  EOMSF-CCSD transition 3/A2
 Dipole moment (a.u.): 0.796194 (X 0.000000, Y 0.000000, Z -0.796194)
 R-squared (a.u.): 852.002108 (XX 225.710912, YY 30.952286, ZZ 595.338911)
 Gauge origin (a.u.): (0.000000, 0.000000, 0.000000)
 Angular momentum (a.u.) against gauge origin: 
 (X 0.000000i, Y 0.000000i, Z 0.000000i)
 Traces of the OPDMs: Tr(AA) 27.000000, Tr(BB) 29.000000
 <S^2> = 2.000000

        Solving for EOMSF-CCSD B1 transitions.

Running a double precision version
       EOMSF-CCSD/MP2 right amplitudes will be solved using Davidson.
        Amplitudes will be solved using standard  algorithm.
     Hard-coded thresholds: 
     LinDepThresh=1.00e-15  NormThresh=1.00e-06  ReorthogonThresh=1.00e-02

      Roots     MaxVec    MaxIter   Precond   Conv      Shift    
      10        120       60        1         1.00e-05  0.00e+00  
 ------------------------------------------------------------------------------
      Iter ConvRoots NVecs ResNorm^2 Current eigenvalues (eV)
 ------------------------------------------------------------------------------
      0    0      20    1.47e-01   5.3819   11.4262   13.9645   15.5752   16.1739   17.8674   18.3449   19.0677   19.6242   20.0137   
      1    0      30    2.10e-02   4.1205   8.1901   10.9267   12.1765   12.6421   13.9946   14.6133   15.0282   15.3971   15.6558   
      2    0      40    8.10e-03   3.8272   7.7497   9.5140   10.9832   11.4368   12.9538   13.6593   14.4014   14.4818   14.8142   
      3    0      50    6.27e-03   3.7728   7.7058   8.2502   10.1751   11.0671   12.7757   13.4683   13.9687   14.2449   14.3438   
      4    0      60    1.83e-03   3.7643   7.6963   7.8472   9.8995   10.9389   12.7330   12.7766   13.4361   14.1395   14.2995   
      5    1      70    1.60e-03   3.7633*  7.6918   7.7173   9.8451   10.8775   12.1499   12.7356   13.4215   14.0703   14.2683   
      6    2      79    2.12e-03   3.7633*  7.6400   7.6950*  9.8324   10.7907   11.4166   12.7334   13.4170   13.8137   14.1543   
      7    2      87    5.16e-04   3.7633*  7.6201   7.6947*  9.8288   10.6966   11.1987   12.7326   13.4130   13.5592   14.1034   
      8    3      95    1.04e-04   3.7633*  7.6169   7.6946*  9.8277*  10.6684   11.1631   12.7325   13.4091   13.5039   14.0963   
      9    4      102   3.11e-05   3.7633*  7.6165*  7.6946*  9.8276*  10.6629   11.1550   12.7327   13.4077   13.4912   14.0936   
      10   5      108   1.68e-03   3.7633*  7.6165*  7.6946*  9.8275*  10.6618*  11.1534   12.7324   13.4026   13.4873   13.6003   
      11   6      113   4.71e-03   3.7633*  7.6165*  7.6946*  9.8275*  10.6614*  11.1532*  12.7315   12.9004   13.3506   13.4196   
      12   6      117   2.25e-03   3.7633*  7.6165*  7.6946*  9.8275*  10.6614*  11.1531*  11.7711   12.7328   12.9049   13.4095   
Found complex roots...
      13   7      120   9.81e-04   3.7633*  7.6165*  7.6946*  9.8275*  10.6614*  11.1531*  11.3451   12.7336   12.7336   13.4088*  
Vector=8 Small norm=0.0000!
Root= 8 Small norm=0.0000!
      14   7      12    4.47e-02   0.1270   3.7633*  7.6165*  7.6946*  9.8275*  10.6614*  11.1531*  11.2635   13.4086*  25.2570   
      15   7      15    2.08e-02   0.0165   3.7633*  7.6165*  7.6947*  9.8275*  10.6614*  11.1531*  11.2251   13.4086*  19.8671   
      16   7      18    2.58e-03   0.0021   3.7633*  7.6165*  7.6947*  9.8275*  10.6614*  11.1531*  11.2092   13.4082*  14.2887   
      17   6      21    1.09e-03   0.0003   3.7633*  7.6165*  7.6947*  9.8275*  10.6614*  11.1531*  11.2019   13.4092   13.4981   
      18   8      25    1.23e-03   0.0000*  3.7633*  7.6165*  7.6947*  9.8275*  10.6614*  11.1531*  11.1985   13.0301   13.4088*  
      19   8      27    1.30e-03   0.0000*  3.7633*  7.6165*  7.6947*  9.8275*  10.6614*  11.1531*  11.1959   12.3865   13.4086*  
      20   8      29    7.38e-04   0.0000*  3.7633*  7.6165*  7.6947*  9.8275*  10.6613*  11.1531*  11.1943   11.9505   13.4083*  
      21   7      31    3.39e-04   0.0000*  3.7633*  7.6165*  7.6947*  9.8275*  10.6613*  11.1531*  11.1928   11.7177   13.4075   
      22   7      34    7.12e-04   0.0000*  3.7633*  7.6165*  7.6946*  9.8275*  10.6614*  11.1531*  11.1921   11.6164   13.1658   
      23   7      37    4.95e-04   0.0000*  3.7633*  7.6165*  7.6947*  9.8275*  10.6613*  11.1531*  11.1915   11.5573   12.9517   
      24   8      40    2.39e-04   0.0000*  3.7633*  7.6165*  7.6946*  9.8275*  10.6613*  11.1531*  11.1913*  11.5292   12.8266   
      25   8      42    1.19e-04   0.0000*  3.7633*  7.6165*  7.6947*  9.8275*  10.6613*  11.1531*  11.1912*  11.5185   12.7761   
      26   8      44    6.63e-05   0.0000*  3.7633*  7.6165*  7.6947*  9.8275*  10.6613*  11.1531*  11.1911*  11.5143   12.7497   
      27   8      46    4.92e-05   0.0000*  3.7633*  7.6165*  7.6946*  9.8275*  10.6613*  11.1531*  11.1911*  11.5126   12.7402   
      28   8      48    4.05e-05   0.0000*  3.7633*  7.6165*  7.6946*  9.8275*  10.6613*  11.1531*  11.1911*  11.5121   12.7346   
      29   8      50    3.85e-05   0.0000*  3.7633*  7.6165*  7.6946*  9.8275*  10.6613*  11.1531*  11.1911*  11.5119   12.7329   
      30   8      52    7.56e-05   0.0000*  3.7633*  7.6165*  7.6946*  9.8275*  10.6613*  11.1531*  11.1911*  11.5118   12.7323   
      31   8      54    2.06e-03   0.0000*  3.7633*  7.6165*  7.6946*  9.8275*  10.6613*  11.1531*  11.1911*  11.5113   11.9151   
      32   8      56    8.13e-04   0.0000*  3.7633*  7.6165*  7.6946*  9.8275*  10.6613*  11.1531*  11.1911*  11.2869   11.5127   
      33   8      58    2.90e-04   0.0000*  3.7633*  7.6165*  7.6946*  9.8275*  10.6613*  11.0629   11.1531*  11.1911*  11.5122   
      34   8      60    1.26e-04   0.0000*  3.7633*  7.6165*  7.6946*  9.8275*  10.6613*  10.9933   11.1531*  11.1911*  11.5121   
      35   8      62    6.92e-05   0.0000*  3.7633*  7.6165*  7.6946*  9.8275*  10.6613*  10.9651   11.1531*  11.1911*  11.5121   
      36   8      64    4.58e-05   0.0000*  3.7633*  7.6165*  7.6946*  9.8275*  10.6613*  10.9555   11.1531*  11.1911*  11.5120   
      37   8      66    3.82e-05   0.0000*  3.7633*  7.6165*  7.6946*  9.8275*  10.6613*  10.9523   11.1531*  11.1911*  11.5119   
      38   8      68    3.60e-05   0.0000*  3.7633*  7.6165*  7.6946*  9.8275*  10.6613*  10.9513   11.1531*  11.1911*  11.5119   
      39   9      70    3.51e-05   0.0000*  3.7633*  7.6165*  7.6946*  9.8275*  10.6613*  10.9509*  11.1531*  11.1911*  11.5119   
      40   9      71    3.50e-05   0.0000*  3.7633*  7.6165*  7.6946*  9.8275*  10.6613*  10.9508*  11.1531*  11.1911*  11.5119   
      41   9      72    3.49e-05   0.0000*  3.7633*  7.6165*  7.6946*  9.8275*  10.6613*  10.9508*  11.1531*  11.1911*  11.5119   
      42   9      73    3.49e-05   0.0000*  3.7633*  7.6165*  7.6946*  9.8275*  10.6613*  10.9508*  11.1531*  11.1911*  11.5119   
      43   9      74    3.49e-05   0.0000*  3.7633*  7.6165*  7.6946*  9.8275*  10.6613*  10.9508*  11.1531*  11.1911*  11.5119   
      44   9      75    3.49e-05   0.0000*  3.7633*  7.6165*  7.6946*  9.8275*  10.6613*  10.9508*  11.1531*  11.1911*  11.5119   
      45   9      75    3.49e-05   0.0000*  3.7633*  7.6165*  7.6946*  9.8275*  10.6613*  10.9508*  11.1531*  11.1911*  11.5119   
      46   9      75    3.49e-05   0.0000*  3.7633*  7.6165*  7.6946*  9.8275*  10.6613*  10.9508*  11.1531*  11.1911*  11.5119   
      47   9      75    3.49e-05   0.0000*  3.7633*  7.6165*  7.6946*  9.8275*  10.6613*  10.9508*  11.1531*  11.1911*  11.5119   
      48   9      75    3.49e-05   0.0000*  3.7633*  7.6165*  7.6946*  9.8275*  10.6613*  10.9508*  11.1531*  11.1911*  11.5119   
      49   9      75    3.49e-05   0.0000*  3.7633*  7.6165*  7.6946*  9.8275*  10.6613*  10.9508*  11.1531*  11.1911*  11.5119   
      50   9      75    3.49e-05   0.0000*  3.7633*  7.6165*  7.6946*  9.8275*  10.6613*  10.9508*  11.1531*  11.1911*  11.5119   
      51   9      75    3.49e-05   0.0000*  3.7633*  7.6165*  7.6946*  9.8275*  10.6613*  10.9508*  11.1531*  11.1911*  11.5119   
      52   9      75    3.49e-05   0.0000*  3.7633*  7.6165*  7.6946*  9.8275*  10.6613*  10.9508*  11.1531*  11.1911*  11.5119   
      53   9      75    3.49e-05   0.0000*  3.7633*  7.6165*  7.6946*  9.8275*  10.6613*  10.9508*  11.1531*  11.1911*  11.5119   
      54   9      75    3.49e-05   0.0000*  3.7633*  7.6165*  7.6946*  9.8275*  10.6613*  10.9508*  11.1531*  11.1911*  11.5119   
      55   9      75    3.49e-05   0.0000*  3.7633*  7.6165*  7.6946*  9.8275*  10.6613*  10.9508*  11.1531*  11.1911*  11.5119   
[...]
 Norm of one-particle transition density matrix:
   A->B: 0.649589;   B->A: 0.634457
   ||gamma^AB||*||gamma^BA||: 0.412136

 ______________________________________________________________
 A(Ket)->B(Bra) transition SO matrices
Full 2e SOC is not implemented withing libqints. 
I will do mean-field SOC with libqints, which is usually as good as full 2e SOC
 Analysing Sz ans S^2 of the pair of states...
 Ket state:  Computed S^2 = 2.000000 will be treated as 2.000000 Sz = -1.000000
 Bra state:  Computed S^2 = 2.000002 will be treated as 2.000000 Sz = -1.000000
 Clebsh-Gordan coefficient: <1.000,-1.000;1.000,0.000|1.000,-1.000> = -0.707
 _________________________________________________
 One-electron SO (cm-1)
 Reduced matrix elements:
 <S|| Hso(L-) ||S'> = (-10.725994,-0.000000)
 <S|| Hso(L0) ||S'> = (0.000000,0.000000)
 <S|| Hso(L+) ||S'> = (-10.725994,0.000000)
 SOCC = 15.168846
 Actual matrix elements:
       |Sz=-1.00>           |Sz=0.00>           |Sz=1.00>
 <Sz=-1.00|(0.000000,-0.000000)(-7.584423,0.000000)(-0.000000,0.000000)
 <Sz=0.00|(7.584423,0.000000)(0.000000,-0.000000)(-7.584423,0.000000)
 <Sz=1.00|(-0.000000,0.000000)(7.584423,0.000000)(0.000000,0.000000)
 _________________________________________________
 Mean-field SO (cm-1)
 Reduced matrix elements:
 <S|| Hso(L-) ||S'> = (-6.348540,-0.000000)
 <S|| Hso(L0) ||S'> = (0.000000,0.000000)
 <S|| Hso(L+) ||S'> = (-6.348540,0.000000)
 SOCC = 8.978191
 Actual matrix elements:
       |Sz=-1.00>           |Sz=0.00>           |Sz=1.00>
 <Sz=-1.00|(0.000000,-0.000000)(-4.489096,0.000000)(-0.000000,0.000000)
 <Sz=0.00|(4.489096,0.000000)(0.000000,-0.000000)(-4.489096,0.000000)
 <Sz=1.00|(-0.000000,0.000000)(4.489096,0.000000)(0.000000,0.000000)
 Singlet part of <S|| Hso(L0) ||S'> = (-0.000000,-0.000000) (excluded from all matrix elements)
 L-/L+ Averaged reduced matrix elements:
 <S|| Hso(L-) ||S'> = (-6.348540,-0.000000)
 <S|| Hso(L+) ||S'> = (-6.348540,0.000000)
 ______________________________________________________________
 B(Ket)->A(Bra) transition SO matrices
Full 2e SOC is not implemented withing libqints. 
I will do mean-field SOC with libqints, which is usually as good as full 2e SOC
 Analysing Sz ans S^2 of the pair of states...
 Ket state:  Computed S^2 = 2.000002 will be treated as 2.000000 Sz = -1.000000
 Bra state:  Computed S^2 = 2.000000 will be treated as 2.000000 Sz = -1.000000
 Clebsh-Gordan coefficient: <1.000,-1.000;1.000,0.000|1.000,-1.000> = -0.707
 _________________________________________________
 One-electron SO (cm-1)
 Reduced matrix elements:
 <S|| Hso(L-) ||S'> = (9.913991,0.000000)
 <S|| Hso(L0) ||S'> = (0.000000,-0.000000)
 <S|| Hso(L+) ||S'> = (9.913991,-0.000000)
 SOCC = 14.020501
 Actual matrix elements:
       |Sz=-1.00>           |Sz=0.00>           |Sz=1.00>
 <Sz=-1.00|(-0.000000,0.000000)(7.010250,-0.000000)(0.000000,-0.000000)
 <Sz=0.00|(-7.010250,-0.000000)(-0.000000,0.000000)(7.010250,-0.000000)
 <Sz=1.00|(0.000000,-0.000000)(-7.010250,-0.000000)(-0.000000,-0.000000)
 _________________________________________________
 Mean-field SO (cm-1)
 Reduced matrix elements:
 <S|| Hso(L-) ||S'> = (5.852124,0.000000)
 <S|| Hso(L0) ||S'> = (0.000000,-0.000000)
 <S|| Hso(L+) ||S'> = (5.852124,-0.000000)
 SOCC = 8.276153
 Actual matrix elements:
       |Sz=-1.00>           |Sz=0.00>           |Sz=1.00>
 <Sz=-1.00|(-0.000000,0.000000)(4.138077,-0.000000)(0.000000,-0.000000)
 <Sz=0.00|(-4.138077,-0.000000)(-0.000000,-0.000000)(4.138077,-0.000000)
 <Sz=1.00|(0.000000,-0.000000)(-4.138077,-0.000000)(-0.000000,-0.000000)
 Singlet part of <S|| Hso(L0) ||S'> = (-0.000000,-0.000000) (excluded from all matrix elements)
 L-/L+ Averaged reduced matrix elements:
 <S|| Hso(L-) ||S'> = (5.852124,0.000000)
 <S|| Hso(L+) ||S'> = (5.852124,-0.000000)
 ______________________________________________________________
   Arithmetically averaged transition SO matrices
   (The phases shown, Ket and Bra assingment are from A(Ket)->B(Bra))
 _________________________________________________
 One-electron SO (cm-1)
 SOCC = 14.594674
 Actual matrix elements:
       |Sz=-1.00>           |Sz=0.00>           |Sz=1.00>
 <Sz=-1.00|(0.000000,-0.000000)(-7.297337,0.000000)(-0.000000,0.000000)
 <Sz=0.00|(7.297337,0.000000)(0.000000,-0.000000)(-7.297337,0.000000)
 <Sz=1.00|(0.000000,0.000000)(7.297337,0.000000)(0.000000,0.000000)
 _________________________________________________
 Mean-field SO (cm-1)
 SOCC = 8.627172
 Actual matrix elements:
       |Sz=-1.00>           |Sz=0.00>           |Sz=1.00>
 <Sz=-1.00|(0.000000,-0.000000)(-4.313586,0.000000)(-0.000000,0.000000)
 <Sz=0.00|(4.313586,0.000000)(0.000000,0.000000)(-4.313586,0.000000)
 <Sz=1.00|(0.000000,0.000000)(4.313586,0.000000)(0.000000,0.000000)
 ______________________________________________________________

 ------------------------------------------------------------------------------
 State A: eomsf_mp2: 1/A2
 State B: eomsf_mp2: 9/B2
 Energy GAP = 0.351737 a.u. = 9.571252 eV
 Transition dipole moment (a.u.):
   A->B: 0.003296 (X 0.003296, Y 0.000000, Z 0.000000)
   B->A: 0.000467 (X -0.000467, Y 0.000000, Z 0.000000)
 Oscillator strength (a.u.): -0.000000
 Transition angular momentum against gauge origin (a.u.):
   A->B:  (X 0.000000i, Y -0.083407i, Z 0.000000i)
   B->A:  (X 0.000000i, Y 0.040933i, Z 0.000000i)
 Norm of one-particle transition density matrix:
   A->B: 0.244803;   B->A: 0.150202
   ||gamma^AB||*||gamma^BA||: 0.036770

 ______________________________________________________________
 A(Ket)->B(Bra) transition SO matrices
Full 2e SOC is not implemented withing libqints. 
I will do mean-field SOC with libqints, which is usually as good as full 2e SOC
 Analysing Sz ans S^2 of the pair of states...
 Ket state:  Computed S^2 = 2.000000 will be treated as 2.000000 Sz = -1.000000
 Bra state:  Computed S^2 = 1.999996 will be treated as 2.000000 Sz = -1.000000
 Clebsh-Gordan coefficient: <1.000,-1.000;1.000,0.000|1.000,-1.000> = -0.707
 _________________________________________________
 One-electron SO (cm-1)
 Reduced matrix elements:
 <S|| Hso(L-) ||S'> = (-1.284213,0.000000)
 <S|| Hso(L0) ||S'> = (0.000000,0.000000)
 <S|| Hso(L+) ||S'> = (-1.284213,-0.000000)
 SOCC = 1.816152
 Actual matrix elements:
       |Sz=-1.00>           |Sz=0.00>           |Sz=1.00>
 <Sz=-1.00|(0.000000,-0.000000)(-0.908076,-0.000000)(-0.000000,0.000000)
 <Sz=0.00|(0.908076,-0.000000)(0.000000,0.000000)(-0.908076,-0.000000)
 <Sz=1.00|(-0.000000,0.000000)(0.908076,-0.000000)(0.000000,0.000000)
 _________________________________________________
 Mean-field SO (cm-1)
 Reduced matrix elements:
 <S|| Hso(L-) ||S'> = (-0.774981,0.000000)
 <S|| Hso(L0) ||S'> = (0.000000,0.000000)
 <S|| Hso(L+) ||S'> = (-0.774981,-0.000000)
 SOCC = 1.095989
 Actual matrix elements:
       |Sz=-1.00>           |Sz=0.00>           |Sz=1.00>
 <Sz=-1.00|(0.000000,-0.000000)(-0.547994,-0.000000)(-0.000000,0.000000)
 <Sz=0.00|(0.547994,-0.000000)(0.000000,0.000000)(-0.547994,-0.000000)
 <Sz=1.00|(-0.000000,0.000000)(0.547994,-0.000000)(0.000000,0.000000)
 Singlet part of <S|| Hso(L0) ||S'> = (-0.000000,-0.000000) (excluded from all matrix elements)
 L-/L+ Averaged reduced matrix elements:
 <S|| Hso(L-) ||S'> = (-0.774981,0.000000)
 <S|| Hso(L+) ||S'> = (-0.774981,-0.000000)
 ______________________________________________________________
 B(Ket)->A(Bra) transition SO matrices
Full 2e SOC is not implemented withing libqints. 
I will do mean-field SOC with libqints, which is usually as good as full 2e SOC
 Analysing Sz ans S^2 of the pair of states...
 Ket state:  Computed S^2 = 1.999996 will be treated as 2.000000 Sz = -1.000000
 Bra state:  Computed S^2 = 2.000000 will be treated as 2.000000 Sz = -1.000000
 Clebsh-Gordan coefficient: <1.000,-1.000;1.000,0.000|1.000,-1.000> = -0.707
 _________________________________________________
 One-electron SO (cm-1)
 Reduced matrix elements:
 <S|| Hso(L-) ||S'> = (0.216157,-0.000000)
 <S|| Hso(L0) ||S'> = (0.000000,-0.000000)
 <S|| Hso(L+) ||S'> = (0.216157,0.000000)
 SOCC = 0.305692
 Actual matrix elements:
       |Sz=-1.00>           |Sz=0.00>           |Sz=1.00>
 <Sz=-1.00|(-0.000000,0.000000)(0.152846,0.000000)(0.000000,-0.000000)
 <Sz=0.00|(-0.152846,0.000000)(-0.000000,-0.000000)(0.152846,0.000000)
 <Sz=1.00|(0.000000,-0.000000)(-0.152846,0.000000)(-0.000000,-0.000000)
 _________________________________________________
 Mean-field SO (cm-1)
 Reduced matrix elements:
 <S|| Hso(L-) ||S'> = (0.084550,-0.000000)
 <S|| Hso(L0) ||S'> = (0.000000,-0.000000)
 <S|| Hso(L+) ||S'> = (0.084550,0.000000)
 SOCC = 0.119572
 Actual matrix elements:
       |Sz=-1.00>           |Sz=0.00>           |Sz=1.00>
 <Sz=-1.00|(-0.000000,0.000000)(0.059786,0.000000)(0.000000,-0.000000)
 <Sz=0.00|(-0.059786,0.000000)(-0.000000,-0.000000)(0.059786,0.000000)
 <Sz=1.00|(0.000000,-0.000000)(-0.059786,0.000000)(-0.000000,-0.000000)
 Singlet part of <S|| Hso(L0) ||S'> = (-0.000000,-0.000000) (excluded from all matrix elements)
 L-/L+ Averaged reduced matrix elements:
 <S|| Hso(L-) ||S'> = (0.084550,-0.000000)
 <S|| Hso(L+) ||S'> = (0.084550,0.000000)
 ______________________________________________________________
   Arithmetically averaged transition SO matrices
   (The phases shown, Ket and Bra assingment are from A(Ket)->B(Bra))
 _________________________________________________
 One-electron SO (cm-1)
 SOCC = 1.060922
 Actual matrix elements:
       |Sz=-1.00>           |Sz=0.00>           |Sz=1.00>
 <Sz=-1.00|(0.000000,-0.000000)(-0.530461,-0.000000)(-0.000000,0.000000)
 <Sz=0.00|(0.530461,-0.000000)(0.000000,0.000000)(-0.530461,-0.000000)
 <Sz=1.00|(-0.000000,0.000000)(0.530461,-0.000000)(0.000000,0.000000)
 _________________________________________________
 Mean-field SO (cm-1)
 SOCC = 0.607780
 Actual matrix elements:
       |Sz=-1.00>           |Sz=0.00>           |Sz=1.00>
 <Sz=-1.00|(0.000000,-0.000000)(-0.303890,-0.000000)(-0.000000,0.000000)
 <Sz=0.00|(0.303890,-0.000000)(0.000000,0.000000)(-0.303890,-0.000000)
 <Sz=1.00|(-0.000000,0.000000)(0.303890,-0.000000)(0.000000,0.000000)
 ______________________________________________________________

 ------------------------------------------------------------------------------
 State A: eomsf_mp2: 1/A2
 State B: eomsf_mp2: 10/B2
 Energy GAP = 0.354189 a.u. = 9.637980 eV
 Transition dipole moment (a.u.):
   A->B: 0.084214 (X -0.084214, Y 0.000000, Z 0.000000)
   B->A: 0.085679 (X -0.085679, Y 0.000000, Z 0.000000)
 Oscillator strength (a.u.): 0.001704
 Transition angular momentum against gauge origin (a.u.):
   A->B:  (X 0.000000i, Y 0.125628i, Z 0.000000i)
   B->A:  (X 0.000000i, Y -0.119779i, Z 0.000000i)
 Norm of one-particle transition density matrix:
   A->B: 0.406597;   B->A: 0.418521
   ||gamma^AB||*||gamma^BA||: 0.170169

 ______________________________________________________________
 A(Ket)->B(Bra) transition SO matrices
Full 2e SOC is not implemented withing libqints. 
I will do mean-field SOC with libqints, which is usually as good as full 2e SOC
 Analysing Sz ans S^2 of the pair of states...
 Ket state:  Computed S^2 = 2.000000 will be treated as 2.000000 Sz = -1.000000
 Bra state:  Computed S^2 = 1.999815 will be treated as 2.000000 Sz = -1.000000
 Clebsh-Gordan coefficient: <1.000,-1.000;1.000,0.000|1.000,-1.000> = -0.707
 _________________________________________________
 One-electron SO (cm-1)
 Reduced matrix elements:
 <S|| Hso(L-) ||S'> = (0.679017,0.000000)
 <S|| Hso(L0) ||S'> = (0.000000,0.000000)
 <S|| Hso(L+) ||S'> = (0.679017,-0.000000)
 SOCC = 0.960275
 Actual matrix elements:
       |Sz=-1.00>           |Sz=0.00>           |Sz=1.00>
 <Sz=-1.00|(-0.000000,-0.000000)(0.480137,-0.000000)(0.000000,0.000000)
 <Sz=0.00|(-0.480137,-0.000000)(-0.000000,0.000000)(0.480137,-0.000000)
 <Sz=1.00|(0.000000,0.000000)(-0.480137,-0.000000)(-0.000000,0.000000)
 _________________________________________________
 Mean-field SO (cm-1)
 Reduced matrix elements:
 <S|| Hso(L-) ||S'> = (0.534378,0.000000)
 <S|| Hso(L0) ||S'> = (0.000000,0.000000)
 <S|| Hso(L+) ||S'> = (0.534378,-0.000000)
 SOCC = 0.755724
 Actual matrix elements:
       |Sz=-1.00>           |Sz=0.00>           |Sz=1.00>
 <Sz=-1.00|(-0.000000,-0.000000)(0.377862,-0.000000)(0.000000,0.000000)
 <Sz=0.00|(-0.377862,-0.000000)(-0.000000,0.000000)(0.377862,-0.000000)
 <Sz=1.00|(0.000000,0.000000)(-0.377862,-0.000000)(-0.000000,0.000000)
 Singlet part of <S|| Hso(L0) ||S'> = (-0.000000,-0.000000) (excluded from all matrix elements)
 L-/L+ Averaged reduced matrix elements:
 <S|| Hso(L-) ||S'> = (0.534378,0.000000)
 <S|| Hso(L+) ||S'> = (0.534378,-0.000000)
 ______________________________________________________________
 B(Ket)->A(Bra) transition SO matrices
Full 2e SOC is not implemented withing libqints. 
I will do mean-field SOC with libqints, which is usually as good as full 2e SOC
 Analysing Sz ans S^2 of the pair of states...
 Ket state:  Computed S^2 = 1.999815 will be treated as 2.000000 Sz = -1.000000
 Bra state:  Computed S^2 = 2.000000 will be treated as 2.000000 Sz = -1.000000
 Clebsh-Gordan coefficient: <1.000,-1.000;1.000,0.000|1.000,-1.000> = -0.707
 _________________________________________________
 One-electron SO (cm-1)
 Reduced matrix elements:
 <S|| Hso(L-) ||S'> = (-0.627787,-0.000000)
 <S|| Hso(L0) ||S'> = (0.000000,-0.000000)
 <S|| Hso(L+) ||S'> = (-0.627787,0.000000)
 SOCC = 0.887824
 Actual matrix elements:
       |Sz=-1.00>           |Sz=0.00>           |Sz=1.00>
 <Sz=-1.00|(0.000000,0.000000)(-0.443912,0.000000)(-0.000000,-0.000000)
 <Sz=0.00|(0.443912,0.000000)(0.000000,-0.000000)(-0.443912,0.000000)
 <Sz=1.00|(-0.000000,-0.000000)(0.443912,0.000000)(0.000000,-0.000000)
 _________________________________________________
 Mean-field SO (cm-1)
 Reduced matrix elements:
 <S|| Hso(L-) ||S'> = (-0.434593,-0.000000)
 <S|| Hso(L0) ||S'> = (0.000000,-0.000000)
 <S|| Hso(L+) ||S'> = (-0.434593,0.000000)
 SOCC = 0.614608
 Actual matrix elements:
       |Sz=-1.00>           |Sz=0.00>           |Sz=1.00>
 <Sz=-1.00|(0.000000,0.000000)(-0.307304,0.000000)(-0.000000,-0.000000)
 <Sz=0.00|(0.307304,0.000000)(0.000000,-0.000000)(-0.307304,0.000000)
 <Sz=1.00|(-0.000000,-0.000000)(0.307304,0.000000)(0.000000,-0.000000)
 Singlet part of <S|| Hso(L0) ||S'> = (-0.000000,-0.000000) (excluded from all matrix elements)
 L-/L+ Averaged reduced matrix elements:
 <S|| Hso(L-) ||S'> = (-0.434593,-0.000000)
 <S|| Hso(L+) ||S'> = (-0.434593,0.000000)
 ______________________________________________________________
   Arithmetically averaged transition SO matrices
   (The phases shown, Ket and Bra assingment are from A(Ket)->B(Bra))
 _________________________________________________
 One-electron SO (cm-1)
 SOCC = 0.924049
 Actual matrix elements:
       |Sz=-1.00>           |Sz=0.00>           |Sz=1.00>
 <Sz=-1.00|(-0.000000,-0.000000)(0.462025,-0.000000)(0.000000,0.000000)
 <Sz=0.00|(-0.462025,-0.000000)(-0.000000,0.000000)(0.462025,-0.000000)
 <Sz=1.00|(-0.000000,0.000000)(-0.462025,-0.000000)(-0.000000,0.000000)
 _________________________________________________
 Mean-field SO (cm-1)
 SOCC = 0.685166
 Actual matrix elements:
       |Sz=-1.00>           |Sz=0.00>           |Sz=1.00>
 <Sz=-1.00|(-0.000000,-0.000000)(0.342583,-0.000000)(0.000000,0.000000)
 <Sz=0.00|(-0.342583,-0.000000)(-0.000000,0.000000)(0.342583,-0.000000)
 <Sz=1.00|(-0.000000,0.000000)(-0.342583,-0.000000)(-0.000000,0.000000)
 ______________________________________________________________


 All requested transition properties have been computed

 Transition Properties:   CPU 66.64 s  wall 67.28 s

 Total ccman2 time:   CPU 843.64 s  wall 833.05 s

 
 --------------------------------------------------------------
             Orbital Energies (a.u.) and Symmetries
 --------------------------------------------------------------
 
 Alpha MOs, Restricted
 -- Occupied --                  
-20.296 -20.281 -11.139 -11.123 -11.063 -11.063 -11.060 -11.059
  1 A1    2 A1    3 A1    4 A1    1 B1    5 A1    2 B1    6 A1                 
 -1.332  -1.296  -1.090  -0.998  -0.902  -0.808  -0.759  -0.635
  7 A1    8 A1    9 A1    3 B1   10 A1    4 B1   11 A1    5 B1                 
 -0.634  -0.605  -0.573  -0.527  -0.523  -0.506  -0.479  -0.446
 12 A1   13 A1    6 B1   14 A1    1 B2    7 B1   15 A1    2 B2                 
 -0.362  -0.345  -0.339  -0.275
  8 B1    9 B1    1 A2    3 B2                                                 
 -- Virtual --                   
  0.116   0.269   0.323   0.485   0.583   0.604   0.640   0.649
  4 B2    2 A2    5 B2    6 B2   16 A1   10 B1   17 A1   18 A1                 
  0.718   0.735   0.821   0.873   0.895   0.923   1.037   1.128
 11 B1   19 A1   12 B1   13 B1   20 A1   21 A1   14 B1   22 A1                 
 
 Beta MOs, Restricted
 -- Occupied --                  
-20.296 -20.281 -11.139 -11.123 -11.063 -11.063 -11.060 -11.059
  1 A1    2 A1    3 A1    4 A1    1 B1    5 A1    2 B1    6 A1                 
 -1.332  -1.296  -1.090  -0.998  -0.902  -0.808  -0.759  -0.635
  7 A1    8 A1    9 A1    3 B1   10 A1    4 B1   11 A1    5 B1                 
 -0.634  -0.605  -0.573  -0.527  -0.523  -0.506  -0.479  -0.446
 12 A1   13 A1    6 B1   14 A1    1 B2    7 B1   15 A1    2 B2                 
 -0.362  -0.345  -0.339  -0.275
  8 B1    9 B1    1 A2    3 B2                                                 
 -- Virtual --                   
  0.116   0.269   0.323   0.485   0.583   0.604   0.640   0.649
  4 B2    2 A2    5 B2    6 B2   16 A1   10 B1   17 A1   18 A1                 
  0.718   0.735   0.821   0.873   0.895   0.923   1.037   1.128
 11 B1   19 A1   12 B1   13 B1   20 A1   21 A1   14 B1   22 A1                 
 --------------------------------------------------------------
 
          Ground-State Mulliken Net Atomic Charges

     Atom                 Charge (a.u.)
  ----------------------------------------
      1 O                    -0.005899
      2 C                     0.090584
      3 C                    -0.081897
      4 C                    -0.081897
      5 C                    -0.071838
      6 C                    -0.071838
      7 C                     0.144327
      8 O                    -0.224837
      9 H                     0.078304
     10 H                     0.078304
     11 H                     0.073344
     12 H                     0.073344
  ----------------------------------------
  Sum of atomic charges =     0.000000

 -----------------------------------------------------------------
                    Cartesian Multipole Moments
 -----------------------------------------------------------------
    Charge (ESU x 10^10)
                -0.0000
    Dipole Moment (Debye)
         X      -0.0000      Y       0.0000      Z       2.8773
       Tot       2.8773
    Quadrupole Moments (Debye-Ang)
        XX     -37.6163     XY       0.0000     YY     -41.6099
        XZ      -0.0000     YZ      -0.0000     ZZ     -48.4264
    Octopole Moments (Debye-Ang^2)
       XXX       0.0000    XXY       0.0000    XYY      -0.0000
       YYY       0.0000    XXZ       2.3558    XYZ       0.0000
       YYZ      -1.0405    XZZ      -0.0000    YZZ       0.0000
       ZZZ      22.8883
    Hexadecapole Moments (Debye-Ang^3)
      XXXX    -268.1723   XXXY       0.0000   XXYY     -56.5726
      XYYY       0.0000   YYYY     -30.7743   XXXZ       0.0000
      XXYZ       0.0000   XYYZ      -0.0000   YYYZ       0.0000
      XXZZ    -138.2814   XYZZ       0.0000   YYZZ    -105.2193
      XZZZ      -0.0000   YZZZ      -0.0000   ZZZZ    -718.9304
 -----------------------------------------------------------------
 Total job time:  889.19s(wall), 898.91s(cpu) 
 Fri Jan 26 13:28:11 2024

        *************************************************************
        *                                                           *
        *  Thank you very much for using Q-Chem.  Have a nice day.  *
        *                                                           *
        *************************************************************


