                  Welcome to Q-Chem
     A Quantum Leap Into The Future Of Chemistry


 Q-Chem 6.0 (devel), Q-Chem, Inc., Pleasanton, CA (2022)

 E. Epifanovsky,  A. T. B. Gilbert,  Xintian Feng,  Joonho Lee,  Yuezhi Mao,  
 N. Mardirossian,  P. Pokhilko,  A. White,  M. Wormit,  M. P. Coons,  
 A. L. Dempwolff,  Zhengting Gan,  D. Hait,  P. R. Horn,  L. D. Jacobson,  
 I. Kaliman,  J. Kussmann,  A. W. Lange,  Ka Un Lao,  D. S. Levine,  Jie Liu,  
 S. C. McKenzie,  A. F. Morrison,  K. Nanda,  F. Plasser,  D. R. Rehn,  
 M. L. Vidal,  Zhi-Qiang You,  Ying Zhu,  B. Alam,  B. Albrecht,  
 A. Aldossary,  E. Alguire,  J. H. Andersen,  V. Athavale,  D. Barton,  
 K. Begam,  A. Behn,  N. Bellonzi,  Y. A. Bernard,  E. J. Berquist,  
 H. Burton,  A. Carreras,  K. Carter-Fenk,  Romit Chakraborty,  
 Chandrima Chakravarty,  Junhan Chen,  A. D. Chien,  K. D. Closser,  
 V. Cofer-Shabica,  L. Cunha,  S. Dasgupta,  Jia Deng,  M. de Wergifosse,  
 M. Diedenhofen,  Hainam Do,  S. Ehlert,  Po-Tung Fang,  S. Fatehi,  
 Qingguo Feng,  T. Friedhoff,  B. Ganoe,  J. Gayvert,  Qinghui Ge,  
 G. Gidofalvi,  M. Goldey,  J. Gomes,  C. Gonzalez-Espinoza,  S. Gulania,  
 A. Gunina,  J. A. Gyamfi,  M. W. D. Hanson-Heine,  P. H. P. Harbach,  
 A. W. Hauser,  M. F. Herbst,  M. Hernandez Vera,  M. Hodecker,  
 Z. C. Holden,  S. Houck,  Xunkun Huang,  Kerwin Hui,  B. C. Huynh,  
 K. Ikeda,  M. Ivanov,  Hyunjun Ji,  Zuxin Jin,  Hanjie Jiang,  B. Kaduk,  
 S. Kaehler,  R. Kang,  K. Khistyaev,  Jaehoon Kim,  Yongbin Kim,  
 P. Klunzinger,  Z. Koczor-Benda,  Joong Hoon Koh,  D. Kosenkov,  
 Saikiran Kotaru,  L. Koulias,  T. Kowalczyk,  C. M. Krauter,  K. Kue,  
 A. Kunitsa,  T. Kus,  A. Landau,  K. V. Lawler,  D. Lefrancois,  S. Lehtola,  
 Rain Li,  Shaozhi Li,  Yi-Pei Li,  Jiashu Liang,  M. Liebenthal,  
 Hung-Hsuan Lin,  You-Sheng Lin,  Fenglai Liu,  Kuan-Yu Liu,  
 M. Loipersberger,  A. Luenser,  C. Malbon,  A. Manjanath,  P. Manohar,  
 E. Mansoor,  S. F. Manzer,  Shan-Ping Mao,  A. V. Marenich,  T. Markovich,  
 S. Mason,  F. Matz,  S. A. Maurer,  P. F. McLaughlin,  M. F. S. J. Menger,  
 J.-M. Mewes,  S. A. Mewes,  P. Morgante,  Mohammad Mostafanejad,  
 J. W. Mullinax,  K. J. Oosterbaan,  G. Paran,  V. Parravicini,  
 Alexander C. Paul,  Suranjan K. Paul,  F. Pavosevic,  Zheng Pei,  S. Prager,  
 E. I. Proynov,  E. Ramos,  B. Rana,  A. E. Rask,  A. Rettig,  R. M. Richard,  
 F. Rob,  E. Rossomme,  T. Scheele,  M. Scheurer,  M. Schneider,  
 P. E. Schneider,  N. Sergueev,  S. M. Sharada,  Hengyuan Shen,  
 W. Skomorowski,  D. W. Small,  C. J. Stein,  Yingli Su,  Yu-Chuan Su,  
 E. J. Sundstrom,  Zhen Tao,  J. Thirman,  Hung-Yi Tsai,  T. Tsuchimochi,  
 N. M. Tubman,  C. Utku,  S. P. Veccham,  O. Vydrov,  J. Wenzel,  
 Jonathan Wong,  J. Witte,  A. Yamada,  Chou-Hsun Yang,  Kun Yao,  
 S. Yeganeh,  S. R. Yost,  A. Zech,  F. Zeller,  Igor Ying Zhang,  
 Xing Zhang,  Yu Zhang,  D. Zuev,  A. Aspuru-Guzik,  A. T. Bell,  
 N. A. Besley,  K. B. Bravaya,  B. R. Brooks,  D. Casanova,  Jeng-Da Chai,  
 Hsing-Ta Chen,  S. Coriani,  C. J. Cramer,  A. E. DePrince, III,  
 R. A. DiStasio Jr.,  A. Dreuw,  B. D. Dunietz,  T. R. Furlani,  
 W. A. Goddard III,  S. Grimme,  S. Hammes-Schiffer,  T. Head-Gordon,  
 W. J. Hehre,  Chao-Ping Hsu,  T.-C. Jagau,  Yousung Jung,  A. Klamt,  
 Jing Kong,  D. S. Lambrecht,  Xiangyuan Li,  WanZhen Liang,  N. J. Mayhall,  
 C. W. McCurdy,  J. B. Neaton,  T. Neudecker,  C. Ochsenfeld,  
 J. A. Parkhill,  R. Peverati,  V. A. Rassolov,  Haisheng Ren,  Yihan Shao,  
 L. V. Slipchenko,  R. P. Steele,  J. E. Subotnik,  A. J. W. Thom,  
 A. Tkatchenko,  D. G. Truhlar,  T. Van Voorhis,  Fan Wang,  
 T. A. Wesolowski,  K. B. Whaley,  H. L. Woodcock III,  P. M. Zimmerman,  
 S. Faraji,  P. M. W. Gill,  M. Head-Gordon,  J. M. Herbert,  A. I. Krylov

 Contributors to earlier versions of Q-Chem not listed above: 
 R. D. Adamson,  B. Austin,  R. Baer,  J. Baker,  G. J. O. Beran,  
 K. Brandhorst,  S. T. Brown,  E. F. C. Byrd,  Arup K. Chakraborty,  
 G. K. L. Chan,  Chun-Min Chang,  Yunqing Chen,  C.-L. Cheng,  
 Siu Hung Chien,  D. M. Chipman,  D. L. Crittenden,  H. Dachsel,  
 R. J. Doerksen,  A. D. Dutoi,  R. G. Edgar,  J. Fosso-Tande,  
 L. Fusti-Molnar,  D. Ghosh,  A. Ghysels,  A. Golubeva-Zadorozhnaya,  
 J. Gonthier,  M. S. Gordon,  S. R. Gwaltney,  G. Hawkins,  J. E. Herr,  
 A. Heyden,  S. Hirata,  E. G. Hohenstein,  G. Kedziora,  F. J. Keil,  
 C. Kelley,  Jihan Kim,  R. A. King,  R. Z. Khaliullin,  P. P. Korambath,  
 W. Kurlancheek,  A. Laurent,  A. M. Lee,  M. S. Lee,  S. V. Levchenko,  
 Ching Yeh Lin,  D. Liotard,  E. Livshits,  R. C. Lochan,  I. Lotan,  
 L. A. Martinez-Martinez,  P. E. Maslen,  N. Nair,  D. P. O'Neill,  
 D. Neuhauser,  E. Neuscamman,  C. M. Oana,  R. Olivares-Amaya,  R. Olson,  
 T. M. Perrine,  B. Peters,  P. A. Pieniazek,  A. Prociuk,  Y. M. Rhee,  
 J. Ritchie,  M. A. Rohrdanz,  E. Rosta,  N. J. Russ,  H. F. Schaefer III,  
 M. W. Schmidt,  N. E. Schultz,  S. Sharma,  N. Shenvi,  C. D. Sherrill,  
 A. C. Simmonett,  A. Sodt,  T. Stein,  D. Stuck,  K. S. Thanthiriwatte,  
 V. Vanovschi,  L. Vogt,  Tao Wang,  A. Warshel,  M. A. Watson,  
 C. F. Williams,  Q. Wu,  X. Xu,  Jun Yang,  W. Zhang,  Yan Zhao

   Please cite Q-Chem as follows:
  "Software for the frontiers of quantum chemistry:
   An overview of developments in the Q-Chem 5 package"
   J. Chem. Phys. 155, 084801 (2021)
   https://doi.org/10.1063/5.0055522 (open access)

 Q-Chem 6.0.1 for Intel X86 EM64T Linux

 Parts of Q-Chem use Armadillo 9.900.5 (Nocturnal Misbehaviour).
 http://arma.sourceforge.net/

 Q-Chem begins on Fri Jan 26 12:46:01 2024  

 Host: atlas-269
0

     Scratch files written to ./qchem109251//
 Processing $rem in /scratch/abel/SOFTWARE/qchem/config/preferences:
 Processing $rem in /dipc/acebg/.qchemrc:
 Core orbitals will be frozen

 Checking the input file for inconsistencies... 	...done.

--------------------------------------------------------------
User input:
--------------------------------------------------------------
$comment
 RAS-SF CALCULATION
$end

$molecule
 READ benzoquinone.molecule
$end

$rem
!**CALCULATION TYPE***     
JOBTYPE            sp    
!BASIS              def2-TZVP
BASIS             STO-3G

!***SCF REFERENCE***
INPUT_BOHR 	    TRUE
!SKIP_SCFMAN        FALSE
UNRESTRICTED       FALSE
!SCF_GUESS          core
!SCF_GUESS_MIX      FALSE
!SCF_GUESS_ALWAYS   FALSE
MAX_SCF_CYCLES     500
!SCF_CONVERGENCE    10
SCF_ALGORITHM      DIIS_GDM !DIIS,DM,DIIS_DM,GDM,DIIS_GDM,GD

!SYMMETRY           TRUE   !use of symmetry for calculating integrals
!SYM_IGNORE         FALSE  !turn off using symmetry
!SYM_TOL            5      !tolerance for determining point group
!USE_ABELIAN_SUBGROUP      !define to use abelian group

!THRESH             14
!SCF_FINAL_PRINT     1 !0,1,2,3

!****CCSD****
CORRELATION        CCSD
!CC_CONVERGENCE     6
!CC_MAX_ITER        200
CC_PRINT	   2
!CHOLESKY_TOL       3 !Toler. decomposition 2e integrals
CC_REF_PROP  	   1 !one-particle CCSD properties calculation
!CC_REF_PROP_TE	   0 !two-particle CCSD properties calculation
!CC_FNO_THRESH
!CC_BACKEND	   XM !Used to specify the computational back-end of CCMAN2.

!****EOM****
METHOD             EOM-MP2
EE_STATES	   [10, 3, 10, 10]
CC_STATE_TO_OPT    [2, 1]
CC_EOM_PROP        1
CC_EOM_PROP_TE	   1
CC_TRANS_PROP      1
CALC_SOC           TRUE   !calculate SOC for EOM-CC, RAS-CI, ADC, TDDFT/TDA and TDDFT

!****MEMORY****
MEM_TOTAL          90000 !Default 2000 MB
MEM_STATIC         7000  !Default 64 MB
CC_MEMORY          72000

!**Molecular Properties and Analysis **                                                                                          
!POP_MULLIKEN       TRUE   !Run Mulliken population analysis
!LOWDIN_POPULATION  TRUE   !Run Löwdin population analysis
GUI                0       !Checkpoints generation
!STATE_ANALYSIS     TRUE

!**Wave function analysis**
!PLOTS = 0     ! Note: This can be omitted, default is 0
!NTO_PAIRS = 2 ! Note: This can be omitted, default is 2
!GUI 0
!MOLDEN_FORMAT      TRUE
!PRINT_ORBITALS     15
$end

!$plots
!   grid_points 100 100 100
!   grid_range  (-10,10) (-10,10) (-10,10)
!$end

--------------------------------------------------------------
 ----------------------------------------------------------------
             Standard Nuclear Orientation (Bohr)
    I     Atom           X                Y                Z
 ----------------------------------------------------------------
    1      O       0.0000000000    -0.0000000000     5.0873465738
    2      C       0.0000000000    -0.0000000000     2.6403222818
    3      C       2.3453549260    -0.0000000000     1.3021362826
    4      C      -2.3453549260     0.0000000000     1.3021362826
    5      C      -2.3309491506     0.0000000000    -1.2666211182
    6      C       2.3309491506    -0.0000000000    -1.2666211182
    7      C      -0.0000000000     0.0000000000    -2.7415020535
    8      O      -0.0000000000     0.0000000000    -5.0815679785
    9      H       4.0818321701    -0.0000000000     2.3803198434
   10      H      -4.0818321701     0.0000000000     2.3803198434
   11      H       4.0900977079    -0.0000000000    -2.3129858956
   12      H      -4.0900977079     0.0000000000    -2.3129858956
 ----------------------------------------------------------------
 Molecular Point Group                 C2v   NOp =  4
 Largest Abelian Subgroup              C2v   NOp =  4
 Nuclear Repulsion Energy =         323.04806769 hartrees
 There are       29 alpha and       27 beta electrons
 Requested basis set is STO-3G
 There are 20 shells and 44 basis functions
WARNING: MEM_STATIC is adjusted to be 2000 MB!
 Total memory of 90000 MB is distributed as follows: 
   MEM_STATIC is set to 2000 MB
   QALLOC/CCMAN JOB total memory use is  88000 MB
 Warning: actual memory use might exceed 90000 MB

 Total QAlloc Memory Limit  90000 MB
 Mega-Array Size      1956 MB
 MEM_STATIC part      2000 MB


                       Distance Matrix (Bohrs)
             O (  1)   C (  2)   C (  3)   C (  4)   C (  5)   C (  6)
   C (  2)  2.447024
   C (  3)  4.452921  2.700265
   C (  4)  4.452921  2.700265  4.690710
   C (  5)  6.768030  4.549454  5.335385  2.568798
   C (  6)  6.768030  4.549454  2.568798  5.335385  4.661898
   C (  7)  7.828849  5.381824  4.674580  4.674580  2.758369  2.758369
   O (  8) 10.168915  7.721890  6.800909  6.800909  4.470698  4.470698
   H (  9)  4.897892  4.090105  2.043975  6.516994  7.377258  4.045463
   H ( 10)  4.897892  4.090105  6.516994  2.043975  4.045463  7.377258
   H ( 11)  8.455402  6.423719  4.014130  7.381339  6.505745  2.046823
   H ( 12)  8.455402  6.423719  7.381339  4.014130  2.046823  6.505745
             C (  7)   O (  8)   H (  9)   H ( 10)   H ( 11)
   O (  8)  2.340066
   H (  9)  6.549383  8.505359
   H ( 10)  6.549383  8.505359  8.163664
   H ( 11)  4.112484  4.939023  4.693313  9.423776
   H ( 12)  4.112484  4.939023  9.423776  4.693313  8.180195
 
 A cutoff of  1.0D-14 yielded    188 shell pairs
 There are      1010 function pairs
 Smallest overlap matrix eigenvalue = 1.78E-01

 Scale SEOQF with 1.000000e-01/1.000000e+00/1.000000e-01

 Standard Electronic Orientation quadrupole field applied
 Nucleus-field energy     =    -0.0000000149 hartrees
 Guess from superposition of atomic densities
 Warning:  Energy on first SCF cycle will be non-variational
 SAD guess density has 56.000000 electrons

 -----------------------------------------------------------------------
  General SCF calculation program by
  Eric Jon Sundstrom, Paul Horn, Yuezhi Mao, Dmitri Zuev, Alec White,
  David Stuck, Shaama M.S., Shane Yost, Joonho Lee, David Small,
  Daniel Levine, Susi Lehtola, Hugh Burton, Evgeny Epifanovsky,
  Bang C. Huynh
 -----------------------------------------------------------------------
 Hartree-Fock
 Orthonormalizing orbitals
 A restricted open-shell SCF calculation will be
 performed using DIIS, GDM
 SCF converges when RMS gradient is below 1.0e-08
 ---------------------------------------
  Cycle       Energy         DIIS error
 ---------------------------------------
    1    -372.4403894942      2.15e-01  
    2    -369.1167284300      2.77e-01  
    3    -373.6896343012      7.93e-02  
    4    -374.1188979571      1.55e-02  
    5    -374.1475233008      8.28e-03  Done DIIS. Switching to GDM
 ---------------------------------------
  Cycle       Energy        RMS Gradient
 ---------------------------------------
    1    -374.1475233008      7.37e-02   Normal BFGS step
    2    -374.1562732931      3.31e-02   Normal BFGS step
    3    -374.1603997560      1.98e-02   Normal BFGS step
    4    -374.1620731930      2.14e-02   Normal BFGS step
    5    -374.1653993455      4.32e-02   Normal BFGS step
    6    -374.1715223327      4.00e-02   Dog-leg BFGS step
    7    -374.1501426299      2.53e-01  Line search: overstep
    8    -374.1746738249      3.79e-02   Normal BFGS step
    9    -374.1761155248      2.97e-02   Normal BFGS step
   10    -374.1760729813      3.55e-02  Line search: overstep
   11    -374.1771687338      2.15e-02   Normal BFGS step
   12    -374.1776643551      1.54e-02   Normal BFGS step
   13    -374.1778740390      2.56e-03   Normal BFGS step
   14    -374.1778842417      2.93e-03   Normal BFGS step
   15    -374.1778887369      3.13e-04   Normal BFGS step
   16    -374.1778893100      2.46e-04   Normal BFGS step
   17    -374.1778894381      7.28e-05   Normal BFGS step
   18    -374.1778894464      1.74e-05   Normal BFGS step
   19    -374.1778894472      4.10e-06   Normal BFGS step
   20    -374.1778894473      1.03e-06   Normal BFGS step
   21    -374.1778894473      3.99e-07   Normal BFGS step
   22    -374.1778894473      6.43e-08   Normal BFGS step
   23    -374.1778894473      2.47e-08   Normal BFGS step
   24    -374.1778894473      5.85e-09  Convergence criterion met
The disked orbital energies are calculated using alpha and beta Focks
 ---------------------------------------
 SCF time:   CPU 0.80s  wall 2.00s 
<S^2> =          2.000000000
 SCF   energy in the final basis set =     -374.1778894473
 Total energy in the final basis set =     -374.1778894473
 mp2 is not implemented in computing transition properties!


 ------------------------------------------------------------------------------

   CCMAN2: suite of methods based on coupled cluster
           and equation of motion theories.

   Components:
   * libvmm-1.3-trunk
     by Evgeny Epifanovsky, Ilya Kaliman.
   * libtensor-2.5-trunk
     by Evgeny Epifanovsky, Michael Wormit, Dmitry Zuev, Sam Manzer, 
        Ilya Kaliman.
   * libcc-2.5-trunk
     by Evgeny Epifanovsky, Arik Landau, Tomasz Kus, Kirill Khistyaev, 
        Dmitry Zuev, Prashant Manohar, Xintian Feng, Anna Krylov, 
        Matthew Goldey, Alec White, Thomas Jagau, Kaushik Nanda, 
        Anastasia Gunina, Alexander Kunitsa, Joonho Lee.

   CCMAN original authors:
   Anna I. Krylov, C. David Sherrill, Steven R. Gwaltney,
   Edward F. C. Byrd (2000)
   Sergey V. Levchenko, Lyudmila V. Slipchenko, Tao Wang,
   Ana-Maria C. Cristian (2003)
   Piotr A. Pieniazek, C. Melania Oana, Evgeny Epifanovsky (2007)
   Prashant Manohar (2009)

 ------------------------------------------------------------------------------


 Allocating and initializing 72000MB of RAM...
 Calculation will run on 1 core.

 
 Alpha MOs, Restricted
 -- Doubly Occupied --           
-20.250 -20.160 -11.132 -11.132 -11.105 -11.073 -11.073 -11.056
  1 A1    2 A1    1 B1    3 A1    4 A1    2 B1    5 A1    6 A1                 
 -1.277  -1.299  -1.123  -1.045  -0.913  -0.822  -0.784  -0.646
  7 A1    8 A1    9 A1    3 B1   10 A1    4 B1   11 A1   12 A1                 
 -0.639  -0.621  -0.605  -0.502  -0.549  -0.496  -0.455  -0.448
  5 B1   13 A1    6 B1    7 B1    1 B2   14 A1   15 A1    2 B2                 
 -0.360  -0.285  -0.279
  8 B1    9 B1    3 B2                                                         
 -- Singly Occupied (Occupied) --
 -0.404  -0.340
  1 A2    4 B2                                                                 
 -- Virtual --                   
  0.180   0.273   0.445   0.559   0.579   0.634   0.640   0.692
  2 A2    5 B2    6 B2   16 A1   10 B1   17 A1   18 A1   11 B1                 
  0.729   0.814   0.858   0.868   0.954   1.018   1.130
 19 A1   12 B1   13 B1   20 A1   21 A1   14 B1   22 A1                         
 
 Beta MOs, Restricted
 -- Doubly Occupied --           
-20.229 -20.159 -11.126 -11.126 -11.104 -11.068 -11.068 -11.055
  1 A1    2 A1    1 B1    3 A1    4 A1    2 B1    5 A1    6 A1                 
 -1.253  -1.230  -1.079  -0.999  -0.884  -0.803  -0.768  -0.632
  7 A1    8 A1    9 A1    3 B1   10 A1    4 B1   11 A1   12 A1                 
 -0.627  -0.607  -0.594  -0.494  -0.455  -0.468  -0.446  -0.389
  5 B1   13 A1    6 B1    7 B1    1 B2   14 A1   15 A1    2 B2                 
 -0.327  -0.280  -0.157
  8 B1    9 B1    3 B2                                                         
 -- Singly Occupied (Vacant) --  
 -0.040   0.308
  1 A2    4 B2                                                                 
 -- Virtual --                   
  0.298   0.351   0.512   0.570   0.586   0.648   0.653   0.715
  2 A2    5 B2    6 B2   16 A1   10 B1   17 A1   18 A1   11 B1                 
  0.752   0.824   0.869   0.880   0.966   1.026   1.139
 19 A1   12 B1   13 B1   20 A1   21 A1   14 B1   22 A1                         

 Occupation and symmetry of molecular orbitals

 Point group: C2v (4 irreducible representations).

                           A1   A2   B1   B2    All 
 ----------------------------------------------------
 All molecular orbitals:
  - Alpha                  22   2    14   6     44  
  - Beta                   22   2    14   6     44  
 ----------------------------------------------------
 Alpha orbitals:
  - Frozen occupied        6    0    2    0     8   
  - Active occupied        9    1    7    4     21  
  - Active virtual         7    1    5    2     15  
  - Frozen virtual         0    0    0    0     0   
 ----------------------------------------------------
 Beta orbitals:
  - Frozen occupied        6    0    2    0     8   
  - Active occupied        9    0    7    3     19  
  - Active virtual         7    2    5    3     17  
  - Frozen virtual         0    0    0    0     0   
 ----------------------------------------------------

 Import integrals:   CPU 0.00 s  wall 0.00 s

 Molecular orbitals will be canonicalized.
 Import integrals:   CPU 0.27 s  wall 0.36 s

 Computing CCSD intermediates for later calculations in double precision
 Finished.

 MP2 amplitudes:   CPU 0.35 s  wall 0.46 s

        Solving for EOMEE-CCSD A1 transitions.

Running a double precision version
        EOMEE-CCSD/MP2 right amplitudes will be solved using Davidson.
        Amplitudes will be solved using standard  algorithm.
     Hard-coded thresholds: 
     LinDepThresh=1.00e-15  NormThresh=1.00e-06  ReorthogonThresh=1.00e-02

      Roots     MaxVec    MaxIter   Precond   Conv      Shift    
      10        120       60        1         1.00e-05  0.00e+00  
 ------------------------------------------------------------------------------
      Iter ConvRoots NVecs ResNorm^2 Current eigenvalues (eV)
 ------------------------------------------------------------------------------
      0    0      10    1.45e-01   6.3100   9.0571   9.4631   11.1982   13.2101   13.5001   14.2741   15.1270   15.4858   17.1705   
      1    0      20    2.83e-02   3.4049   5.9234   6.6415   8.1665   9.1921   9.6384   10.7113   11.0631   11.2789   13.1791   
      2    0      30    1.25e-02   2.5937   4.8876   5.6427   7.0792   7.2628   8.5541   9.3349   9.4271   10.0159   11.7509   
      3    0      40    8.53e-03   2.3570   4.5008   5.3311   5.9719   6.8065   7.8165   8.5521   9.0260   9.5773   11.0080   
      4    0      50    4.09e-03   2.2847   4.2887   5.2381   5.5358   6.4299   7.3091   8.3414   8.8515   9.3151   9.9046   
      5    0      60    1.72e-03   2.2633   4.2152   5.2109   5.4104   6.2176   7.1989   8.1580   8.7334   9.1315   9.5741   
      6    0      70    1.03e-03   2.2598   4.2014   5.2063   5.3748   6.1197   7.1705   8.0173   8.6763   9.0151   9.4397   
      7    1      80    1.25e-03   2.2591*  4.2002   5.2061   5.3655   6.0885   7.1588   7.9580   8.6623   8.8839   9.2519   
      8    3      89    5.67e-04   2.2590*  4.2000*  5.2060*  5.3634   6.0812   7.1542   7.9378   8.6199   8.6773   9.0383   
Found complex roots...
      9    5      96    2.40e-04   2.2591*  4.1999*  5.2061*  5.3632*  6.0792   7.1527*  7.9310   8.4687   8.6649   8.9961   
      10   7      101   6.20e-05   2.2591*  4.1999*  5.2061*  5.3631*  6.0787*  7.1523*  7.9294   8.4197   8.6641*  8.9837   
      11   8      104   1.57e-05   2.2592*  4.1999*  5.2060*  5.3632*  6.0784*  7.1522*  7.9293*  8.4082   8.6639*  8.9799   
      12   8      106   5.06e-06   2.2592*  4.1999*  5.2060*  5.3632*  6.0783*  7.1520*  7.9295*  8.4051   8.6638*  8.9787   
      13   9      108   6.71e-06   2.2592*  4.1999*  5.2060*  5.3632*  6.0783*  7.1518*  7.9296*  8.4045*  8.6637*  8.9780   
      14   8      109   1.96e-03   2.2592*  4.1999*  5.2060*  5.3632*  6.0783*  7.1515*  7.9298*  8.3415   8.4045   8.6639*  
Found complex roots...
      15   9      111   5.01e-04   2.2592*  4.2000*  5.2061*  5.3632*  6.0782*  7.1516*  7.8522   7.9294*  8.4045*  8.6638*  
      16   9      112   1.31e-04   2.2592*  4.2000*  5.2061*  5.3632*  6.0782*  7.1518*  7.7384   7.9297*  8.4045*  8.6637*  
Found complex roots...
      17   9      113   6.28e-05   2.2592*  4.2000*  5.2061*  5.3632*  6.0782*  7.1519*  7.7026   7.9297*  8.4045*  8.6637*  
      18   9      114   6.51e-05   2.2592*  4.2000*  5.2061*  5.3632*  6.0782*  7.1519*  7.6776   7.9297*  8.4045*  8.6637*  
      19   9      115   9.92e-05   2.2592*  4.2000*  5.2061*  5.3632*  6.0782*  7.1519*  7.6443   7.9297*  8.4045*  8.6637*  
      20   9      116   1.05e-04   2.2592*  4.2000*  5.2061*  5.3632*  6.0782*  7.1518*  7.6017   7.9297*  8.4045*  8.6638*  
      21   8      117   5.00e-04   2.2592*  4.2000*  5.2061*  5.3632*  6.0782*  7.1517*  7.5690   7.9297*  8.4045*  8.4770   
      22   8      119   1.82e-04   2.2592*  4.2000*  5.2061*  5.3632*  6.0782*  7.1518*  7.5535   7.9297*  8.3624   8.4046*  
      23   8      120   9.06e-05   2.2592*  4.2000*  5.2061*  5.3632*  6.0782*  7.1518*  7.5469   7.9297*  8.3184   8.4046*  
      24   8      12    4.64e-05   2.2592*  4.2000*  5.2061*  5.3632*  6.0782*  7.1518*  7.5444   7.9297*  8.3017   8.4045*  
      25   8      14    6.25e-05   2.2592*  4.2000*  5.2061*  5.3632*  6.0782*  7.1518*  7.5416   7.9297*  8.2822   8.4044*  
      26   8      16    6.54e-05   2.2592*  4.2000*  5.2061*  5.3632*  6.0782*  7.1518*  7.5390   7.9297*  8.2590   8.4044*  
      27   8      18    5.21e-05   2.2592*  4.2000*  5.2061*  5.3632*  6.0782*  7.1518*  7.5373   7.9297*  8.2376   8.4044*  
      28   8      20    3.70e-05   2.2592*  4.2000*  5.2061*  5.3632*  6.0782*  7.1518*  7.5364   7.9297*  8.2213   8.4045*  
      29   9      22    2.38e-05   2.2592*  4.2000*  5.2061*  5.3632*  6.0782*  7.1518*  7.5359*  7.9297*  8.2093   8.4045*  
      30   9      23    1.31e-05   2.2592*  4.2000*  5.2061*  5.3632*  6.0782*  7.1518*  7.5356*  7.9297*  8.2020   8.4045*  
      31   9      24    6.31e-06   2.2592*  4.2000*  5.2061*  5.3632*  6.0782*  7.1518*  7.5355*  7.9297*  8.1984   8.4045*  
      32   9      25    2.95e-06   2.2592*  4.2000*  5.2061*  5.3632*  6.0782*  7.1518*  7.5355*  7.9297*  8.1970   8.4045*  
      33   10     26    1.68e-06   2.2592*  4.2000*  5.2061*  5.3632*  6.0782*  7.1518*  7.5355*  7.9297*  8.1964*  8.4045*  

     Davidson procedure converged

 EOMEE transition 1/A1
 Total energy = -374.52424944 a.u.  Excitation energy = 2.2592 eV.
 R0^2 = 0.2389  R1^2 = 0.7822  R2^2 = 0.2178  Res^2 = 2.26e-07
 Conv-d = yes

 Amplitude    Transitions between orbitals
  0.7306       3 (B2) B                  ->    4 (B2) B                   
  0.4292       4 (B2) A                  ->    5 (B2) A                   
 -0.1152       2 (B2) A                  ->    5 (B2) A                   
  0.1113       1 (A2) A                  ->    2 (A2) A                   
  0.1062       1 (B2) B                  ->    4 (B2) B                   

              Summary of significant orbitals:

               Number  Type             Irrep      Energy
               26      Occ  Alpha       1 (A2)     -0.4038
               19      Occ  Alpha       2 (B2)     -0.4974
               27      Occ  Alpha       4 (B2)     -0.1662
               20      Occ  Beta        1 (B2)     -0.4584
               27      Occ  Beta        3 (B2)     -0.1564
               33      Vir  Alpha       2 (A2)      0.1800
               35      Vir  Alpha       5 (B2)      0.2721
               35      Vir  Beta        4 (B2)      0.2258


 EOMEE transition 2/A1
 Total energy = -374.45292496 a.u.  Excitation energy = 4.2000 eV.
 R0^2 = 0.1361  R1^2 = 0.4826  R2^2 = 0.5174  Res^2 = 6.00e-07
 Conv-d = yes

 Amplitude    Transitions between orbitals
 -0.3977       1 (A2) A                  ->    2 (A2) A                   
  0.3356       4 (B2) A                  ->    5 (B2) A                   
  0.3014       4 (B2) A                  ->    6 (B2) A                   
  0.2045       3 (B2) B                  ->    5 (B2) B                   
 -0.2041       3 (B2) B                  ->    4 (B2) B                   
 -0.1240       2 (B2) B                  ->    4 (B2) B                   
  0.5874       4 (B2) A      3 (B2) B    ->    2 (A2) A      1 (A2) B     
 -0.5874       4 (B2) A      3 (B2) B    ->    1 (A2) B      2 (A2) A     
 -0.5874       3 (B2) B      4 (B2) A    ->    2 (A2) A      1 (A2) B     
  0.5874       3 (B2) B      4 (B2) A    ->    1 (A2) B      2 (A2) A     
 -0.2050       4 (B2) A      1 (B2) B    ->    2 (A2) A      1 (A2) B     
  0.2050       4 (B2) A      1 (B2) B    ->    1 (A2) B      2 (A2) A     
  0.2050       1 (B2) B      4 (B2) A    ->    2 (A2) A      1 (A2) B     
 -0.2050       1 (B2) B      4 (B2) A    ->    1 (A2) B      2 (A2) A     
  0.1557       2 (B2) A      3 (B2) B    ->    2 (A2) A      1 (A2) B     
 -0.1557       2 (B2) A      3 (B2) B    ->    1 (A2) B      2 (A2) A     
 -0.1557       3 (B2) B      2 (B2) A    ->    2 (A2) A      1 (A2) B     
  0.1557       3 (B2) B      2 (B2) A    ->    1 (A2) B      2 (A2) A     
 -0.1480       4 (B2) A      3 (B2) B    ->    2 (A2) A      2 (A2) B     
  0.1480       4 (B2) A      3 (B2) B    ->    2 (A2) B      2 (A2) A     
  0.1480       3 (B2) B      4 (B2) A    ->    2 (A2) A      2 (A2) B     
 -0.1480       3 (B2) B      4 (B2) A    ->    2 (A2) B      2 (A2) A     

              Summary of significant orbitals:

               Number  Type             Irrep      Energy
               26      Occ  Alpha       1 (A2)     -0.4038
               19      Occ  Alpha       2 (B2)     -0.4974
               27      Occ  Alpha       4 (B2)     -0.1662
               20      Occ  Beta        1 (B2)     -0.4584
               26      Occ  Beta        2 (B2)     -0.3860
               27      Occ  Beta        3 (B2)     -0.1564
               33      Vir  Alpha       2 (A2)      0.1800
               35      Vir  Alpha       5 (B2)      0.2721
               36      Vir  Alpha       6 (B2)      0.4458
               33      Vir  Beta        1 (A2)     -0.0402
               36      Vir  Beta        2 (A2)      0.2982
               35      Vir  Beta        4 (B2)      0.2258
               38      Vir  Beta        5 (B2)      0.4138


 EOMEE transition 3/A1
 Total energy = -374.41595380 a.u.  Excitation energy = 5.2061 eV.
 R0^2 = 0.0256  R1^2 = 0.7587  R2^2 = 0.2413  Res^2 = 2.58e-07
 Conv-d = yes

 Amplitude    Transitions between orbitals
  0.4843       4 (B2) A                  ->    5 (B2) A                   
 -0.3942       4 (B2) A                  ->    6 (B2) A                   
  0.3365       3 (B2) B                  ->    5 (B2) B                   
 -0.2845       3 (B2) A                  ->    5 (B2) A                   
  0.2097       2 (B2) B                  ->    4 (B2) B                   
  0.1769       1 (B2) B                  ->    4 (B2) B                   
 -0.1635       1 (A2) A                  ->    2 (A2) A                   
  0.1190       1 (B2) B                  ->    5 (B2) B                   
  0.1135       3 (B2) B                  ->    6 (B2) B                   
 -0.1091       3 (B2) B                  ->    4 (B2) B                   
  0.1005       3 (B2) A                  ->    6 (B2) A                   

              Summary of significant orbitals:

               Number  Type             Irrep      Energy
               26      Occ  Alpha       1 (A2)     -0.4038
               21      Occ  Alpha       3 (B2)     -0.3747
               27      Occ  Alpha       4 (B2)     -0.1662
               20      Occ  Beta        1 (B2)     -0.4584
               26      Occ  Beta        2 (B2)     -0.3860
               27      Occ  Beta        3 (B2)     -0.1564
               33      Vir  Alpha       2 (A2)      0.1800
               35      Vir  Alpha       5 (B2)      0.2721
               36      Vir  Alpha       6 (B2)      0.4458
               35      Vir  Beta        4 (B2)      0.2258
               38      Vir  Beta        5 (B2)      0.4138
               41      Vir  Beta        6 (B2)      0.5314


 EOMEE transition 4/A1
 Total energy = -374.41017927 a.u.  Excitation energy = 5.3632 eV.
 R0^2 = 0.0010  R1^2 = 0.5500  R2^2 = 0.4500  Res^2 = 7.98e-07
 Conv-d = yes

 Amplitude    Transitions between orbitals
  0.3277       3 (B2) B                  ->    5 (B2) B                   
 -0.2919       4 (B2) A                  ->    5 (B2) A                   
 -0.2804       3 (B2) A                  ->    5 (B2) A                   
  0.2676       3 (B2) B                  ->    4 (B2) B                   
  0.2261       1 (A2) A                  ->    2 (A2) A                   
  0.1882       2 (B2) B                  ->    4 (B2) B                   
 -0.1833       3 (B2) B                  ->    6 (B2) B                   
  0.1696       2 (B2) A                  ->    5 (B2) A                   
 -0.1608       1 (B2) A                  ->    5 (B2) A                   
  0.3169       4 (B2) A      3 (B2) B    ->    2 (A2) A      1 (A2) B     
 -0.3169       4 (B2) A      3 (B2) B    ->    1 (A2) B      2 (A2) A     
 -0.3169       3 (B2) B      4 (B2) A    ->    2 (A2) A      1 (A2) B     
  0.3169       3 (B2) B      4 (B2) A    ->    1 (A2) B      2 (A2) A     
 -0.1751       3 (B2) A      3 (B2) B    ->    5 (B2) A      4 (B2) B     
  0.1751       3 (B2) A      3 (B2) B    ->    4 (B2) B      5 (B2) A     
  0.1751       3 (B2) B      3 (B2) A    ->    5 (B2) A      4 (B2) B     
 -0.1751       3 (B2) B      3 (B2) A    ->    4 (B2) B      5 (B2) A     
  0.1600       2 (B2) A      3 (B2) B    ->    5 (B2) A      4 (B2) B     
 -0.1600       2 (B2) A      3 (B2) B    ->    4 (B2) B      5 (B2) A     
 -0.1600       3 (B2) B      2 (B2) A    ->    5 (B2) A      4 (B2) B     
  0.1600       3 (B2) B      2 (B2) A    ->    4 (B2) B      5 (B2) A     
  0.1575       3 (B2) A      3 (B2) B    ->    2 (A2) A      1 (A2) B     
 -0.1575       3 (B2) A      3 (B2) B    ->    1 (A2) B      2 (A2) A     
 -0.1575       3 (B2) B      3 (B2) A    ->    2 (A2) A      1 (A2) B     
  0.1575       3 (B2) B      3 (B2) A    ->    1 (A2) B      2 (A2) A     
 -0.1524       2 (B2) A      3 (B2) B    ->    5 (B2) A      5 (B2) B     
  0.1524       2 (B2) A      3 (B2) B    ->    5 (B2) B      5 (B2) A     
  0.1524       3 (B2) B      2 (B2) A    ->    5 (B2) A      5 (B2) B     
 -0.1524       3 (B2) B      2 (B2) A    ->    5 (B2) B      5 (B2) A     
 -0.1351       1 (B2) A      3 (B2) B    ->    5 (B2) A      4 (B2) B     
  0.1351       1 (B2) A      3 (B2) B    ->    4 (B2) B      5 (B2) A     
  0.1351       3 (B2) B      1 (B2) A    ->    5 (B2) A      4 (B2) B     
 -0.1351       3 (B2) B      1 (B2) A    ->    4 (B2) B      5 (B2) A     
 -0.1235       4 (B2) A      3 (B2) B    ->    5 (B2) A      6 (B2) B     
  0.1235       4 (B2) A      3 (B2) B    ->    6 (B2) B      5 (B2) A     
  0.1235       3 (B2) B      4 (B2) A    ->    5 (B2) A      6 (B2) B     
 -0.1235       3 (B2) B      4 (B2) A    ->    6 (B2) B      5 (B2) A     
 -0.1199       4 (B2) A      3 (B2) B    ->    5 (B2) A      4 (B2) B     
  0.1199       4 (B2) A      3 (B2) B    ->    4 (B2) B      5 (B2) A     
  0.1199       3 (B2) B      4 (B2) A    ->    5 (B2) A      4 (B2) B     
 -0.1199       3 (B2) B      4 (B2) A    ->    4 (B2) B      5 (B2) A     
 -0.1140       1 (B2) A      3 (B2) B    ->    2 (A2) A      1 (A2) B     
  0.1140       1 (B2) A      3 (B2) B    ->    1 (A2) B      2 (A2) A     
  0.1140       3 (B2) B      1 (B2) A    ->    2 (A2) A      1 (A2) B     
 -0.1140       3 (B2) B      1 (B2) A    ->    1 (A2) B      2 (A2) A     
  0.1126       4 (B2) A      3 (B2) B    ->    5 (B2) A      5 (B2) B     
 -0.1126       4 (B2) A      3 (B2) B    ->    5 (B2) B      5 (B2) A     
 -0.1126       3 (B2) B      4 (B2) A    ->    5 (B2) A      5 (B2) B     
  0.1126       3 (B2) B      4 (B2) A    ->    5 (B2) B      5 (B2) A     
  0.1026       1 (B2) A      3 (B2) B    ->    5 (B2) A      5 (B2) B     
 -0.1026       1 (B2) A      3 (B2) B    ->    5 (B2) B      5 (B2) A     
 -0.1026       3 (B2) B      1 (B2) A    ->    5 (B2) A      5 (B2) B     
  0.1026       3 (B2) B      1 (B2) A    ->    5 (B2) B      5 (B2) A     

              Summary of significant orbitals:

               Number  Type             Irrep      Energy
               26      Occ  Alpha       1 (A2)     -0.4038
               14      Occ  Alpha       1 (B2)     -0.5775
               19      Occ  Alpha       2 (B2)     -0.4974
               21      Occ  Alpha       3 (B2)     -0.3747
               27      Occ  Alpha       4 (B2)     -0.1662
               26      Occ  Beta        2 (B2)     -0.3860
               27      Occ  Beta        3 (B2)     -0.1564
               33      Vir  Alpha       2 (A2)      0.1800
               35      Vir  Alpha       5 (B2)      0.2721
               33      Vir  Beta        1 (A2)     -0.0402
               35      Vir  Beta        4 (B2)      0.2258
               38      Vir  Beta        5 (B2)      0.4138
               41      Vir  Beta        6 (B2)      0.5314


 EOMEE transition 5/A1
 Total energy = -374.38390166 a.u.  Excitation energy = 6.0782 eV.
 R0^2 = 0.0150  R1^2 = 0.4296  R2^2 = 0.5704  Res^2 = 5.68e-07
 Conv-d = yes

 Amplitude    Transitions between orbitals
 -0.4156       2 (B2) B                  ->    4 (B2) B                   
  0.3412       4 (B2) A                  ->    5 (B2) A                   
 -0.1850       3 (B2) B                  ->    6 (B2) B                   
  0.1736       4 (B2) A                  ->    6 (B2) A                   
 -0.1606       3 (B2) B                  ->    4 (B2) B                   
  0.1339       1 (A2) A                  ->    2 (A2) A                   
 -0.3792       4 (B2) A      3 (B2) B    ->    2 (A2) A      1 (A2) B     
  0.3792       4 (B2) A      3 (B2) B    ->    1 (A2) B      2 (A2) A     
  0.3792       3 (B2) B      4 (B2) A    ->    2 (A2) A      1 (A2) B     
 -0.3792       3 (B2) B      4 (B2) A    ->    1 (A2) B      2 (A2) A     
 -0.2731       1 (A2) A      3 (B2) B    ->    5 (B2) A      1 (A2) B     
  0.2731       1 (A2) A      3 (B2) B    ->    1 (A2) B      5 (B2) A     
  0.2731       3 (B2) B      1 (A2) A    ->    5 (B2) A      1 (A2) B     
 -0.2731       3 (B2) B      1 (A2) A    ->    1 (A2) B      5 (B2) A     
 -0.2492       4 (B2) A      3 (B2) B    ->    5 (B2) A      4 (B2) B     
  0.2492       4 (B2) A      3 (B2) B    ->    4 (B2) B      5 (B2) A     
  0.2492       3 (B2) B      4 (B2) A    ->    5 (B2) A      4 (B2) B     
 -0.2492       3 (B2) B      4 (B2) A    ->    4 (B2) B      5 (B2) A     
 -0.1608       2 (B2) A      3 (B2) B    ->    2 (A2) A      1 (A2) B     
  0.1608       2 (B2) A      3 (B2) B    ->    1 (A2) B      2 (A2) A     
  0.1608       3 (B2) B      2 (B2) A    ->    2 (A2) A      1 (A2) B     
 -0.1608       3 (B2) B      2 (B2) A    ->    1 (A2) B      2 (A2) A     
  0.1556       4 (B2) A      2 (B2) B    ->    2 (A2) A      1 (A2) B     
 -0.1556       4 (B2) A      2 (B2) B    ->    1 (A2) B      2 (A2) A     
 -0.1556       2 (B2) B      4 (B2) A    ->    2 (A2) A      1 (A2) B     
  0.1556       2 (B2) B      4 (B2) A    ->    1 (A2) B      2 (A2) A     
  0.1237       1 (A2) A      2 (B2) B    ->    6 (B2) A      1 (A2) B     
 -0.1237       1 (A2) A      2 (B2) B    ->    1 (A2) B      6 (B2) A     
 -0.1237       2 (B2) B      1 (A2) A    ->    6 (B2) A      1 (A2) B     
  0.1237       2 (B2) B      1 (A2) A    ->    1 (A2) B      6 (B2) A     
 -0.1226       2 (B2) B      3 (B2) B    ->    1 (A2) B      2 (A2) B     
  0.1226       2 (B2) B      3 (B2) B    ->    2 (A2) B      1 (A2) B     
  0.1226       3 (B2) B      2 (B2) B    ->    1 (A2) B      2 (A2) B     
 -0.1226       3 (B2) B      2 (B2) B    ->    2 (A2) B      1 (A2) B     
  0.1037       2 (B2) A      3 (B2) B    ->    5 (B2) A      4 (B2) B     
 -0.1037       2 (B2) A      3 (B2) B    ->    4 (B2) B      5 (B2) A     
 -0.1037       3 (B2) B      2 (B2) A    ->    5 (B2) A      4 (B2) B     
  0.1037       3 (B2) B      2 (B2) A    ->    4 (B2) B      5 (B2) A     

              Summary of significant orbitals:

               Number  Type             Irrep      Energy
               26      Occ  Alpha       1 (A2)     -0.4038
               19      Occ  Alpha       2 (B2)     -0.4974
               27      Occ  Alpha       4 (B2)     -0.1662
               26      Occ  Beta        2 (B2)     -0.3860
               27      Occ  Beta        3 (B2)     -0.1564
               33      Vir  Alpha       2 (A2)      0.1800
               35      Vir  Alpha       5 (B2)      0.2721
               36      Vir  Alpha       6 (B2)      0.4458
               33      Vir  Beta        1 (A2)     -0.0402
               36      Vir  Beta        2 (A2)      0.2982
               35      Vir  Beta        4 (B2)      0.2258
               41      Vir  Beta        6 (B2)      0.5314


 EOMEE transition 6/A1
 Total energy = -374.34444917 a.u.  Excitation energy = 7.1518 eV.
 R0^2 = 0.0000  R1^2 = 0.7096  R2^2 = 0.2904  Res^2 = 8.19e-07
 Conv-d = yes

 Amplitude    Transitions between orbitals
 -0.4607       1 (A2) A                  ->    2 (A2) A                   
  0.4011       3 (B2) B                  ->    4 (B2) B                   
 -0.3258       4 (B2) A                  ->    5 (B2) A                   
 -0.3130       2 (B2) B                  ->    4 (B2) B                   
  0.2106       3 (B2) B                  ->    6 (B2) B                   
  0.1645       1 (B2) B                  ->    4 (B2) B                   
  0.1533       2 (B2) B                  ->    5 (B2) B                   

              Summary of significant orbitals:

               Number  Type             Irrep      Energy
               26      Occ  Alpha       1 (A2)     -0.4038
               27      Occ  Alpha       4 (B2)     -0.1662
               20      Occ  Beta        1 (B2)     -0.4584
               26      Occ  Beta        2 (B2)     -0.3860
               27      Occ  Beta        3 (B2)     -0.1564
               33      Vir  Alpha       2 (A2)      0.1800
               35      Vir  Alpha       5 (B2)      0.2721
               35      Vir  Beta        4 (B2)      0.2258
               38      Vir  Beta        5 (B2)      0.4138
               41      Vir  Beta        6 (B2)      0.5314


 EOMEE transition 7/A1
 Total energy = -374.33034919 a.u.  Excitation energy = 7.5355 eV.
 R0^2 = 0.0000  R1^2 = 0.0009  R2^2 = 0.9991  Res^2 = 2.74e-07
 Conv-d = yes

 Amplitude    Transitions between orbitals
 -0.6894       15 (A1) B     8 (B1) B    ->    1 (A2) B      4 (B2) B     
  0.6894       15 (A1) B     8 (B1) B    ->    4 (B2) B      1 (A2) B     
  0.6894       8 (B1) B      15 (A1) B   ->    1 (A2) B      4 (B2) B     
 -0.6894       8 (B1) B      15 (A1) B   ->    4 (B2) B      1 (A2) B     
  0.4367       15 (A1) B     8 (B1) B    ->    1 (A2) B      5 (B2) B     
 -0.4367       15 (A1) B     8 (B1) B    ->    5 (B2) B      1 (A2) B     
 -0.4367       8 (B1) B      15 (A1) B   ->    1 (A2) B      5 (B2) B     
  0.4367       8 (B1) B      15 (A1) B   ->    5 (B2) B      1 (A2) B     
 -0.3006       15 (A1) B     8 (B1) B    ->    1 (A2) B      6 (B2) B     
  0.3006       15 (A1) B     8 (B1) B    ->    6 (B2) B      1 (A2) B     
  0.3006       8 (B1) B      15 (A1) B   ->    1 (A2) B      6 (B2) B     
 -0.3006       8 (B1) B      15 (A1) B   ->    6 (B2) B      1 (A2) B     
 -0.1899       12 (A1) B     8 (B1) B    ->    1 (A2) B      4 (B2) B     
  0.1899       12 (A1) B     8 (B1) B    ->    4 (B2) B      1 (A2) B     
  0.1899       8 (B1) B      12 (A1) B   ->    1 (A2) B      4 (B2) B     
 -0.1899       8 (B1) B      12 (A1) B   ->    4 (B2) B      1 (A2) B     
 -0.1655       8 (B1) B      9 (B1) B    ->    4 (B2) B      5 (B2) B     
  0.1655       8 (B1) B      9 (B1) B    ->    5 (B2) B      4 (B2) B     
  0.1655       9 (B1) B      8 (B1) B    ->    4 (B2) B      5 (B2) B     
 -0.1655       9 (B1) B      8 (B1) B    ->    5 (B2) B      4 (B2) B     
  0.1575       12 (A1) B     8 (B1) B    ->    1 (A2) B      5 (B2) B     
 -0.1575       12 (A1) B     8 (B1) B    ->    5 (B2) B      1 (A2) B     
 -0.1575       8 (B1) B      12 (A1) B   ->    1 (A2) B      5 (B2) B     
  0.1575       8 (B1) B      12 (A1) B   ->    5 (B2) B      1 (A2) B     
  0.1214       13 (A1) B     8 (B1) B    ->    1 (A2) B      4 (B2) B     
 -0.1214       13 (A1) B     8 (B1) B    ->    4 (B2) B      1 (A2) B     
 -0.1214       8 (B1) B      13 (A1) B   ->    1 (A2) B      4 (B2) B     
  0.1214       8 (B1) B      13 (A1) B   ->    4 (B2) B      1 (A2) B     
 -0.1151       15 (A1) B     9 (B1) B    ->    1 (A2) B      4 (B2) B     
  0.1151       15 (A1) B     9 (B1) B    ->    4 (B2) B      1 (A2) B     
  0.1151       9 (B1) B      15 (A1) B   ->    1 (A2) B      4 (B2) B     
 -0.1151       9 (B1) B      15 (A1) B   ->    4 (B2) B      1 (A2) B     

              Summary of significant orbitals:

               Number  Type             Irrep      Energy
               22      Occ  Beta       12 (A1)     -0.6325
               12      Occ  Beta       13 (A1)     -0.6066
               25      Occ  Beta       15 (A1)     -0.4454
               21      Occ  Beta        8 (B1)     -0.3268
               24      Occ  Beta        9 (B1)     -0.2804
               33      Vir  Beta        1 (A2)     -0.0402
               35      Vir  Beta        4 (B2)      0.2258
               38      Vir  Beta        5 (B2)      0.4138
               41      Vir  Beta        6 (B2)      0.5314


 EOMEE transition 8/A1
 Total energy = -374.31586143 a.u.  Excitation energy = 7.9297 eV.
 R0^2 = 0.0001  R1^2 = 0.4726  R2^2 = 0.5274  Res^2 = 1.01e-06
 Conv-d = yes

 Amplitude    Transitions between orbitals
 -0.3020       1 (A2) A                  ->    2 (A2) A                   
  0.2908       2 (B2) A                  ->    5 (B2) A                   
 -0.2298       2 (B2) B                  ->    5 (B2) B                   
 -0.2225       3 (B2) A                  ->    6 (B2) A                   
 -0.2194       3 (B2) B                  ->    6 (B2) B                   
 -0.1878       3 (B2) B                  ->    5 (B2) B                   
  0.1737       2 (B2) B                  ->    4 (B2) B                   
  0.1332       4 (B2) A                  ->    6 (B2) A                   
 -0.1086       1 (B2) A                  ->    6 (B2) A                   
  0.1009       2 (B2) B                  ->    6 (B2) B                   
 -0.3165       1 (A2) A      3 (B2) B    ->    5 (B2) A      1 (A2) B     
  0.3165       1 (A2) A      3 (B2) B    ->    1 (A2) B      5 (B2) A     
  0.3165       3 (B2) B      1 (A2) A    ->    5 (B2) A      1 (A2) B     
 -0.3165       3 (B2) B      1 (A2) A    ->    1 (A2) B      5 (B2) A     
  0.1755       4 (B2) A      2 (B2) B    ->    5 (B2) A      4 (B2) B     
 -0.1755       4 (B2) A      2 (B2) B    ->    4 (B2) B      5 (B2) A     
 -0.1755       2 (B2) B      4 (B2) A    ->    5 (B2) A      4 (B2) B     
  0.1755       2 (B2) B      4 (B2) A    ->    4 (B2) B      5 (B2) A     
 -0.1709       4 (B2) A      3 (B2) B    ->    6 (B2) A      4 (B2) B     
  0.1709       4 (B2) A      3 (B2) B    ->    4 (B2) B      6 (B2) A     
  0.1709       3 (B2) B      4 (B2) A    ->    6 (B2) A      4 (B2) B     
 -0.1709       3 (B2) B      4 (B2) A    ->    4 (B2) B      6 (B2) A     
 -0.1423       2 (B2) B      3 (B2) B    ->    1 (A2) B      2 (A2) B     
  0.1423       2 (B2) B      3 (B2) B    ->    2 (A2) B      1 (A2) B     
  0.1423       3 (B2) B      2 (B2) B    ->    1 (A2) B      2 (A2) B     
 -0.1423       3 (B2) B      2 (B2) B    ->    2 (A2) B      1 (A2) B     
 -0.1300       1 (A2) A      3 (B2) B    ->    6 (B2) A      1 (A2) B     
  0.1300       1 (A2) A      3 (B2) B    ->    1 (A2) B      6 (B2) A     
  0.1300       3 (B2) B      1 (A2) A    ->    6 (B2) A      1 (A2) B     
 -0.1300       3 (B2) B      1 (A2) A    ->    1 (A2) B      6 (B2) A     
 -0.1251       4 (B2) A      2 (B2) B    ->    5 (B2) A      5 (B2) B     
  0.1251       4 (B2) A      2 (B2) B    ->    5 (B2) B      5 (B2) A     
  0.1251       2 (B2) B      4 (B2) A    ->    5 (B2) A      5 (B2) B     
 -0.1251       2 (B2) B      4 (B2) A    ->    5 (B2) B      5 (B2) A     
  0.1249       2 (B2) A      2 (B2) B    ->    5 (B2) A      5 (B2) B     
 -0.1249       2 (B2) A      2 (B2) B    ->    5 (B2) B      5 (B2) A     
 -0.1249       2 (B2) B      2 (B2) A    ->    5 (B2) A      5 (B2) B     
  0.1249       2 (B2) B      2 (B2) A    ->    5 (B2) B      5 (B2) A     
 -0.1223       4 (B2) A      1 (B2) B    ->    2 (A2) A      1 (A2) B     
  0.1223       4 (B2) A      1 (B2) B    ->    1 (A2) B      2 (A2) A     
  0.1223       1 (B2) B      4 (B2) A    ->    2 (A2) A      1 (A2) B     
 -0.1223       1 (B2) B      4 (B2) A    ->    1 (A2) B      2 (A2) A     
  0.1212       1 (B2) A      2 (B2) B    ->    5 (B2) A      4 (B2) B     
 -0.1212       1 (B2) A      2 (B2) B    ->    4 (B2) B      5 (B2) A     
 -0.1212       2 (B2) B      1 (B2) A    ->    5 (B2) A      4 (B2) B     
  0.1212       2 (B2) B      1 (B2) A    ->    4 (B2) B      5 (B2) A     
  0.1199       3 (B2) A      2 (B2) B    ->    5 (B2) A      4 (B2) B     
 -0.1199       3 (B2) A      2 (B2) B    ->    4 (B2) B      5 (B2) A     
 -0.1199       2 (B2) B      3 (B2) A    ->    5 (B2) A      4 (B2) B     
  0.1199       2 (B2) B      3 (B2) A    ->    4 (B2) B      5 (B2) A     
  0.1174       4 (B2) A      2 (B2) B    ->    2 (A2) A      1 (A2) B     
 -0.1174       4 (B2) A      2 (B2) B    ->    1 (A2) B      2 (A2) A     
 -0.1174       2 (B2) B      4 (B2) A    ->    2 (A2) A      1 (A2) B     
  0.1174       2 (B2) B      4 (B2) A    ->    1 (A2) B      2 (A2) A     
 -0.1162       2 (B2) A      2 (B2) B    ->    5 (B2) A      4 (B2) B     
  0.1162       2 (B2) A      2 (B2) B    ->    4 (B2) B      5 (B2) A     
  0.1162       2 (B2) B      2 (B2) A    ->    5 (B2) A      4 (B2) B     
 -0.1162       2 (B2) B      2 (B2) A    ->    4 (B2) B      5 (B2) A     
  0.1130       1 (B2) B      3 (B2) B    ->    1 (A2) B      2 (A2) B     
 -0.1130       1 (B2) B      3 (B2) B    ->    2 (A2) B      1 (A2) B     
 -0.1130       3 (B2) B      1 (B2) B    ->    1 (A2) B      2 (A2) B     
  0.1130       3 (B2) B      1 (B2) B    ->    2 (A2) B      1 (A2) B     
 -0.1099       3 (B2) A      2 (B2) B    ->    5 (B2) A      5 (B2) B     
  0.1099       3 (B2) A      2 (B2) B    ->    5 (B2) B      5 (B2) A     
  0.1099       2 (B2) B      3 (B2) A    ->    5 (B2) A      5 (B2) B     
 -0.1099       2 (B2) B      3 (B2) A    ->    5 (B2) B      5 (B2) A     

              Summary of significant orbitals:

               Number  Type             Irrep      Energy
               26      Occ  Alpha       1 (A2)     -0.4038
               14      Occ  Alpha       1 (B2)     -0.5775
               19      Occ  Alpha       2 (B2)     -0.4974
               21      Occ  Alpha       3 (B2)     -0.3747
               27      Occ  Alpha       4 (B2)     -0.1662
               20      Occ  Beta        1 (B2)     -0.4584
               26      Occ  Beta        2 (B2)     -0.3860
               27      Occ  Beta        3 (B2)     -0.1564
               33      Vir  Alpha       2 (A2)      0.1800
               35      Vir  Alpha       5 (B2)      0.2721
               36      Vir  Alpha       6 (B2)      0.4458
               33      Vir  Beta        1 (A2)     -0.0402
               36      Vir  Beta        2 (A2)      0.2982
               35      Vir  Beta        4 (B2)      0.2258
               38      Vir  Beta        5 (B2)      0.4138
               41      Vir  Beta        6 (B2)      0.5314


 EOMEE transition 9/A1
 Total energy = -374.30605949 a.u.  Excitation energy = 8.1964 eV.
 R0^2 = 0.0000  R1^2 = 0.0002  R2^2 = 0.9998  Res^2 = 9.32e-06
 Conv-d = yes

 Amplitude    Transitions between orbitals
  0.4107       8 (B1) A      9 (B1) B    ->    5 (B2) A      4 (B2) B     
 -0.4107       8 (B1) A      9 (B1) B    ->    4 (B2) B      5 (B2) A     
 -0.4107       9 (B1) B      8 (B1) A    ->    5 (B2) A      4 (B2) B     
  0.4107       9 (B1) B      8 (B1) A    ->    4 (B2) B      5 (B2) A     
  0.3912       8 (B1) B      9 (B1) B    ->    4 (B2) B      5 (B2) B     
 -0.3912       8 (B1) B      9 (B1) B    ->    5 (B2) B      4 (B2) B     
 -0.3912       9 (B1) B      8 (B1) B    ->    4 (B2) B      5 (B2) B     
  0.3912       9 (B1) B      8 (B1) B    ->    5 (B2) B      4 (B2) B     
  0.3846       9 (B1) A      8 (B1) B    ->    5 (B2) A      4 (B2) B     
 -0.3846       9 (B1) A      8 (B1) B    ->    4 (B2) B      5 (B2) A     
 -0.3846       8 (B1) B      9 (B1) A    ->    5 (B2) A      4 (B2) B     
  0.3846       8 (B1) B      9 (B1) A    ->    4 (B2) B      5 (B2) A     
 -0.2732       8 (B1) A      9 (B1) B    ->    5 (B2) A      5 (B2) B     
  0.2732       8 (B1) A      9 (B1) B    ->    5 (B2) B      5 (B2) A     
  0.2732       9 (B1) B      8 (B1) A    ->    5 (B2) A      5 (B2) B     
 -0.2732       9 (B1) B      8 (B1) A    ->    5 (B2) B      5 (B2) A     
 -0.2275       9 (B1) A      8 (B1) B    ->    5 (B2) A      5 (B2) B     
  0.2275       9 (B1) A      8 (B1) B    ->    5 (B2) B      5 (B2) A     
  0.2275       8 (B1) B      9 (B1) A    ->    5 (B2) A      5 (B2) B     
 -0.2275       8 (B1) B      9 (B1) A    ->    5 (B2) B      5 (B2) A     
 -0.2191       8 (B1) A      9 (B1) B    ->    6 (B2) A      4 (B2) B     
  0.2191       8 (B1) A      9 (B1) B    ->    4 (B2) B      6 (B2) A     
  0.2191       9 (B1) B      8 (B1) A    ->    6 (B2) A      4 (B2) B     
 -0.2191       9 (B1) B      8 (B1) A    ->    4 (B2) B      6 (B2) A     
 -0.1858       9 (B1) A      8 (B1) B    ->    6 (B2) A      4 (B2) B     
  0.1858       9 (B1) A      8 (B1) B    ->    4 (B2) B      6 (B2) A     
  0.1858       8 (B1) B      9 (B1) A    ->    6 (B2) A      4 (B2) B     
 -0.1858       8 (B1) B      9 (B1) A    ->    4 (B2) B      6 (B2) A     
  0.1849       8 (B1) A      9 (B1) B    ->    6 (B2) A      5 (B2) B     
 -0.1849       8 (B1) A      9 (B1) B    ->    5 (B2) B      6 (B2) A     
 -0.1849       9 (B1) B      8 (B1) A    ->    6 (B2) A      5 (B2) B     
  0.1849       9 (B1) B      8 (B1) A    ->    5 (B2) B      6 (B2) A     
  0.1745       8 (B1) A      9 (B1) B    ->    5 (B2) A      6 (B2) B     
 -0.1745       8 (B1) A      9 (B1) B    ->    6 (B2) B      5 (B2) A     
 -0.1745       9 (B1) B      8 (B1) A    ->    5 (B2) A      6 (B2) B     
  0.1745       9 (B1) B      8 (B1) A    ->    6 (B2) B      5 (B2) A     
  0.1620       9 (B1) A      8 (B1) B    ->    6 (B2) A      5 (B2) B     
 -0.1620       9 (B1) A      8 (B1) B    ->    5 (B2) B      6 (B2) A     
 -0.1620       8 (B1) B      9 (B1) A    ->    6 (B2) A      5 (B2) B     
  0.1620       8 (B1) B      9 (B1) A    ->    5 (B2) B      6 (B2) A     
 -0.1604       8 (B1) B      9 (B1) B    ->    5 (B2) B      6 (B2) B     
  0.1604       8 (B1) B      9 (B1) B    ->    6 (B2) B      5 (B2) B     
  0.1604       9 (B1) B      8 (B1) B    ->    5 (B2) B      6 (B2) B     
 -0.1604       9 (B1) B      8 (B1) B    ->    6 (B2) B      5 (B2) B     
  0.1548       9 (B1) A      8 (B1) B    ->    5 (B2) A      6 (B2) B     
 -0.1548       9 (B1) A      8 (B1) B    ->    6 (B2) B      5 (B2) A     
 -0.1548       8 (B1) B      9 (B1) A    ->    5 (B2) A      6 (B2) B     
  0.1548       8 (B1) B      9 (B1) A    ->    6 (B2) B      5 (B2) A     
  0.1095       7 (B1) A      9 (B1) B    ->    5 (B2) A      4 (B2) B     
 -0.1095       7 (B1) A      9 (B1) B    ->    4 (B2) B      5 (B2) A     
 -0.1095       9 (B1) B      7 (B1) A    ->    5 (B2) A      4 (B2) B     
  0.1095       9 (B1) B      7 (B1) A    ->    4 (B2) B      5 (B2) A     
 -0.1092       8 (B1) A      9 (B1) B    ->    6 (B2) A      6 (B2) B     
  0.1092       8 (B1) A      9 (B1) B    ->    6 (B2) B      6 (B2) A     
  0.1092       9 (B1) B      8 (B1) A    ->    6 (B2) A      6 (B2) B     
 -0.1092       9 (B1) B      8 (B1) A    ->    6 (B2) B      6 (B2) A     

              Summary of significant orbitals:

               Number  Type             Irrep      Energy
               17      Occ  Alpha       7 (B1)     -0.5026
               24      Occ  Alpha       8 (B1)     -0.3602
               29      Occ  Alpha       9 (B1)     -0.2850
               21      Occ  Beta        8 (B1)     -0.3268
               24      Occ  Beta        9 (B1)     -0.2804
               35      Vir  Alpha       5 (B2)      0.2721
               36      Vir  Alpha       6 (B2)      0.4458
               35      Vir  Beta        4 (B2)      0.2258
               38      Vir  Beta        5 (B2)      0.4138
               41      Vir  Beta        6 (B2)      0.5314


 EOMEE transition 10/A1
 Total energy = -374.29841256 a.u.  Excitation energy = 8.4045 eV.
 R0^2 = 0.0001  R1^2 = 0.2349  R2^2 = 0.7651  Res^2 = 2.90e-06
 Conv-d = yes

 Amplitude    Transitions between orbitals
 -0.6014       1 (A2) A      3 (B2) B    ->    5 (B2) A      1 (A2) B     
  0.6014       1 (A2) A      3 (B2) B    ->    1 (A2) B      5 (B2) A     
  0.6014       3 (B2) B      1 (A2) A    ->    5 (B2) A      1 (A2) B     
 -0.6014       3 (B2) B      1 (A2) A    ->    1 (A2) B      5 (B2) A     
  0.2977       1 (A2) A      3 (B2) B    ->    6 (B2) A      1 (A2) B     
 -0.2977       1 (A2) A      3 (B2) B    ->    1 (A2) B      6 (B2) A     
 -0.2977       3 (B2) B      1 (A2) A    ->    6 (B2) A      1 (A2) B     
  0.2977       3 (B2) B      1 (A2) A    ->    1 (A2) B      6 (B2) A     
 -0.2313       1 (A2) A      1 (B2) B    ->    5 (B2) A      1 (A2) B     
  0.2313       1 (A2) A      1 (B2) B    ->    1 (A2) B      5 (B2) A     
  0.2313       1 (B2) B      1 (A2) A    ->    5 (B2) A      1 (A2) B     
 -0.2313       1 (B2) B      1 (A2) A    ->    1 (A2) B      5 (B2) A     
 -0.2008       1 (A2) A      2 (B2) B    ->    5 (B2) A      1 (A2) B     
  0.2008       1 (A2) A      2 (B2) B    ->    1 (A2) B      5 (B2) A     
  0.2008       2 (B2) B      1 (A2) A    ->    5 (B2) A      1 (A2) B     
 -0.2008       2 (B2) B      1 (A2) A    ->    1 (A2) B      5 (B2) A     
  0.1872       1 (A2) A      2 (B2) B    ->    6 (B2) A      1 (A2) B     
 -0.1872       1 (A2) A      2 (B2) B    ->    1 (A2) B      6 (B2) A     
 -0.1872       2 (B2) B      1 (A2) A    ->    6 (B2) A      1 (A2) B     
  0.1872       2 (B2) B      1 (A2) A    ->    1 (A2) B      6 (B2) A     
  0.1695       1 (A2) A      1 (B2) B    ->    6 (B2) A      1 (A2) B     
 -0.1695       1 (A2) A      1 (B2) B    ->    1 (A2) B      6 (B2) A     
 -0.1695       1 (B2) B      1 (A2) A    ->    6 (B2) A      1 (A2) B     
  0.1695       1 (B2) B      1 (A2) A    ->    1 (A2) B      6 (B2) A     
  0.1431       4 (B2) A      3 (B2) B    ->    2 (A2) A      1 (A2) B     
 -0.1431       4 (B2) A      3 (B2) B    ->    1 (A2) B      2 (A2) A     
 -0.1431       3 (B2) B      4 (B2) A    ->    2 (A2) A      1 (A2) B     
  0.1431       3 (B2) B      4 (B2) A    ->    1 (A2) B      2 (A2) A     
  0.1123       4 (B2) A      3 (B2) B    ->    5 (B2) A      6 (B2) B     
 -0.1123       4 (B2) A      3 (B2) B    ->    6 (B2) B      5 (B2) A     
 -0.1123       3 (B2) B      4 (B2) A    ->    5 (B2) A      6 (B2) B     
  0.1123       3 (B2) B      4 (B2) A    ->    6 (B2) B      5 (B2) A     
  0.1068       3 (B2) A      3 (B2) B    ->    6 (B2) A      4 (B2) B     
 -0.1068       3 (B2) A      3 (B2) B    ->    4 (B2) B      6 (B2) A     
 -0.1068       3 (B2) B      3 (B2) A    ->    6 (B2) A      4 (B2) B     
  0.1068       3 (B2) B      3 (B2) A    ->    4 (B2) B      6 (B2) A     

              Summary of significant orbitals:

               Number  Type             Irrep      Energy
               26      Occ  Alpha       1 (A2)     -0.4038
               21      Occ  Alpha       3 (B2)     -0.3747
               27      Occ  Alpha       4 (B2)     -0.1662
               20      Occ  Beta        1 (B2)     -0.4584
               26      Occ  Beta        2 (B2)     -0.3860
               27      Occ  Beta        3 (B2)     -0.1564
               33      Vir  Alpha       2 (A2)      0.1800
               35      Vir  Alpha       5 (B2)      0.2721
               36      Vir  Alpha       6 (B2)      0.4458
               33      Vir  Beta        1 (A2)     -0.0402
               35      Vir  Beta        4 (B2)      0.2258
               41      Vir  Beta        6 (B2)      0.5314


Running a double precision version
      EOM-CCSD/MP2 left amplitudes will be solved using Davidson.
        Amplitudes will be solved using MOM  algorithm.
     Hard-coded thresholds: 
     LinDepThresh=1.00e-15  NormThresh=1.00e-06  ReorthogonThresh=1.00e-02

      Roots     MaxVec    MaxIter   Precond   Conv      Shift    
      10        120       60        1         1.00e-05  0.00e+00  
 ------------------------------------------------------------------------------
      Iter ConvRoots NVecs ResNorm^2 Current eigenvalues (eV)
 ------------------------------------------------------------------------------
      0    0      10    5.04e-03   2.2592   4.2000   5.2061   5.3632   6.0782   7.1518   7.5355   7.9297   8.1964   8.4045   
      1    0      20    1.14e-03   2.2591   4.2001   5.2060   5.3631   6.0783   7.1518   7.5355   7.9297   8.1961   8.4043   
      2    1      30    2.05e-04   2.2591   4.2001   5.2060   5.3632   6.0783   7.1518   7.5355*  7.9298   8.1962   8.4044   
      3    1      39    5.23e-05   2.2591   4.2001   5.2060   5.3632   6.0783   7.1518   7.5355*  7.9298   8.1961   8.4043   
      4    4      48    2.07e-05   2.2591*  4.2002*  5.2060   5.3632   6.0783   7.1518   7.5355*  7.9298   8.1960*  8.4044   
      5    8      54    1.06e-05   2.2591*  4.2002*  5.2060*  5.3632*  6.0783*  7.1518*  7.5355*  7.9298   8.1960*  8.4043   
      6    9      56    7.94e-06   2.2591*  4.2002*  5.2060*  5.3632*  6.0783*  7.1518*  7.5355*  7.9298*  8.1960*  8.4044   
      7    9      57    7.54e-06   2.2591*  4.2002*  5.2060*  5.3632*  6.0783*  7.1518*  7.5355*  7.9298*  8.1960*  8.4043   
      8    9      58    6.86e-06   2.2591*  4.2002*  5.2060*  5.3632*  6.0783*  7.1518*  7.5355*  7.9298*  8.1960*  8.4044   
      9    9      59    6.38e-06   2.2591*  4.2002*  5.2060*  5.3632*  6.0783*  7.1518*  7.5355*  7.9298*  8.1960*  8.4044   
      10   9      60    6.02e-06   2.2591*  4.2002*  5.2060*  5.3632*  6.0783*  7.1518*  7.5355*  7.9298*  8.1960*  8.4044   
      11   10     61    5.52e-06   2.2591*  4.2002*  5.2060*  5.3632*  6.0783*  7.1518*  7.5355*  7.9298*  8.1960*  8.4044*  

     Davidson procedure converged

 EOMEE-CCSD transition 1/A1
S^2 calculation will be performed in  double precision
 EOMEE-CCSD transition 2/A1
S^2 calculation will be performed in  double precision
 EOMEE-CCSD transition 3/A1
S^2 calculation will be performed in  double precision
 EOMEE-CCSD transition 4/A1
S^2 calculation will be performed in  double precision
 EOMEE-CCSD transition 5/A1
S^2 calculation will be performed in  double precision
 EOMEE-CCSD transition 6/A1
S^2 calculation will be performed in  double precision
 EOMEE-CCSD transition 7/A1
S^2 calculation will be performed in  double precision
 EOMEE-CCSD transition 8/A1
S^2 calculation will be performed in  double precision
 EOMEE-CCSD transition 9/A1
S^2 calculation will be performed in  double precision
 EOMEE-CCSD transition 10/A1
S^2 calculation will be performed in  double precision
 Excited state properties for  EOMEE-CCSD transition 1/A1
 Dipole moment (a.u.): 0.049681 (X 0.000000, Y 0.000000, Z -0.049681)
 R-squared (a.u.): 857.921350 (XX 223.418028, YY 29.927943, ZZ 604.575379)
 Gauge origin (a.u.): (0.000000, 0.000000, 0.000000)
 Angular momentum (a.u.) against gauge origin: 
 (X 0.000000i, Y 0.000000i, Z 0.000000i)
 Traces of the OPDMs: Tr(AA) 29.000000, Tr(BB) 27.000000
 <S^2> = 2.381136

 Excited state properties for  EOMEE-CCSD transition 2/A1
 Dipole moment (a.u.): 0.585298 (X 0.000000, Y 0.000000, Z -0.585298)
 R-squared (a.u.): 856.095332 (XX 224.778409, YY 29.922052, ZZ 601.394871)
 Gauge origin (a.u.): (0.000000, 0.000000, 0.000000)
 Angular momentum (a.u.) against gauge origin: 
 (X 0.000000i, Y 0.000000i, Z 0.000000i)
 Traces of the OPDMs: Tr(AA) 29.000000, Tr(BB) 27.000000
 <S^2> = 2.168971

 Excited state properties for  EOMEE-CCSD transition 3/A1
 Dipole moment (a.u.): 0.492829 (X 0.000000, Y 0.000000, Z 0.492829)
 R-squared (a.u.): 857.407138 (XX 223.634364, YY 29.894270, ZZ 603.878504)
 Gauge origin (a.u.): (0.000000, 0.000000, 0.000000)
 Angular momentum (a.u.) against gauge origin: 
 (X 0.000000i, Y 0.000000i, Z 0.000000i)
 Traces of the OPDMs: Tr(AA) 29.000000, Tr(BB) 27.000000
 <S^2> = 3.449348

 Excited state properties for  EOMEE-CCSD transition 4/A1
 Dipole moment (a.u.): 0.626067 (X 0.000000, Y 0.000000, Z 0.626067)
 R-squared (a.u.): 857.027563 (XX 223.674609, YY 29.896587, ZZ 603.456368)
 Gauge origin (a.u.): (0.000000, 0.000000, 0.000000)
 Angular momentum (a.u.) against gauge origin: 
 (X 0.000000i, Y 0.000000i, Z 0.000000i)
 Traces of the OPDMs: Tr(AA) 29.000000, Tr(BB) 27.000000
 <S^2> = 3.329067

 Excited state properties for  EOMEE-CCSD transition 5/A1
 Dipole moment (a.u.): 0.182923 (X 0.000000, Y 0.000000, Z 0.182923)
 R-squared (a.u.): 856.545305 (XX 224.458170, YY 29.898721, ZZ 602.188414)
 Gauge origin (a.u.): (0.000000, 0.000000, 0.000000)
 Angular momentum (a.u.) against gauge origin: 
 (X 0.000000i, Y 0.000000i, Z 0.000000i)
 Traces of the OPDMs: Tr(AA) 29.000000, Tr(BB) 27.000000
 <S^2> = 3.068310

 Excited state properties for  EOMEE-CCSD transition 6/A1
 Dipole moment (a.u.): 0.245209 (X 0.000000, Y 0.000000, Z 0.245209)
 R-squared (a.u.): 859.344793 (XX 223.254079, YY 29.764163, ZZ 606.326551)
 Gauge origin (a.u.): (0.000000, 0.000000, 0.000000)
 Angular momentum (a.u.) against gauge origin: 
 (X 0.000000i, Y 0.000000i, Z 0.000000i)
 Traces of the OPDMs: Tr(AA) 29.000000, Tr(BB) 27.000000
 <S^2> = 2.272150

 Excited state properties for  EOMEE-CCSD transition 7/A1
 Dipole moment (a.u.): 0.466912 (X 0.000000, Y 0.000000, Z 0.466912)
 R-squared (a.u.): 850.069053 (XX 224.359397, YY 31.791869, ZZ 593.917787)
 Gauge origin (a.u.): (0.000000, 0.000000, 0.000000)
 Angular momentum (a.u.) against gauge origin: 
 (X 0.000000i, Y 0.000000i, Z 0.000000i)
 Traces of the OPDMs: Tr(AA) 29.000000, Tr(BB) 27.000000
 <S^2> = 2.134284

 Excited state properties for  EOMEE-CCSD transition 8/A1
 Dipole moment (a.u.): 0.234878 (X 0.000000, Y 0.000000, Z 0.234878)
 R-squared (a.u.): 856.814027 (XX 224.377095, YY 29.828352, ZZ 602.608580)
 Gauge origin (a.u.): (0.000000, 0.000000, 0.000000)
 Angular momentum (a.u.) against gauge origin: 
 (X 0.000000i, Y 0.000000i, Z 0.000000i)
 Traces of the OPDMs: Tr(AA) 29.000000, Tr(BB) 27.000000
 <S^2> = 3.968708

 Excited state properties for  EOMEE-CCSD transition 9/A1
 Dipole moment (a.u.): 0.549523 (X 0.000000, Y 0.000000, Z -0.549523)
 R-squared (a.u.): 847.966599 (XX 222.520494, YY 31.454703, ZZ 593.991402)
 Gauge origin (a.u.): (0.000000, 0.000000, 0.000000)
 Angular momentum (a.u.) against gauge origin: 
 (X 0.000000i, Y 0.000000i, Z 0.000000i)
 Traces of the OPDMs: Tr(AA) 29.000000, Tr(BB) 27.000000
 <S^2> = 2.145011

 Excited state properties for  EOMEE-CCSD transition 10/A1
 Dipole moment (a.u.): 0.149887 (X 0.000000, Y 0.000000, Z 0.149887)
 R-squared (a.u.): 855.156302 (XX 222.972405, YY 29.925741, ZZ 602.258156)
 Gauge origin (a.u.): (0.000000, 0.000000, 0.000000)
 Angular momentum (a.u.) against gauge origin: 
 (X 0.000000i, Y 0.000000i, Z 0.000000i)
 Traces of the OPDMs: Tr(AA) 29.000000, Tr(BB) 27.000000
 <S^2> = 3.157992

        Solving for EOMEE-CCSD A2 transitions.

Running a double precision version
        EOMEE-CCSD/MP2 right amplitudes will be solved using Davidson.
        Amplitudes will be solved using standard  algorithm.
     Hard-coded thresholds: 
     LinDepThresh=1.00e-15  NormThresh=1.00e-06  ReorthogonThresh=1.00e-02

      Roots     MaxVec    MaxIter   Precond   Conv      Shift    
      3         120       60        1         1.00e-05  0.00e+00  
 ------------------------------------------------------------------------------
      Iter ConvRoots NVecs ResNorm^2 Current eigenvalues (eV)
 ------------------------------------------------------------------------------
      0    0      3     2.14e-01   6.9137   7.9797   8.2943   
      1    0      6     2.93e-02   2.5570   3.3372   3.6453   
      2    0      9     6.29e-03   1.8312   2.4469   2.5914   
      3    0      12    1.98e-03   1.7303   2.2909   2.3786   
      4    0      15    7.77e-04   1.7022   2.2338   2.3065   
      5    0      18    1.18e-03   1.6814   2.1769   2.2230   
      6    0      21    4.26e-03   1.6627   1.7693   2.1897   
      7    0      24    2.49e-03   1.0829   1.6754   2.1858   
      8    2      27    6.34e-04   0.9106   1.6747*  2.1854*  
      9    2      28    1.35e-04   0.8732   1.6745*  2.1853*  
      10   2      29    3.61e-05   0.8675   1.6745*  2.1853*  
      11   2      30    1.31e-05   0.8666   1.6745*  2.1852*  
      12   2      31    4.43e-06   0.8667   1.6745*  2.1853*  
      13   3      32    1.66e-06   0.8669*  1.6745*  2.1853*  

     Davidson procedure converged

 EOMEE transition 1/A2
 Total energy = -374.57541421 a.u.  Excitation energy = 0.8669 eV.
 R0^2 = 0.0000  R1^2 = 0.9475  R2^2 = 0.0525  Res^2 = 2.55e-06
 Conv-d = yes

 Amplitude    Transitions between orbitals
  0.7725       8 (B1) B                  ->    4 (B2) B                   
 -0.4842       8 (B1) B                  ->    5 (B2) B                   
  0.2218       8 (B1) B                  ->    6 (B2) B                   
 -0.1340       7 (B1) B                  ->    4 (B2) B                   
  0.1209       9 (B1) B                  ->    4 (B2) B                   
  0.1034       7 (B1) B                  ->    5 (B2) B                   

              Summary of significant orbitals:

               Number  Type             Irrep      Energy
               17      Occ  Beta        7 (B1)     -0.4943
               21      Occ  Beta        8 (B1)     -0.3268
               24      Occ  Beta        9 (B1)     -0.2804
               35      Vir  Beta        4 (B2)      0.2258
               38      Vir  Beta        5 (B2)      0.4138
               41      Vir  Beta        6 (B2)      0.5314


 EOMEE transition 2/A2
 Total energy = -374.54573655 a.u.  Excitation energy = 1.6745 eV.
 R0^2 = 0.0000  R1^2 = 0.8279  R2^2 = 0.1721  Res^2 = 6.55e-07
 Conv-d = yes

 Amplitude    Transitions between orbitals
 -0.9056       15 (A1) B                 ->    1 (A2) B                   
 -0.0569       14 (A1) B                 ->    2 (A2) B                   
 -0.0375       9 (B1) B                  ->    4 (B2) B                   
 -0.0282       11 (A1) B                 ->    1 (A2) B                   

              Summary of significant orbitals:

               Number  Type             Irrep      Energy
               18      Occ  Beta       11 (A1)     -0.7680
               19      Occ  Beta       14 (A1)     -0.4686
               25      Occ  Beta       15 (A1)     -0.4454
               24      Occ  Beta        9 (B1)     -0.2804
               33      Vir  Beta        1 (A2)     -0.0402
               36      Vir  Beta        2 (A2)      0.2982
               35      Vir  Beta        4 (B2)      0.2258


 EOMEE transition 3/A2
 Total energy = -374.52696545 a.u.  Excitation energy = 2.1853 eV.
 R0^2 = 0.0000  R1^2 = 0.7834  R2^2 = 0.2166  Res^2 = 1.76e-06
 Conv-d = yes

 Amplitude    Transitions between orbitals
 -0.8773       14 (A1) B                 ->    1 (A2) B                   
  0.0741       9 (B1) B                  ->    4 (B2) B                   
 -0.0627       15 (A1) B                 ->    2 (A2) B                   
 -0.0424       14 (A1) B                 ->    2 (A2) B                   

              Summary of significant orbitals:

               Number  Type             Irrep      Energy
               19      Occ  Beta       14 (A1)     -0.4686
               25      Occ  Beta       15 (A1)     -0.4454
               24      Occ  Beta        9 (B1)     -0.2804
               33      Vir  Beta        1 (A2)     -0.0402
               36      Vir  Beta        2 (A2)      0.2982
               35      Vir  Beta        4 (B2)      0.2258


Running a double precision version
      EOM-CCSD/MP2 left amplitudes will be solved using Davidson.
        Amplitudes will be solved using MOM  algorithm.
     Hard-coded thresholds: 
     LinDepThresh=1.00e-15  NormThresh=1.00e-06  ReorthogonThresh=1.00e-02

      Roots     MaxVec    MaxIter   Precond   Conv      Shift    
      3         120       60        1         1.00e-05  0.00e+00  
 ------------------------------------------------------------------------------
      Iter ConvRoots NVecs ResNorm^2 Current eigenvalues (eV)
 ------------------------------------------------------------------------------
      0    0      3     1.10e-02   0.8669   1.6745   2.1853   
      1    0      6     3.04e-03   0.8669   1.6745   2.1853   
      2    0      9     5.50e-04   0.8670   1.6746   2.1855   
      3    0      12    1.49e-04   0.8670   1.6747   2.1856   
      4    0      15    3.98e-05   0.8670   1.6746   2.1856   
Found complex roots...
      5    2      18    9.49e-06   0.8670   1.6746*  2.1856*  
Found complex roots...
      6    3      19    5.69e-06   0.8670*  1.6746*  2.1856*  

     Davidson procedure converged

 EOMEE-CCSD transition 1/A2
S^2 calculation will be performed in  double precision
 EOMEE-CCSD transition 2/A2
S^2 calculation will be performed in  double precision
 EOMEE-CCSD transition 3/A2
S^2 calculation will be performed in  double precision
 Excited state properties for  EOMEE-CCSD transition 1/A2
 Dipole moment (a.u.): 1.474615 (X 0.000000, Y 0.000000, Z 1.474615)
 R-squared (a.u.): 858.285651 (XX 223.031053, YY 30.635638, ZZ 604.618960)
 Gauge origin (a.u.): (0.000000, 0.000000, 0.000000)
 Angular momentum (a.u.) against gauge origin: 
 (X 0.000000i, Y 0.000000i, Z 0.000000i)
 Traces of the OPDMs: Tr(AA) 29.000000, Tr(BB) 27.000000
 <S^2> = 2.010073
 Density matrix was written to a file for further analysis.

 Excited state properties for  EOMEE-CCSD transition 2/A2
 Dipole moment (a.u.): 0.240039 (X 0.000000, Y 0.000000, Z -0.240039)
 R-squared (a.u.): 852.065872 (XX 225.732846, YY 31.034299, ZZ 595.298727)
 Gauge origin (a.u.): (0.000000, 0.000000, 0.000000)
 Angular momentum (a.u.) against gauge origin: 
 (X 0.000000i, Y 0.000000i, Z 0.000000i)
 Traces of the OPDMs: Tr(AA) 29.000000, Tr(BB) 27.000000
 <S^2> = 2.012528

 Excited state properties for  EOMEE-CCSD transition 3/A2
 Dipole moment (a.u.): 0.825984 (X 0.000000, Y 0.000000, Z 0.825984)
 R-squared (a.u.): 851.634895 (XX 226.685154, YY 30.998929, ZZ 593.950813)
 Gauge origin (a.u.): (0.000000, 0.000000, 0.000000)
 Angular momentum (a.u.) against gauge origin: 
 (X 0.000000i, Y 0.000000i, Z 0.000000i)
 Traces of the OPDMs: Tr(AA) 29.000000, Tr(BB) 27.000000
 <S^2> = 2.017193

        Solving for EOMEE-CCSD B1 transitions.

Running a double precision version
        EOMEE-CCSD/MP2 right amplitudes will be solved using Davidson.
        Amplitudes will be solved using standard  algorithm.
     Hard-coded thresholds: 
     LinDepThresh=1.00e-15  NormThresh=1.00e-06  ReorthogonThresh=1.00e-02

      Roots     MaxVec    MaxIter   Precond   Conv      Shift    
      10        120       60        1         1.00e-05  0.00e+00  
 ------------------------------------------------------------------------------
      Iter ConvRoots NVecs ResNorm^2 Current eigenvalues (eV)
 ------------------------------------------------------------------------------
      0    0      10    1.56e-01   -0.2173   4.6167   5.9271   7.6893   9.1078   11.3484   13.7033   14.5755   15.3437   16.3853   
      1    0      20    2.71e-02   -3.1821   1.6417   2.0004   4.2336   5.5111   7.1928   9.8267   10.0189   11.7501   11.8578   
      2    0      30    1.27e-02   -3.6280   0.7515   1.0484   3.1078   4.6158   5.5343   8.0693   8.7318   9.8196   10.4048   
      3    0      40    7.90e-03   -3.6493   0.5197   0.9036   2.7821   4.3206   4.9306   7.3116   8.0044   8.5448   8.9453   
      4    0      50    3.87e-03   -3.6541   0.4556   0.8750   2.6777   4.1612   4.7339   6.8692   7.1258   8.1536   8.4297   
      5    1      60    2.70e-03   -3.6555*  0.4362   0.8667   2.6430   4.0573   4.6680   6.4961   6.9282   7.8811   8.0186   
      6    2      69    2.19e-03   -3.6555*  0.4304   0.8651*  2.6359   4.0212   4.6507   6.2510   6.6934   7.1359   7.9280   
      7    3      77    6.43e-04   -3.6555*  0.4298*  0.8652*  2.6369   4.0141   4.6478   6.0427   6.5507   7.0004   7.8912   
      8    5      84    1.49e-04   -3.6555*  0.4299*  0.8654*  2.6382*  4.0126   4.6476*  5.9704   6.5188   6.9757   7.8775   
Found complex roots...
      9    6      89    3.38e-05   -3.6555*  0.4300*  0.8654*  2.6387*  4.0120*  4.6476*  5.9529   6.5112   6.9695   7.8715   
Found complex roots...
      10   6      93    8.08e-06   -3.6555*  0.4300*  0.8654*  2.6388*  4.0119*  4.6474*  5.9484   6.5088   6.9684   7.8691   
Found complex roots...
      11   9      97    2.78e-06   -3.6555*  0.4300*  0.8654*  2.6388*  4.0119*  4.6473*  5.9472*  6.5081*  6.9684*  7.8685   
      12   9      98    1.19e-05   -3.6555*  0.4300*  0.8654*  2.6388*  4.0119*  4.6472*  5.9472*  6.5081*  6.9683*  7.8682   
      13   8      99    6.05e-03   -3.6555*  0.4300*  0.8654*  2.6388*  4.0119*  4.6470*  4.8911   5.9474   6.5081*  6.9686*  
Found complex roots...
      14   9      101   1.30e-03   -3.6555*  0.4300*  0.8654*  2.6388*  3.5194   4.0119*  4.6473*  5.9471*  6.5081*  6.9685*  
Found complex roots...
      15   9      102   2.52e-04   -3.6555*  0.4300*  0.8654*  2.6389*  3.2508   4.0119*  4.6472*  5.9471*  6.5081*  6.9685*  
Found complex roots...
      16   9      103   5.35e-05   -3.6555*  0.4300*  0.8654*  2.6389*  3.1987   4.0119*  4.6472*  5.9471*  6.5081*  6.9685*  
      17   9      104   1.65e-05   -3.6555*  0.4300*  0.8654*  2.6389*  3.1869   4.0119*  4.6472*  5.9471*  6.5081*  6.9685*  
Found complex roots...
      18   9      105   7.46e-06   -3.6555*  0.4300*  0.8654*  2.6389*  3.1830   4.0119*  4.6472*  5.9471*  6.5081*  6.9685*  
Found complex roots...
      19   9      106   3.21e-06   -3.6555*  0.4300*  0.8654*  2.6389*  3.1816   4.0119*  4.6472*  5.9471*  6.5081*  6.9684*  
      20   10     107   1.51e-06   -3.6555*  0.4300*  0.8654*  2.6389*  3.1812*  4.0119*  4.6472*  5.9471*  6.5081*  6.9684*  

     Davidson procedure converged

 EOMEE transition 1/B1
 Total energy = -374.74161129 a.u.  Excitation energy = -3.6555 eV.
 R0^2 = 0.0000  R1^2 = 0.8729  R2^2 = 0.1271  Res^2 = 6.98e-07
 Conv-d = yes

 Amplitude    Transitions between orbitals
  0.9039       3 (B2) B                  ->    1 (A2) B                   
  0.1842       4 (B2) A                  ->    2 (A2) A                   
  0.0928       1 (B2) B                  ->    1 (A2) B                   
  0.0571       3 (B2) B                  ->    2 (A2) B                   

              Summary of significant orbitals:

               Number  Type             Irrep      Energy
               27      Occ  Alpha       4 (B2)     -0.1662
               20      Occ  Beta        1 (B2)     -0.4584
               27      Occ  Beta        3 (B2)     -0.1564
               33      Vir  Alpha       2 (A2)      0.1800
               33      Vir  Beta        1 (A2)     -0.0402
               36      Vir  Beta        2 (A2)      0.2982


 EOMEE transition 2/B1
 Total energy = -374.59146900 a.u.  Excitation energy = 0.4300 eV.
 R0^2 = 0.0000  R1^2 = 0.7187  R2^2 = 0.2813  Res^2 = 1.61e-07
 Conv-d = yes

 Amplitude    Transitions between orbitals
  0.7877       2 (B2) B                  ->    1 (A2) B                   
  0.2345       4 (B2) A                  ->    2 (A2) A                   
 -0.1452       3 (B2) B                  ->    2 (A2) B                   
 -0.0745       3 (B2) B                  ->    1 (A2) B                   

              Summary of significant orbitals:

               Number  Type             Irrep      Energy
               27      Occ  Alpha       4 (B2)     -0.1662
               26      Occ  Beta        2 (B2)     -0.3860
               27      Occ  Beta        3 (B2)     -0.1564
               33      Vir  Alpha       2 (A2)      0.1800
               33      Vir  Beta        1 (A2)     -0.0402
               36      Vir  Beta        2 (A2)      0.2982


 EOMEE transition 3/B1
 Total energy = -374.57546859 a.u.  Excitation energy = 0.8654 eV.
 R0^2 = 0.0000  R1^2 = 0.8078  R2^2 = 0.1922  Res^2 = 8.49e-07
 Conv-d = yes

 Amplitude    Transitions between orbitals
 -0.7856       4 (B2) A                  ->    2 (A2) A                   
  0.3924       1 (B2) B                  ->    1 (A2) B                   
  0.1357       3 (B2) B                  ->    2 (A2) B                   
  0.0905       3 (B2) B                  ->    1 (A2) B                   

              Summary of significant orbitals:

               Number  Type             Irrep      Energy
               27      Occ  Alpha       4 (B2)     -0.1662
               20      Occ  Beta        1 (B2)     -0.4584
               27      Occ  Beta        3 (B2)     -0.1564
               33      Vir  Alpha       2 (A2)      0.1800
               33      Vir  Beta        1 (A2)     -0.0402
               36      Vir  Beta        2 (A2)      0.2982


 EOMEE transition 4/B1
 Total energy = -374.51029616 a.u.  Excitation energy = 2.6389 eV.
 R0^2 = 0.0000  R1^2 = 0.6608  R2^2 = 0.3392  Res^2 = 1.28e-07
 Conv-d = yes

 Amplitude    Transitions between orbitals
 -0.5863       3 (B2) B                  ->    2 (A2) B                   
  0.3936       1 (B2) B                  ->    1 (A2) B                   
 -0.2892       3 (B2) A                  ->    2 (A2) A                   
 -0.1906       2 (B2) B                  ->    1 (A2) B                   
  0.1497       2 (B2) A                  ->    2 (A2) A                   
  0.1015       4 (B2) A                  ->    2 (A2) A                   

              Summary of significant orbitals:

[...]
 <Sz=0.00|(-0.048483,-0.000000)(-0.000000,0.000000)(0.048483,-0.000000)
 <Sz=1.00|(0.000000,0.000000)(-0.048483,-0.000000)(-0.000000,-0.000000)
 Singlet part of <S|| Hso(L0) ||S'> = (-0.000000,0.000000) (excluded from all matrix elements)
 L-/L+ Averaged reduced matrix elements:
 <S|| Hso(L-) ||S'> = (0.068565,0.000000)
 <S|| Hso(L+) ||S'> = (0.068565,-0.000000)
 ______________________________________________________________
 B(Ket)->A(Bra) transition SO matrices
Full 2e SOC is not implemented withing libqints. 
I will do mean-field SOC with libqints, which is usually as good as full 2e SOC
 Analysing Sz ans S^2 of the pair of states...
WARNING! The deviation of S^2 from the correct value is large, indicating a significant spin contamination. The results may be unreliable
 Ket state:  Computed S^2 = 3.733644 will be treated as 2.000000 Sz = 1.000000
 Bra state:  Computed S^2 = 2.010073 will be treated as 2.000000 Sz = 1.000000
 Clebsh-Gordan coefficient: <1.000,1.000;1.000,0.000|1.000,1.000> = 0.707
 _________________________________________________
 One-electron SO (cm-1)
 Reduced matrix elements:
 <S|| Hso(L-) ||S'> = (-0.218172,-0.000000)
 <S|| Hso(L0) ||S'> = (0.000000,0.000000)
 <S|| Hso(L+) ||S'> = (-0.218172,0.000000)
 SOCC = 0.308541
 Actual matrix elements:
       |Sz=-1.00>           |Sz=0.00>           |Sz=1.00>
 <Sz=-1.00|(0.000000,-0.000000)(-0.154271,0.000000)(-0.000000,0.000000)
 <Sz=0.00|(0.154271,0.000000)(0.000000,-0.000000)(-0.154271,0.000000)
 <Sz=1.00|(-0.000000,-0.000000)(0.154271,0.000000)(0.000000,0.000000)
 _________________________________________________
 Mean-field SO (cm-1)
 Reduced matrix elements:
 <S|| Hso(L-) ||S'> = (-0.054292,-0.000000)
 <S|| Hso(L0) ||S'> = (0.000000,0.000000)
 <S|| Hso(L+) ||S'> = (-0.054461,0.000000)
 SOCC = 0.076900
 Actual matrix elements:
       |Sz=-1.00>           |Sz=0.00>           |Sz=1.00>
 <Sz=-1.00|(0.000000,-0.000000)(-0.038450,0.000000)(-0.000000,0.000000)
 <Sz=0.00|(0.038450,0.000000)(0.000000,-0.000000)(-0.038450,0.000000)
 <Sz=1.00|(-0.000000,-0.000000)(0.038450,0.000000)(0.000000,0.000000)
 Singlet part of <S|| Hso(L0) ||S'> = (-0.000000,0.000000) (excluded from all matrix elements)
 L-/L+ Averaged reduced matrix elements:
 <S|| Hso(L-) ||S'> = (-0.054377,-0.000000)
 <S|| Hso(L+) ||S'> = (-0.054377,0.000000)
 ______________________________________________________________
   Arithmetically averaged transition SO matrices
   (The phases shown, Ket and Bra assingment are from A(Ket)->B(Bra))
 _________________________________________________
 One-electron SO (cm-1)
 SOCC = 0.313626
 Actual matrix elements:
       |Sz=-1.00>           |Sz=0.00>           |Sz=1.00>
 <Sz=-1.00|(-0.000000,0.000000)(0.156813,-0.000000)(0.000000,-0.000000)
 <Sz=0.00|(-0.156813,-0.000000)(-0.000000,0.000000)(0.156813,-0.000000)
 <Sz=1.00|(-0.000000,-0.000000)(-0.156813,-0.000000)(-0.000000,-0.000000)
 _________________________________________________
 Mean-field SO (cm-1)
 SOCC = 0.086933
 Actual matrix elements:
       |Sz=-1.00>           |Sz=0.00>           |Sz=1.00>
 <Sz=-1.00|(-0.000000,0.000000)(0.043466,-0.000000)(0.000000,-0.000000)
 <Sz=0.00|(-0.043466,-0.000000)(-0.000000,0.000000)(0.043466,-0.000000)
 <Sz=1.00|(-0.000000,-0.000000)(-0.043466,-0.000000)(-0.000000,-0.000000)
 ______________________________________________________________

 ------------------------------------------------------------------------------
 State A: eomee_mp2/uhfref: 1/A2
 State B: eomee_mp2/uhfref: 9/B2
 Energy GAP = 0.155284 a.u. = 4.225482 eV
 Transition dipole moment (a.u.):
   A->B: 0.166151 (X 0.166151, Y 0.000000, Z 0.000000)
   B->A: 0.327712 (X 0.327712, Y 0.000000, Z 0.000000)
 Oscillator strength (a.u.): 0.005637
 Transition angular momentum against gauge origin (a.u.):
   A->B:  (X 0.000000i, Y -0.036751i, Z 0.000000i)
   B->A:  (X 0.000000i, Y 0.071437i, Z 0.000000i)
 Norm of one-particle transition density matrix:
   A->B: 0.828100;   B->A: 0.829681
   ||gamma^AB||*||gamma^BA||: 0.687058

 ______________________________________________________________
 A(Ket)->B(Bra) transition SO matrices
Full 2e SOC is not implemented withing libqints. 
I will do mean-field SOC with libqints, which is usually as good as full 2e SOC
 Analysing Sz ans S^2 of the pair of states...
 Ket state:  Computed S^2 = 2.010073 will be treated as 2.000000 Sz = 1.000000
WARNING! The deviation of S^2 from the correct value is large, indicating a significant spin contamination. The results may be unreliable
 Bra state:  Computed S^2 = 3.821746 will be treated as 6.000000 Sz = 1.000000
 Clebsh-Gordan coefficient: <1.000,1.000;1.000,0.000|2.000,1.000> = 0.707
 _________________________________________________
 One-electron SO (cm-1)
 Reduced matrix elements:
 <S|| Hso(L-) ||S'> = (-0.635898,-0.000000)
 <S|| Hso(L0) ||S'> = (0.000000,0.000000)
 <S|| Hso(L+) ||S'> = (-0.635898,0.000000)
 SOCC = 1.160985
 Actual matrix elements:
       |Sz=-1.00>           |Sz=0.00>           |Sz=1.00>
 <Sz=-2.00|(-0.635898,0.000000)(0.000000,0.000000)(0.000000,0.000000)
 <Sz=-1.00|(-0.000000,0.000000)(-0.449647,0.000000)(-0.000000,0.000000)
 <Sz=0.00|(-0.259604,-0.000000)(0.000000,0.000000)(-0.259604,0.000000)
 <Sz=1.00|(-0.000000,-0.000000)(-0.449647,-0.000000)(-0.000000,0.000000)
 <Sz=2.00|(0.000000,0.000000)(0.000000,0.000000)(-0.635898,-0.000000)
 _________________________________________________
 Mean-field SO (cm-1)
 Reduced matrix elements:
 <S|| Hso(L-) ||S'> = (-0.177682,-0.000000)
 <S|| Hso(L0) ||S'> = (0.000000,0.000000)
 <S|| Hso(L+) ||S'> = (-0.176713,0.000000)
 SOCC = 0.323517
 Actual matrix elements:
       |Sz=-1.00>           |Sz=0.00>           |Sz=1.00>
 <Sz=-2.00|(-0.177198,0.000000)(0.000000,0.000000)(0.000000,0.000000)
 <Sz=-1.00|(-0.000000,0.000000)(-0.125298,0.000000)(-0.000000,0.000000)
 <Sz=0.00|(-0.072341,-0.000000)(0.000000,0.000000)(-0.072341,0.000000)
 <Sz=1.00|(-0.000000,-0.000000)(-0.125298,-0.000000)(-0.000000,0.000000)
 <Sz=2.00|(0.000000,0.000000)(0.000000,0.000000)(-0.177198,-0.000000)
 Singlet part of <S|| Hso(L0) ||S'> = (-0.000000,-0.000000) (excluded from all matrix elements)
 L-/L+ Averaged reduced matrix elements:
 <S|| Hso(L-) ||S'> = (-0.177198,-0.000000)
 <S|| Hso(L+) ||S'> = (-0.177198,0.000000)
 ______________________________________________________________
 B(Ket)->A(Bra) transition SO matrices
Full 2e SOC is not implemented withing libqints. 
I will do mean-field SOC with libqints, which is usually as good as full 2e SOC
 Analysing Sz ans S^2 of the pair of states...
WARNING! The deviation of S^2 from the correct value is large, indicating a significant spin contamination. The results may be unreliable
 Ket state:  Computed S^2 = 3.821746 will be treated as 6.000000 Sz = 1.000000
 Bra state:  Computed S^2 = 2.010073 will be treated as 2.000000 Sz = 1.000000
 Clebsh-Gordan coefficient: <2.000,1.000;1.000,0.000|1.000,1.000> = -0.548
 _________________________________________________
 One-electron SO (cm-1)
 Reduced matrix elements:
 <S|| Hso(L-) ||S'> = (-1.818035,-0.000000)
 <S|| Hso(L0) ||S'> = (0.000000,0.000000)
 <S|| Hso(L+) ||S'> = (-1.818035,0.000000)
 SOCC = 2.571090
 Actual matrix elements:
       |Sz=-2.00>           |Sz=-1.00>           |Sz=0.00>           |Sz=1.00>           |Sz=2.00>
 <Sz=-1.00|(-1.408244,-0.000000)(0.000000,-0.000000)(-0.574913,0.000000)(0.000000,-0.000000)(0.000000,0.000000)
 <Sz=0.00|(-0.000000,-0.000000)(-0.995779,-0.000000)(-0.000000,-0.000000)(-0.995779,0.000000)(0.000000,0.000000)
 <Sz=1.00|(0.000000,0.000000)(0.000000,0.000000)(-0.574913,-0.000000)(0.000000,-0.000000)(-1.408244,0.000000)
 _________________________________________________
 Mean-field SO (cm-1)
 Reduced matrix elements:
 <S|| Hso(L-) ||S'> = (-0.767202,-0.000000)
 <S|| Hso(L0) ||S'> = (0.000000,0.000000)
 <S|| Hso(L+) ||S'> = (-0.767674,0.000000)
 SOCC = 1.085321
 Actual matrix elements:
       |Sz=-2.00>           |Sz=-1.00>           |Sz=0.00>           |Sz=1.00>           |Sz=2.00>
 <Sz=-1.00|(-0.594455,-0.000000)(0.000000,-0.000000)(-0.242685,0.000000)(0.000000,-0.000000)(0.000000,0.000000)
 <Sz=0.00|(-0.000000,-0.000000)(-0.420343,-0.000000)(-0.000000,-0.000000)(-0.420343,0.000000)(0.000000,0.000000)
 <Sz=1.00|(0.000000,0.000000)(0.000000,0.000000)(-0.242685,-0.000000)(0.000000,-0.000000)(-0.594455,0.000000)
 Singlet part of <S|| Hso(L0) ||S'> = (-0.000000,-0.000000) (excluded from all matrix elements)
 L-/L+ Averaged reduced matrix elements:
 <S|| Hso(L-) ||S'> = (-0.767438,-0.000000)
 <S|| Hso(L+) ||S'> = (-0.767438,0.000000)
 ______________________________________________________________
   Arithmetically averaged transition SO matrices
   (The phases shown, Ket and Bra assingment are from A(Ket)->B(Bra))
 _________________________________________________
 One-electron SO (cm-1)
 SOCC = 1.866038
 Actual matrix elements:
       |Sz=-1.00>           |Sz=0.00>           |Sz=1.00>
 <Sz=-2.00|(-1.022071,0.000000)(-0.000000,0.000000)(0.000000,0.000000)
 <Sz=-1.00|(0.000000,0.000000)(-0.722713,0.000000)(-0.000000,0.000000)
 <Sz=0.00|(-0.417259,-0.000000)(0.000000,0.000000)(-0.417259,0.000000)
 <Sz=1.00|(-0.000000,-0.000000)(-0.722713,-0.000000)(-0.000000,0.000000)
 <Sz=2.00|(0.000000,0.000000)(0.000000,0.000000)(-1.022071,-0.000000)
 _________________________________________________
 Mean-field SO (cm-1)
 SOCC = 0.704419
 Actual matrix elements:
       |Sz=-1.00>           |Sz=0.00>           |Sz=1.00>
 <Sz=-2.00|(-0.385826,0.000000)(-0.000000,0.000000)(0.000000,0.000000)
 <Sz=-1.00|(0.000000,0.000000)(-0.272820,0.000000)(-0.000000,0.000000)
 <Sz=0.00|(-0.157513,-0.000000)(0.000000,0.000000)(-0.157513,0.000000)
 <Sz=1.00|(-0.000000,-0.000000)(-0.272820,-0.000000)(-0.000000,0.000000)
 <Sz=2.00|(0.000000,0.000000)(0.000000,0.000000)(-0.385826,-0.000000)
 ______________________________________________________________

 ------------------------------------------------------------------------------
 State A: eomee_mp2/uhfref: 1/A2
 State B: eomee_mp2/uhfref: 10/B2
 Energy GAP = 0.170962 a.u. = 4.652102 eV
 Transition dipole moment (a.u.):
   A->B: 0.042919 (X 0.042919, Y 0.000000, Z 0.000000)
   B->A: 0.083478 (X 0.083478, Y 0.000000, Z 0.000000)
 Oscillator strength (a.u.): 0.000408
 Transition angular momentum against gauge origin (a.u.):
   A->B:  (X 0.000000i, Y -0.081640i, Z 0.000000i)
   B->A:  (X 0.000000i, Y 0.091197i, Z 0.000000i)
 Norm of one-particle transition density matrix:
   A->B: 0.239682;   B->A: 0.236515
   ||gamma^AB||*||gamma^BA||: 0.056688

 ______________________________________________________________
 A(Ket)->B(Bra) transition SO matrices
Full 2e SOC is not implemented withing libqints. 
I will do mean-field SOC with libqints, which is usually as good as full 2e SOC
 Analysing Sz ans S^2 of the pair of states...
 Ket state:  Computed S^2 = 2.010073 will be treated as 2.000000 Sz = 1.000000
 Bra state:  Computed S^2 = 2.071199 will be treated as 2.000000 Sz = 1.000000
 Clebsh-Gordan coefficient: <1.000,1.000;1.000,0.000|1.000,1.000> = 0.707
 _________________________________________________
 One-electron SO (cm-1)
 Reduced matrix elements:
 <S|| Hso(L-) ||S'> = (-0.078115,0.000000)
 <S|| Hso(L0) ||S'> = (0.000000,-0.000000)
 <S|| Hso(L+) ||S'> = (-0.078115,-0.000000)
 SOCC = 0.110472
 Actual matrix elements:
       |Sz=-1.00>           |Sz=0.00>           |Sz=1.00>
 <Sz=-1.00|(0.000000,0.000000)(-0.055236,-0.000000)(-0.000000,-0.000000)
 <Sz=0.00|(0.055236,-0.000000)(0.000000,0.000000)(-0.055236,-0.000000)
 <Sz=1.00|(-0.000000,-0.000000)(0.055236,-0.000000)(0.000000,-0.000000)
 _________________________________________________
 Mean-field SO (cm-1)
 Reduced matrix elements:
 <S|| Hso(L-) ||S'> = (0.021999,0.000000)
 <S|| Hso(L0) ||S'> = (0.000000,-0.000000)
 <S|| Hso(L+) ||S'> = (0.023275,-0.000000)
 SOCC = 0.032014
 Actual matrix elements:
       |Sz=-1.00>           |Sz=0.00>           |Sz=1.00>
 <Sz=-1.00|(-0.000000,0.000000)(0.016007,-0.000000)(0.000000,-0.000000)
 <Sz=0.00|(-0.016007,-0.000000)(-0.000000,0.000000)(0.016007,-0.000000)
 <Sz=1.00|(0.000000,-0.000000)(-0.016007,-0.000000)(-0.000000,-0.000000)
 Singlet part of <S|| Hso(L0) ||S'> = (-0.000000,0.000000) (excluded from all matrix elements)
 L-/L+ Averaged reduced matrix elements:
 <S|| Hso(L-) ||S'> = (0.022637,0.000000)
 <S|| Hso(L+) ||S'> = (0.022637,-0.000000)
 ______________________________________________________________
 B(Ket)->A(Bra) transition SO matrices
Full 2e SOC is not implemented withing libqints. 
I will do mean-field SOC with libqints, which is usually as good as full 2e SOC
 Analysing Sz ans S^2 of the pair of states...
 Ket state:  Computed S^2 = 2.071199 will be treated as 2.000000 Sz = 1.000000
 Bra state:  Computed S^2 = 2.010073 will be treated as 2.000000 Sz = 1.000000
 Clebsh-Gordan coefficient: <1.000,1.000;1.000,0.000|1.000,1.000> = 0.707
 _________________________________________________
 One-electron SO (cm-1)
 Reduced matrix elements:
 <S|| Hso(L-) ||S'> = (0.157011,-0.000000)
 <S|| Hso(L0) ||S'> = (0.000000,0.000000)
 <S|| Hso(L+) ||S'> = (0.157011,0.000000)
 SOCC = 0.222047
 Actual matrix elements:
       |Sz=-1.00>           |Sz=0.00>           |Sz=1.00>
 <Sz=-1.00|(-0.000000,-0.000000)(0.111024,0.000000)(0.000000,0.000000)
 <Sz=0.00|(-0.111024,0.000000)(-0.000000,-0.000000)(0.111024,0.000000)
 <Sz=1.00|(0.000000,0.000000)(-0.111024,0.000000)(-0.000000,0.000000)
 _________________________________________________
 Mean-field SO (cm-1)
 Reduced matrix elements:
 <S|| Hso(L-) ||S'> = (-0.001641,-0.000000)
 <S|| Hso(L0) ||S'> = (0.000000,0.000000)
 <S|| Hso(L+) ||S'> = (-0.000311,0.000000)
 SOCC = 0.001380
 Actual matrix elements:
       |Sz=-1.00>           |Sz=0.00>           |Sz=1.00>
 <Sz=-1.00|(0.000000,-0.000000)(-0.000690,0.000000)(-0.000000,0.000000)
 <Sz=0.00|(0.000690,0.000000)(0.000000,-0.000000)(-0.000690,0.000000)
 <Sz=1.00|(-0.000000,0.000000)(0.000690,0.000000)(0.000000,0.000000)
 Singlet part of <S|| Hso(L0) ||S'> = (-0.000000,0.000000) (excluded from all matrix elements)
 L-/L+ Averaged reduced matrix elements:
 <S|| Hso(L-) ||S'> = (-0.000976,-0.000000)
 <S|| Hso(L+) ||S'> = (-0.000976,0.000000)
 ______________________________________________________________
   Arithmetically averaged transition SO matrices
   (The phases shown, Ket and Bra assingment are from A(Ket)->B(Bra))
 _________________________________________________
 One-electron SO (cm-1)
 SOCC = 0.166260
 Actual matrix elements:
       |Sz=-1.00>           |Sz=0.00>           |Sz=1.00>
 <Sz=-1.00|(-0.000000,0.000000)(-0.083130,-0.000000)(-0.000000,-0.000000)
 <Sz=0.00|(0.083130,-0.000000)(-0.000000,0.000000)(-0.083130,-0.000000)
 <Sz=1.00|(0.000000,-0.000000)(0.083130,-0.000000)(-0.000000,-0.000000)
 _________________________________________________
 Mean-field SO (cm-1)
 SOCC = 0.016697
 Actual matrix elements:
       |Sz=-1.00>           |Sz=0.00>           |Sz=1.00>
 <Sz=-1.00|(-0.000000,0.000000)(0.008348,-0.000000)(0.000000,-0.000000)
 <Sz=0.00|(-0.008348,-0.000000)(-0.000000,0.000000)(0.008348,-0.000000)
 <Sz=1.00|(0.000000,-0.000000)(-0.008348,-0.000000)(-0.000000,-0.000000)
 ______________________________________________________________


 All requested transition properties have been computed

 Transition Properties:   CPU 48.25 s  wall 48.88 s

 Total ccman2 time:   CPU 436.27 s  wall 433.20 s

 
 --------------------------------------------------------------
             Orbital Energies (a.u.) and Symmetries
 --------------------------------------------------------------
 
 Alpha MOs, Restricted
 -- Doubly Occupied --           
-20.250 -20.160 -11.132 -11.132 -11.105 -11.073 -11.073 -11.056
  1 A1    2 A1    1 B1    3 A1    4 A1    2 B1    5 A1    6 A1                 
 -1.277  -1.299  -1.123  -1.045  -0.913  -0.822  -0.784  -0.646
  7 A1    8 A1    9 A1    3 B1   10 A1    4 B1   11 A1   12 A1                 
 -0.639  -0.621  -0.605  -0.502  -0.549  -0.496  -0.455  -0.448
  5 B1   13 A1    6 B1    7 B1    1 B2   14 A1   15 A1    2 B2                 
 -0.360  -0.285  -0.279
  8 B1    9 B1    3 B2                                                         
 -- Singly Occupied (Occupied) --
 -0.404  -0.340
  1 A2    4 B2                                                                 
 -- Virtual --                   
  0.180   0.273   0.445   0.559   0.579   0.634   0.640   0.692
  2 A2    5 B2    6 B2   16 A1   10 B1   17 A1   18 A1   11 B1                 
  0.729   0.814   0.858   0.868   0.954   1.018   1.130
 19 A1   12 B1   13 B1   20 A1   21 A1   14 B1   22 A1                         
 
 Beta MOs, Restricted
 -- Doubly Occupied --           
-20.229 -20.159 -11.126 -11.126 -11.104 -11.068 -11.068 -11.055
  1 A1    2 A1    1 B1    3 A1    4 A1    2 B1    5 A1    6 A1                 
 -1.253  -1.230  -1.079  -0.999  -0.884  -0.803  -0.768  -0.632
  7 A1    8 A1    9 A1    3 B1   10 A1    4 B1   11 A1   12 A1                 
 -0.627  -0.607  -0.594  -0.494  -0.455  -0.468  -0.446  -0.389
  5 B1   13 A1    6 B1    7 B1    1 B2   14 A1   15 A1    2 B2                 
 -0.327  -0.280  -0.157
  8 B1    9 B1    3 B2                                                         
 -- Singly Occupied (Vacant) --  
 -0.040   0.308
  1 A2    4 B2                                                                 
 -- Virtual --                   
  0.298   0.351   0.512   0.570   0.586   0.648   0.653   0.715
  2 A2    5 B2    6 B2   16 A1   10 B1   17 A1   18 A1   11 B1                 
  0.752   0.824   0.869   0.880   0.966   1.026   1.139
 19 A1   12 B1   13 B1   20 A1   21 A1   14 B1   22 A1                         
 --------------------------------------------------------------
 
          Ground-State Mulliken Net Atomic Charges

     Atom                 Charge (a.u.)
  ----------------------------------------
      1 O                    -0.086966
      2 C                     0.025688
      3 C                     0.004809
      4 C                     0.004809
      5 C                    -0.061887
      6 C                    -0.061887
      7 C                     0.146328
      8 O                    -0.345484
      9 H                     0.101803
     10 H                     0.101803
     11 H                     0.085492
     12 H                     0.085492
  ----------------------------------------
  Sum of atomic charges =     0.000000

 -----------------------------------------------------------------
                    Cartesian Multipole Moments
 -----------------------------------------------------------------
    Charge (ESU x 10^10)
                 0.0000
    Dipole Moment (Debye)
         X       0.0000      Y       0.0000      Z       3.7481
       Tot       3.7481
    Quadrupole Moments (Debye-Ang)
        XX     -33.6829     XY      -0.0000     YY     -41.2060
        XZ      -0.0000     YZ       0.0000     ZZ     -57.0811
    Octopole Moments (Debye-Ang^2)
       XXX       0.0000    XXY       0.0000    XYY       0.0000
       YYY       0.0000    XXZ       4.1953    XYZ       0.0000
       YYZ      -0.7447    XZZ       0.0000    YZZ       0.0000
       ZZZ      26.7569
    Hexadecapole Moments (Debye-Ang^3)
      XXXX    -254.4499   XXXY       0.0000   XXYY     -54.2983
      XYYY       0.0000   YYYY     -30.1298   XXXZ      -0.0000
      XXYZ      -0.0000   XYYZ      -0.0000   YYYZ       0.0000
      XXZZ    -135.5052   XYZZ       0.0000   YYZZ    -108.1419
      XZZZ       0.0000   YZZZ      -0.0000   ZZZZ    -783.4560
 -----------------------------------------------------------------
 Total job time:  461.09s(wall), 462.64s(cpu) 
 Fri Jan 26 12:53:42 2024

        *************************************************************
        *                                                           *
        *  Thank you very much for using Q-Chem.  Have a nice day.  *
        *                                                           *
        *************************************************************


