                  Welcome to Q-Chem
     A Quantum Leap Into The Future Of Chemistry


 Q-Chem 6.0 (devel), Q-Chem, Inc., Pleasanton, CA (2022)

 E. Epifanovsky,  A. T. B. Gilbert,  Xintian Feng,  Joonho Lee,  Yuezhi Mao,  
 N. Mardirossian,  P. Pokhilko,  A. White,  M. Wormit,  M. P. Coons,  
 A. L. Dempwolff,  Zhengting Gan,  D. Hait,  P. R. Horn,  L. D. Jacobson,  
 I. Kaliman,  J. Kussmann,  A. W. Lange,  Ka Un Lao,  D. S. Levine,  Jie Liu,  
 S. C. McKenzie,  A. F. Morrison,  K. Nanda,  F. Plasser,  D. R. Rehn,  
 M. L. Vidal,  Zhi-Qiang You,  Ying Zhu,  B. Alam,  B. Albrecht,  
 A. Aldossary,  E. Alguire,  J. H. Andersen,  V. Athavale,  D. Barton,  
 K. Begam,  A. Behn,  N. Bellonzi,  Y. A. Bernard,  E. J. Berquist,  
 H. Burton,  A. Carreras,  K. Carter-Fenk,  Romit Chakraborty,  
 Chandrima Chakravarty,  Junhan Chen,  A. D. Chien,  K. D. Closser,  
 V. Cofer-Shabica,  L. Cunha,  S. Dasgupta,  Jia Deng,  M. de Wergifosse,  
 M. Diedenhofen,  Hainam Do,  S. Ehlert,  Po-Tung Fang,  S. Fatehi,  
 Qingguo Feng,  T. Friedhoff,  B. Ganoe,  J. Gayvert,  Qinghui Ge,  
 G. Gidofalvi,  M. Goldey,  J. Gomes,  C. Gonzalez-Espinoza,  S. Gulania,  
 A. Gunina,  J. A. Gyamfi,  M. W. D. Hanson-Heine,  P. H. P. Harbach,  
 A. W. Hauser,  M. F. Herbst,  M. Hernandez Vera,  M. Hodecker,  
 Z. C. Holden,  S. Houck,  Xunkun Huang,  Kerwin Hui,  B. C. Huynh,  
 K. Ikeda,  M. Ivanov,  Hyunjun Ji,  Zuxin Jin,  Hanjie Jiang,  B. Kaduk,  
 S. Kaehler,  R. Kang,  K. Khistyaev,  Jaehoon Kim,  Yongbin Kim,  
 P. Klunzinger,  Z. Koczor-Benda,  Joong Hoon Koh,  D. Kosenkov,  
 Saikiran Kotaru,  L. Koulias,  T. Kowalczyk,  C. M. Krauter,  K. Kue,  
 A. Kunitsa,  T. Kus,  A. Landau,  K. V. Lawler,  D. Lefrancois,  S. Lehtola,  
 Rain Li,  Shaozhi Li,  Yi-Pei Li,  Jiashu Liang,  M. Liebenthal,  
 Hung-Hsuan Lin,  You-Sheng Lin,  Fenglai Liu,  Kuan-Yu Liu,  
 M. Loipersberger,  A. Luenser,  C. Malbon,  A. Manjanath,  P. Manohar,  
 E. Mansoor,  S. F. Manzer,  Shan-Ping Mao,  A. V. Marenich,  T. Markovich,  
 S. Mason,  F. Matz,  S. A. Maurer,  P. F. McLaughlin,  M. F. S. J. Menger,  
 J.-M. Mewes,  S. A. Mewes,  P. Morgante,  Mohammad Mostafanejad,  
 J. W. Mullinax,  K. J. Oosterbaan,  G. Paran,  V. Parravicini,  
 Alexander C. Paul,  Suranjan K. Paul,  F. Pavosevic,  Zheng Pei,  S. Prager,  
 E. I. Proynov,  E. Ramos,  B. Rana,  A. E. Rask,  A. Rettig,  R. M. Richard,  
 F. Rob,  E. Rossomme,  T. Scheele,  M. Scheurer,  M. Schneider,  
 P. E. Schneider,  N. Sergueev,  S. M. Sharada,  Hengyuan Shen,  
 W. Skomorowski,  D. W. Small,  C. J. Stein,  Yingli Su,  Yu-Chuan Su,  
 E. J. Sundstrom,  Zhen Tao,  J. Thirman,  Hung-Yi Tsai,  T. Tsuchimochi,  
 N. M. Tubman,  C. Utku,  S. P. Veccham,  O. Vydrov,  J. Wenzel,  
 Jonathan Wong,  J. Witte,  A. Yamada,  Chou-Hsun Yang,  Kun Yao,  
 S. Yeganeh,  S. R. Yost,  A. Zech,  F. Zeller,  Igor Ying Zhang,  
 Xing Zhang,  Yu Zhang,  D. Zuev,  A. Aspuru-Guzik,  A. T. Bell,  
 N. A. Besley,  K. B. Bravaya,  B. R. Brooks,  D. Casanova,  Jeng-Da Chai,  
 Hsing-Ta Chen,  S. Coriani,  C. J. Cramer,  A. E. DePrince, III,  
 R. A. DiStasio Jr.,  A. Dreuw,  B. D. Dunietz,  T. R. Furlani,  
 W. A. Goddard III,  S. Grimme,  S. Hammes-Schiffer,  T. Head-Gordon,  
 W. J. Hehre,  Chao-Ping Hsu,  T.-C. Jagau,  Yousung Jung,  A. Klamt,  
 Jing Kong,  D. S. Lambrecht,  Xiangyuan Li,  WanZhen Liang,  N. J. Mayhall,  
 C. W. McCurdy,  J. B. Neaton,  T. Neudecker,  C. Ochsenfeld,  
 J. A. Parkhill,  R. Peverati,  V. A. Rassolov,  Haisheng Ren,  Yihan Shao,  
 L. V. Slipchenko,  R. P. Steele,  J. E. Subotnik,  A. J. W. Thom,  
 A. Tkatchenko,  D. G. Truhlar,  T. Van Voorhis,  Fan Wang,  
 T. A. Wesolowski,  K. B. Whaley,  H. L. Woodcock III,  P. M. Zimmerman,  
 S. Faraji,  P. M. W. Gill,  M. Head-Gordon,  J. M. Herbert,  A. I. Krylov

 Contributors to earlier versions of Q-Chem not listed above: 
 R. D. Adamson,  B. Austin,  R. Baer,  J. Baker,  G. J. O. Beran,  
 K. Brandhorst,  S. T. Brown,  E. F. C. Byrd,  Arup K. Chakraborty,  
 G. K. L. Chan,  Chun-Min Chang,  Yunqing Chen,  C.-L. Cheng,  
 Siu Hung Chien,  D. M. Chipman,  D. L. Crittenden,  H. Dachsel,  
 R. J. Doerksen,  A. D. Dutoi,  R. G. Edgar,  J. Fosso-Tande,  
 L. Fusti-Molnar,  D. Ghosh,  A. Ghysels,  A. Golubeva-Zadorozhnaya,  
 J. Gonthier,  M. S. Gordon,  S. R. Gwaltney,  G. Hawkins,  J. E. Herr,  
 A. Heyden,  S. Hirata,  E. G. Hohenstein,  G. Kedziora,  F. J. Keil,  
 C. Kelley,  Jihan Kim,  R. A. King,  R. Z. Khaliullin,  P. P. Korambath,  
 W. Kurlancheek,  A. Laurent,  A. M. Lee,  M. S. Lee,  S. V. Levchenko,  
 Ching Yeh Lin,  D. Liotard,  E. Livshits,  R. C. Lochan,  I. Lotan,  
 L. A. Martinez-Martinez,  P. E. Maslen,  N. Nair,  D. P. O'Neill,  
 D. Neuhauser,  E. Neuscamman,  C. M. Oana,  R. Olivares-Amaya,  R. Olson,  
 T. M. Perrine,  B. Peters,  P. A. Pieniazek,  A. Prociuk,  Y. M. Rhee,  
 J. Ritchie,  M. A. Rohrdanz,  E. Rosta,  N. J. Russ,  H. F. Schaefer III,  
 M. W. Schmidt,  N. E. Schultz,  S. Sharma,  N. Shenvi,  C. D. Sherrill,  
 A. C. Simmonett,  A. Sodt,  T. Stein,  D. Stuck,  K. S. Thanthiriwatte,  
 V. Vanovschi,  L. Vogt,  Tao Wang,  A. Warshel,  M. A. Watson,  
 C. F. Williams,  Q. Wu,  X. Xu,  Jun Yang,  W. Zhang,  Yan Zhao

   Please cite Q-Chem as follows:
  "Software for the frontiers of quantum chemistry:
   An overview of developments in the Q-Chem 5 package"
   J. Chem. Phys. 155, 084801 (2021)
   https://doi.org/10.1063/5.0055522 (open access)

 Q-Chem 6.0.1 for Intel X86 EM64T Linux

 Parts of Q-Chem use Armadillo 9.900.5 (Nocturnal Misbehaviour).
 http://arma.sourceforge.net/

 Q-Chem begins on Mon Jan 29 19:50:38 2024  

 Host: atlas-275
0

     Scratch files written to ./qchem420976//
 Processing $rem in /scratch/abel/SOFTWARE/qchem/config/preferences:
 Processing $rem in /dipc/acebg/.qchemrc:
 Core orbitals will be frozen

 Checking the input file for inconsistencies... 	...done.

--------------------------------------------------------------
User input:
--------------------------------------------------------------
$comment
 RAS-SF CALCULATION
$end

$molecule
 READ benzophenone_singlet.molecule
$end

$rem
!**CALCULATION TYPE***     
JOBTYPE            sp    
!BASIS              def2-TZVP
BASIS             STO-3G

!***SCF REFERENCE***
INPUT_BOHR 	    TRUE
!SKIP_SCFMAN        FALSE
UNRESTRICTED       FALSE
!SCF_GUESS          core
!SCF_GUESS_MIX      FALSE
!SCF_GUESS_ALWAYS   FALSE
MAX_SCF_CYCLES     500
!SCF_CONVERGENCE    10
SCF_ALGORITHM      DIIS_GDM !DIIS,DM,DIIS_DM,GDM,DIIS_GDM,GD

!SYMMETRY           TRUE   !use of symmetry for calculating integrals
!SYM_IGNORE         FALSE  !turn off using symmetry
!SYM_TOL            5      !tolerance for determining point group
!USE_ABELIAN_SUBGROUP      !define to use abelian group

!THRESH             14
!SCF_FINAL_PRINT     1 !0,1,2,3

!****CCSD****
CORRELATION        CCSD
!CC_CONVERGENCE     6
!CC_MAX_ITER        200
CC_PRINT	   2
!CHOLESKY_TOL       3 !Toler. decomposition 2e integrals
CC_REF_PROP  	   1 !one-particle CCSD properties calculation
!CC_REF_PROP_TE	   0 !two-particle CCSD properties calculation
!CC_FNO_THRESH
!CC_BACKEND	   XM !Used to specify the computational back-end of CCMAN2.

!****EOM****
METHOD             EOM-MP2
SF_STATES	   [50,50]
CC_STATE_TO_OPT    [1,2]
CC_EOM_PROP        1
CC_EOM_PROP_TE	   1
CC_TRANS_PROP      1
CALC_SOC           TRUE   !calculate SOC for EOM-CC, RAS-CI, ADC, TDDFT/TDA and TDDFT

!****MEMORY****
MEM_TOTAL          90000 !Default 2000 MB
MEM_STATIC         7000  !Default 64 MB
CC_MEMORY          72000

!**Molecular Properties and Analysis **                                                                                          
!POP_MULLIKEN       TRUE   !Run Mulliken population analysis
!LOWDIN_POPULATION  TRUE   !Run Löwdin population analysis
GUI                0       !Checkpoints generation
!STATE_ANALYSIS     TRUE

!**Wave function analysis**
!PLOTS = 0     ! Note: This can be omitted, default is 0
!NTO_PAIRS = 2 ! Note: This can be omitted, default is 2
!GUI 0
!MOLDEN_FORMAT      TRUE
!PRINT_ORBITALS     15
$end

!$plots
!   grid_points 100 100 100
!   grid_range  (-10,10) (-10,10) (-10,10)
!$end

--------------------------------------------------------------
 ----------------------------------------------------------------
             Standard Nuclear Orientation (Bohr)
    I     Atom           X                Y                Z
 ----------------------------------------------------------------
    1      C       0.0000000000    -0.0000000000     1.7616000772
    2      O       0.0000000000    -0.0000000000     4.2626453788
    3      C      -2.4515146503    -0.0331342717     0.5854026033
    4      C       2.4515146503     0.0331342717     0.5854026033
    5      C       2.8430013288     1.0880866231    -1.8463666677
    6      C       4.5970400963    -0.8671930082     1.9264083375
    7      C       6.9748613791    -0.7928839619     0.8403562343
    8      C       5.2262074578     1.1225172668    -2.9109015756
    9      C       7.3157580598     0.1834271136    -1.5850434514
   10      H       1.2649900922     1.9042492020    -2.8578536668
   11      H       4.3392930822    -1.6659511958     3.7896568207
   12      H       5.4817259580     1.9198549006    -4.7799236178
   13      H       8.5807201718    -1.5192143035     1.8831820792
   14      H       9.1788078092     0.2325165625    -2.4295762444
   15      C      -2.8430013288    -1.0880866231    -1.8463666677
   16      C      -4.5970400963     0.8671930082     1.9264083375
   17      C      -5.2262074578    -1.1225172668    -2.9109015756
   18      C      -6.9748613791     0.7928839619     0.8403562343
   19      C      -7.3157580598    -0.1834271136    -1.5850434514
   20      H      -1.2649900922    -1.9042492020    -2.8578536668
   21      H      -5.4817259580    -1.9198549006    -4.7799236178
   22      H      -4.3392930822     1.6659511958     3.7896568207
   23      H      -8.5807201718     1.5192143035     1.8831820792
   24      H      -9.1788078092    -0.2325165625    -2.4295762444
 ----------------------------------------------------------------
 Molecular Point Group                 C2    NOp =  2
 Largest Abelian Subgroup              C2    NOp =  2
 Nuclear Repulsion Energy =         772.43069410 hartrees
 There are       48 alpha and       48 beta electrons
 Requested basis set is STO-3G
 There are 38 shells and 80 basis functions
WARNING: MEM_STATIC is adjusted to be 2000 MB!
 Total memory of 90000 MB is distributed as follows: 
   MEM_STATIC is set to 2000 MB
   QALLOC/CCMAN JOB total memory use is  88000 MB
 Warning: actual memory use might exceed 90000 MB

 Total QAlloc Memory Limit  90000 MB
 Mega-Array Size      1956 MB
 MEM_STATIC part      2000 MB

 A cutoff of  1.0D-14 yielded    626 shell pairs
 There are      3149 function pairs
 Smallest overlap matrix eigenvalue = 1.73E-01

 Scale SEOQF with 1.000000e-01/1.000000e+00/1.000000e-01

 Standard Electronic Orientation quadrupole field applied
 Nucleus-field energy     =     0.0000000231 hartrees
 Guess from superposition of atomic densities
 Warning:  Energy on first SCF cycle will be non-variational
 SAD guess density has 96.000000 electrons

 -----------------------------------------------------------------------
  General SCF calculation program by
  Eric Jon Sundstrom, Paul Horn, Yuezhi Mao, Dmitri Zuev, Alec White,
  David Stuck, Shaama M.S., Shane Yost, Joonho Lee, David Small,
  Daniel Levine, Susi Lehtola, Hugh Burton, Evgeny Epifanovsky,
  Bang C. Huynh
 -----------------------------------------------------------------------
 Hartree-Fock
 A restricted SCF calculation will be
 performed using DIIS, GDM
 SCF converges when RMS gradient is below 1.0e-08
 ---------------------------------------
  Cycle       Energy         DIIS error
 ---------------------------------------
    1    -566.3708510643      1.30e-01  
    2    -565.5685832192      1.40e-02  
    3    -565.7008724437      1.27e-02  
    4    -565.8437017932      1.50e-03  Done DIIS. Switching to GDM
 ---------------------------------------
  Cycle       Energy        RMS Gradient
 ---------------------------------------
    1    -565.8437017932      2.45e-02   Normal BFGS step
    2    -565.8472430670      7.65e-03   Normal BFGS step
    3    -565.8480136851      4.83e-03   Normal BFGS step
    4    -565.8481327665      1.10e-03   Normal BFGS step
    5    -565.8481681403      5.88e-04   Normal BFGS step
    6    -565.8481720702      2.32e-04   Normal BFGS step
    7    -565.8481724887      6.12e-05   Normal BFGS step
    8    -565.8481725292      2.47e-05   Normal BFGS step
    9    -565.8481725349      7.56e-06   Normal BFGS step
   10    -565.8481725360      5.62e-06   Normal BFGS step
   11    -565.8481725362      1.64e-06   Normal BFGS step
   12    -565.8481725362      1.17e-06   Normal BFGS step
   13    -565.8481725362      7.18e-07   Normal BFGS step
   14    -565.8481725362      3.65e-07   Normal BFGS step
   15    -565.8481725362      7.45e-08   Normal BFGS step
   16    -565.8481725362      1.28e-08   Normal BFGS step
   17    -565.8481725362      3.87e-09  Convergence criterion met
 ---------------------------------------
 SCF time:   CPU 2.58s  wall 4.00s 
 SCF   energy in the final basis set =     -565.8481725362
 Total energy in the final basis set =     -565.8481725362
 mp2 is not implemented in computing transition properties!


 ------------------------------------------------------------------------------

   CCMAN2: suite of methods based on coupled cluster
           and equation of motion theories.

   Components:
   * libvmm-1.3-trunk
     by Evgeny Epifanovsky, Ilya Kaliman.
   * libtensor-2.5-trunk
     by Evgeny Epifanovsky, Michael Wormit, Dmitry Zuev, Sam Manzer, 
        Ilya Kaliman.
   * libcc-2.5-trunk
     by Evgeny Epifanovsky, Arik Landau, Tomasz Kus, Kirill Khistyaev, 
        Dmitry Zuev, Prashant Manohar, Xintian Feng, Anna Krylov, 
        Matthew Goldey, Alec White, Thomas Jagau, Kaushik Nanda, 
        Anastasia Gunina, Alexander Kunitsa, Joonho Lee.

   CCMAN original authors:
   Anna I. Krylov, C. David Sherrill, Steven R. Gwaltney,
   Edward F. C. Byrd (2000)
   Sergey V. Levchenko, Lyudmila V. Slipchenko, Tao Wang,
   Ana-Maria C. Cristian (2003)
   Piotr A. Pieniazek, C. Melania Oana, Evgeny Epifanovsky (2007)
   Prashant Manohar (2009)

 ------------------------------------------------------------------------------


 Allocating and initializing 72000MB of RAM...
 Calculation will run on 1 core.

 
 Alpha MOs, Restricted
 -- Occupied --                  
-20.239 -11.098 -11.046 -11.046 -11.041 -11.041 -11.040 -11.040
  1 A     2 A     1 B     3 A     4 A     2 B     5 A     3 B                  
-11.039 -11.039 -11.036 -11.036 -11.036 -11.036  -1.260  -1.101
  4 B     6 A     5 B     7 A     8 A     6 B     9 A    10 A                  
 -1.097  -0.993  -0.966  -0.965  -0.960  -0.840  -0.786  -0.777
  7 B    11 A     8 B    12 A     9 B    13 A    10 B    14 A                  
 -0.767  -0.708  -0.670  -0.644  -0.607  -0.575  -0.570  -0.568
 11 B    15 A    12 B    16 A    13 B    17 A    14 B    18 A                  
 -0.544  -0.542  -0.541  -0.497  -0.483  -0.464  -0.456  -0.453
 19 A    15 B    16 B    20 A    17 B    21 A    22 A    18 B                  
 -0.435  -0.421  -0.389  -0.332  -0.292  -0.290  -0.280  -0.249
 19 B    23 A    20 B    21 B    24 A    22 B    25 A    23 B                  
 -- Virtual --                   
  0.176   0.245   0.265   0.268   0.357   0.486   0.521   0.571
 24 B    26 A    27 A    25 B    26 B    28 A    27 B    29 A                  
  0.588   0.615   0.638   0.647   0.674   0.690   0.708   0.720
 28 B    30 A    29 B    31 A    30 B    32 A    33 A    31 B                  
  0.720   0.730   0.763   0.789   0.861   0.863   0.882   0.882
 34 A    32 B    33 B    35 A    36 A    34 B    37 A    35 B                  
  0.895   0.897   0.956   0.964   1.080   1.089   1.136   1.150
 36 B    38 A    39 A    37 B    38 B    40 A    41 A    39 B                  
 
 Beta MOs, Restricted
 -- Occupied --                  
-20.239 -11.098 -11.046 -11.046 -11.041 -11.041 -11.040 -11.040
  1 A     2 A     1 B     3 A     4 A     2 B     5 A     3 B                  
-11.039 -11.039 -11.036 -11.036 -11.036 -11.036  -1.260  -1.101
  4 B     6 A     5 B     7 A     8 A     6 B     9 A    10 A                  
 -1.097  -0.993  -0.966  -0.965  -0.960  -0.840  -0.786  -0.777
  7 B    11 A     8 B    12 A     9 B    13 A    10 B    14 A                  
 -0.767  -0.708  -0.670  -0.644  -0.607  -0.575  -0.570  -0.568
 11 B    15 A    12 B    16 A    13 B    17 A    14 B    18 A                  
 -0.544  -0.542  -0.541  -0.497  -0.483  -0.464  -0.456  -0.453
 19 A    15 B    16 B    20 A    17 B    21 A    22 A    18 B                  
 -0.435  -0.421  -0.389  -0.332  -0.292  -0.290  -0.280  -0.249
 19 B    23 A    20 B    21 B    24 A    22 B    25 A    23 B                  
 -- Virtual --                   
  0.176   0.245   0.265   0.268   0.357   0.486   0.521   0.571
 24 B    26 A    27 A    25 B    26 B    28 A    27 B    29 A                  
  0.588   0.615   0.638   0.647   0.674   0.690   0.708   0.720
 28 B    30 A    29 B    31 A    30 B    32 A    33 A    31 B                  
  0.720   0.730   0.763   0.789   0.861   0.863   0.882   0.882
 34 A    32 B    33 B    35 A    36 A    34 B    37 A    35 B                  
  0.895   0.897   0.956   0.964   1.080   1.089   1.136   1.150
 36 B    38 A    39 A    37 B    38 B    40 A    41 A    39 B                  

 Occupation and symmetry of molecular orbitals

 Point group: C2 (2 irreducible representations).

                           A    B     All 
 ------------------------------------------
 All molecular orbitals:
  - Alpha                  41   39    80  
  - Beta                   41   39    80  
 ------------------------------------------
 Alpha orbitals:
  - Frozen occupied        8    6     14  
  - Active occupied        17   17    34  
  - Active virtual         16   16    32  
  - Frozen virtual         0    0     0   
 ------------------------------------------
 Beta orbitals:
  - Frozen occupied        8    6     14  
  - Active occupied        17   17    34  
  - Active virtual         16   16    32  
  - Frozen virtual         0    0     0   
 ------------------------------------------

 Import integrals:   CPU 0.00 s  wall 0.00 s

 Import integrals:   CPU 1.91 s  wall 2.14 s

 Computing CCSD intermediates for later calculations in double precision
 Finished.

 MP2 amplitudes:   CPU 1.11 s  wall 1.47 s

        Solving for EOMSF-CCSD A transitions.

Running a double precision version
       EOMSF-CCSD/MP2 right amplitudes will be solved using Davidson.
        Amplitudes will be solved using standard  algorithm.
     Hard-coded thresholds: 
     LinDepThresh=1.00e-15  NormThresh=1.00e-06  ReorthogonThresh=1.00e-02

      Roots     MaxVec    MaxIter   Precond   Conv      Shift    
      50        120       60        1         1.00e-05  0.00e+00  
 ------------------------------------------------------------------------------
      Iter ConvRoots NVecs ResNorm^2 Current eigenvalues (eV)
 ------------------------------------------------------------------------------
      0    0      100   1.34e-01   3.9344   4.1429   5.7366   8.4270   8.5727   9.8083   10.4448   10.6154   12.0847   12.1623   12.5112   12.8864   12.9080   13.1805   13.3070   13.3644   13.7366   14.0797   14.2839   14.4069   14.7746   15.0451   15.3253   15.5290   15.8084   15.9089   16.1480   16.3432   16.6277   16.8689   17.0155   17.3488   17.4344   17.6803   17.7442   17.8125   18.1139   18.3373   18.4695   18.5197   18.5539   18.6803   18.9921   19.0866   19.3421   19.3539   19.4686   19.5219   19.6081   19.6615   
      1    0      120   9.22e-02   1.9942   3.0078   4.7663   5.8932   6.1553   7.5945   8.3231   8.6712   8.7815   8.8978   9.2805   9.3310   9.7237   10.0394   10.1153   10.4349   10.6401   10.8776   11.4929   11.8412   14.7065   15.0360   15.2734   15.5054   15.6947   15.8817   16.0661   16.2831   16.5728   16.6546   16.8878   17.3111   17.4035   17.5548   17.6733   17.7747   18.1083   18.3186   18.4612   18.4830   18.5349   18.6460   18.7471   18.9738   19.0474   19.3386   19.4029   19.5154   19.5479   19.6501   
      2    0      100   7.30e-03   1.6487   2.8214   4.6014   5.3619   5.6565   7.3126   7.5270   7.9836   8.1102   8.2044   8.7149   8.8825   9.2516   9.3818   9.5945   9.9892   10.1543   10.2974   10.8681   10.9826   11.2565   11.4898   11.8250   11.9626   12.1123   12.2833   12.3943   12.4763   12.5898   12.9232   13.0405   13.1995   13.2202   13.4111   13.5313   13.5799   14.0038   14.1127   14.3915   14.4607   14.5023   14.7749   14.8853   15.0426   15.0756   15.1752   15.3472   15.5539   15.7991   16.0842   
      3    0      120   8.46e-03   1.5641   2.7810   4.5790   5.2573   5.5664   7.1810   7.4316   7.7083   7.9539   8.0303   8.5270   8.8036   9.1470   9.2281   9.4803   9.9090   10.0901   10.1691   10.7044   10.8559   11.1996   11.4497   11.7381   11.9111   12.0160   12.2318   12.3096   12.4076   12.4985   12.6448   12.9740   13.0446   13.1904   13.3303   13.4959   13.5454   13.9046   14.0842   14.1805   14.3578   14.4811   14.7484   14.8670   14.9652   15.0658   15.1395   15.2950   15.4001   15.5641   15.7654   
      4    0      100   3.30e-03   1.5489   2.7718   4.5772   5.2515   5.5620   7.1728   7.4278   7.6500   7.9366   8.0031   8.4494   8.7893   9.1319   9.1748   9.4734   9.9060   10.0818   10.1196   10.5913   10.8451   10.9861   11.2638   11.5053   11.5891   11.7565   11.9112   12.0098   12.0792   12.2176   12.3693   12.3924   12.6947   12.8063   12.9208   13.0303   13.2886   13.3403   13.8000   13.8391   13.9371   14.1293   14.2897   14.5191   14.6954   14.8196   14.8986   14.9750   15.0868   15.3212   15.4156   
      5    1      120   3.91e-03   1.5444   2.7673   4.5752*  5.2478   5.5589   7.1318   7.4046   7.4298   7.9216   7.9685   8.3594   8.7538   9.0494   9.1248   9.4437   9.8896   9.9703   10.0761   10.2353   10.6630   10.7979   10.8445   11.1904   11.3621   11.5574   11.6982   11.8779   11.9519   12.0452   12.2160   12.3106   12.6288   12.7583   12.8366   12.9742   13.2105   13.3070   13.3384   13.5288   13.8886   14.0435   14.1979   14.3301   14.4457   14.6566   14.7120   14.8717   14.9139   14.9847   15.1871   
      6    5      99    1.12e-03   1.5440*  2.7668*  4.5752*  5.2477*  5.5585*  7.1312   7.3534   7.4188   7.9199   7.9550   8.3376   8.7338   9.0007   9.1210   9.4424   9.8692   9.9055   9.9642   10.0832   10.4692   10.6529   10.8420   11.0004   11.2826   11.4967   11.6301   11.7105   11.8259   11.9600   12.1068   12.2072   12.3397   12.4561   12.6693   12.7645   12.8167   13.0424   13.1238   13.2318   13.7369   13.8306   13.9676   14.1433   14.1899   14.4266   14.5742   14.6847   14.7701   14.9403   15.0363   
      7    7      120   9.48e-04   1.5439*  2.7666*  4.5751*  5.2477*  5.5583*  7.1240   7.3218   7.4164*  7.9182   7.9479   8.3269   8.7253   8.9860   9.1187   9.4377   9.8193   9.8687   9.9017   10.0790   10.4106   10.6082   10.8413*  10.9118   11.2502   11.4788   11.6130   11.6661   11.8043   11.9541   12.0925   12.1826   12.2595   12.3373   12.6507   12.7250   12.7703   12.8821   13.0876   13.2238   13.7173   13.8032   13.9332   14.0838   14.1571   14.4001   14.5473   14.6544   14.7444   14.8960   15.0124   
      8    9      93    5.48e-04   1.5440*  2.7666*  4.5751*  5.2477*  5.5583*  7.1259   7.3208   7.4168*  7.9184*  7.9468   8.3252   8.7231   8.9797   9.1184*  9.4385   9.7892   9.8372   9.8980   10.0782   10.3857   10.5920   10.8412*  10.8806   11.2415   11.4701   11.6012   11.6378   11.7955   11.9449   12.0768   12.1601   12.2175   12.2737   12.6360   12.6500   12.7336   12.7982   13.0644   13.2141   13.6944   13.7731   13.8850   14.0283   14.1279   14.3642   14.5166   14.5584   14.6930   14.8057   14.9726   
      9    10     120   2.21e-03   1.5440*  2.7666*  4.5751*  5.2477*  5.5583*  7.1243*  7.3157   7.4163*  7.9180*  7.9463*  8.3239   8.7202   8.9746   9.1177*  9.4368   9.7629   9.8078   9.8959   10.0774   10.3738   10.5748   10.8404   10.8566   11.2259   11.4619   11.5661   11.5969   11.7503   11.9067   11.9814   12.0145   12.0672   12.1575   12.4680   12.5827   12.6681   12.7409   13.0243   13.1993   13.5842   13.6753   13.8086   13.9147   14.0584   14.2306   14.4151   14.4725   14.6539   14.7484   14.8787   
Found complex roots...
      10   14     90    6.59e-04   1.5439*  2.7666*  4.5751*  5.2476*  5.5583*  7.1243*  7.3152   7.4163*  7.9181*  7.9459*  8.3236*  8.7174   8.9700   9.1175*  9.4365*  9.7356   9.7922   9.8955*  10.0766*  10.3665   10.5574   10.8329   10.8416   11.1897   11.4268   11.4655   11.5899   11.6509   11.8034   11.9020   11.9583   12.0386   12.1380   12.3981   12.4587   12.5969   12.6916   12.8007   12.9341   13.2084   13.4545   13.7047   13.7724   13.9894   14.0423   14.2771   14.3864   14.5567   14.6489   14.7897   
      11   13     120   7.32e-04   1.5439*  2.7666*  4.5751*  5.2476*  5.5583*  7.1238*  7.3145*  7.4161*  7.9180*  7.9458*  8.3233*  8.7154   8.9668   9.1172*  9.4356   9.7039   9.7849   9.8947*  10.0759   10.3610   10.5023   10.7493   10.8405   10.8962   11.2499   11.4550   11.5761   11.5871   11.7673   11.8722   11.9179   12.0327   12.1157   12.2571   12.3750   12.5443   12.6590   12.7172   12.8249   13.1860   13.2715   13.6669   13.7310   13.9497   13.9899   14.2181   14.3502   14.5232   14.6229   14.7584   
      12   14     87    3.34e-04   1.5439*  2.7666*  4.5751*  5.2476*  5.5583*  7.1239*  7.3146*  7.4161*  7.9180*  7.9458*  8.3233*  8.7149   8.9652   9.1169*  9.4351*  9.6674   9.7822   9.8948*  10.0754   10.3311   10.3871   10.6306   10.8396   10.8560   11.2362   11.4528   11.5644   11.5842   11.7629   11.8708   11.9178   12.0296   12.1045   12.2189   12.3496   12.4408   12.6450   12.6804   12.7420   13.1625   13.1834   13.6555   13.7167   13.9129   13.9729   14.1734   14.3218   14.4958   14.6003   14.7269   
      13   15     120   5.76e-04   1.5439*  2.7666*  4.5751*  5.2476*  5.5583*  7.1239*  7.3144*  7.4161*  7.9180*  7.9458*  8.3233*  8.7145*  8.9641   9.1169*  9.4341*  9.6306   9.7797   9.8942*  10.0740   10.1772   10.3653   10.5987   10.8376   10.8465   11.2280   11.4503   11.5486   11.5817   11.7566   11.8363   11.9097   12.0155   12.0842   12.1455   12.1989   12.3136   12.6147   12.6598   12.7060   13.0911   13.1779   13.6437   13.6916   13.8397   13.9477   14.0790   14.2349   14.4547   14.5747   14.6633   
      14   18     85    1.74e-04   1.5439*  2.7666*  4.5751*  5.2476*  5.5583*  7.1239*  7.3144*  7.4161*  7.9180*  7.9458*  8.3233*  8.7140*  8.9635*  9.1168*  9.4340*  9.6202   9.7787*  9.8942*  10.0720   10.1377   10.3650*  10.5926   10.8362   10.8443   11.2247   11.4489   11.5451   11.5783   11.7548   11.8356   11.9066   11.9491   12.0440   12.0785   12.1827   12.3026   12.6045   12.6542   12.6960   13.0620   13.1712   13.6328   13.6641   13.7836   13.9283   14.0003   14.1937   14.4044   14.5269   14.5841   
      15   19     117   3.30e-04   1.5439*  2.7666*  4.5751*  5.2476*  5.5583*  7.1239*  7.3144*  7.4161*  7.9180*  7.9458*  8.3232*  8.7140*  8.9634*  9.1168*  9.4339*  9.6170   9.7784*  9.8940*  10.0711   10.1240   10.3646*  10.5907   10.8351   10.8440*  11.2220   11.4479   11.5392   11.5758   11.7526   11.8137   11.8507   11.9131   12.0346   12.0711   12.1753   12.2861   12.5988   12.6513   12.6910   13.0476   13.1664   13.6136   13.6262   13.7337   13.8929   13.9535   14.1717   14.3371   14.4422   14.5231   
      16   21     120   5.54e-04   1.5439*  2.7666*  4.5751*  5.2476*  5.5583*  7.1239*  7.3144*  7.4161*  7.9180*  7.9458*  8.3233*  8.7140*  8.9635*  9.1168*  9.4339*  9.6145*  9.7783*  9.8940*  10.0700*  10.1152   10.3645*  10.5894   10.8343   10.8433*  11.2198   11.4474   11.5350   11.5725   11.7482   11.7596   11.8120   11.9102   12.0300   12.0664   12.1642   12.2836   12.5917   12.6489   12.6784   13.0296   13.1587   13.2153   13.6180   13.7035   13.8049   13.8435   13.9470   14.1365   14.3526   14.4525   
      17   27     79    1.44e-04   1.5439*  2.7666*  4.5751*  5.2476*  5.5583*  7.1239*  7.3144*  7.4161*  7.9180*  7.9458*  8.3232*  8.7140*  8.9635*  9.1168*  9.4339*  9.6146*  9.7783*  9.8940*  10.0699*  10.1140*  10.3644*  10.5889*  10.8337*  10.8433*  11.2189*  11.4469*  11.5336   11.5717   11.7407   11.7504   11.8074   11.9096*  12.0283   12.0618   12.1610   12.2787   12.5872   12.6461   12.6708   12.9788   13.0496   13.1660   13.5966   13.6820   13.7016   13.7903   13.9323   14.1167   14.2882   14.3989   
      18   28     102   1.89e-04   1.5439*  2.7666*  4.5751*  5.2476*  5.5583*  7.1239*  7.3144*  7.4161*  7.9180*  7.9458*  8.3232*  8.7140*  8.9635*  9.1168*  9.4339*  9.6145*  9.7783*  9.8940*  10.0698*  10.1138*  10.3642*  10.5889*  10.8338*  10.8433*  11.2187*  11.4466*  11.5316   11.5709*  11.7367   11.7486   11.8019   11.9092*  12.0270   12.0598   12.1581   12.2697   12.5820   12.6431   12.6643   12.9078   13.0352   13.1590   13.5027   13.6276   13.6822   13.7601   13.9182   14.1016   14.2265   14.3809   
      19   30     120   1.09e-03   1.5439*  2.7666*  4.5751*  5.2476*  5.5583*  7.1239*  7.3144*  7.4161*  7.9180*  7.9458*  8.3232*  8.7140*  8.9635*  9.1168*  9.4339*  9.6145*  9.7782*  9.8940*  10.0698*  10.1137*  10.3642*  10.5888*  10.8335*  10.8431*  11.2186*  11.4464*  11.5305*  11.5699*  11.7330   11.7475*  11.7997   11.9089*  12.0258   12.0567   12.1561   12.2599   12.5757   12.6388   12.6590   12.8494   13.0167   13.1015   13.1121   13.2406   13.5723   13.6407   13.7464   13.8164   13.9141   14.0141   
      20   27     70    7.24e-04   1.5439*  2.7666*  4.5751*  5.2476*  5.5583*  7.1239*  7.3144*  7.4161*  7.9180*  7.9458*  8.3232*  8.7140*  8.9635*  9.1168*  9.4339*  9.6145*  9.7782*  9.8940*  10.0698*  10.1137*  10.3642*  10.5889*  10.8336*  10.8432*  11.2185*  11.4464*  11.5302   11.5698   11.7305   11.7480   11.7982   11.8507   11.9090   12.0279   12.0561*  12.1584   12.2603   12.5748   12.6365   12.6580   12.8412   13.0064   13.0852   13.2157   13.5005   13.6112   13.6566   13.7291   13.8565   13.9394   
Found complex roots...
      21   31     93    1.34e-03   1.5439*  2.7666*  4.5751*  5.2476*  5.5583*  7.1239*  7.3144*  7.4161*  7.9180*  7.9458*  8.3232*  8.7140*  8.9635*  9.1168*  9.4339*  9.6146*  9.7782*  9.8940*  9.9220   10.0697*  10.1137*  10.3642*  10.5889*  10.8336*  10.8432*  11.2185*  11.4463*  11.5302*  11.5700*  11.7320*  11.7474*  11.7982   11.9089*  12.0258   12.0551   12.1545   12.2569   12.2569   12.5752   12.6409   12.6603   12.8423   13.0028   13.0781   13.2104   13.4935   13.6006   13.6676   13.8073   13.8715   
      22   35     111   3.41e-04   1.5439*  2.7666*  4.5751*  5.2476*  5.5583*  7.1239*  7.3144*  7.4161*  7.9180*  7.9458*  8.3232*  8.7140*  8.9635*  9.1168*  9.1877   9.4339*  9.6113   9.6205   9.7782*  9.8940*  10.0698*  10.1136*  10.3642*  10.5889*  10.8336*  10.8432*  11.2185*  11.4464*  11.5301*  11.5700*  11.7316*  11.7473*  11.7987*  11.9089*  12.0256*  12.0561*  12.1554*  12.2584*  12.5731   12.6350   12.6571   12.8245   12.9992   13.0726   13.2068   13.4661   13.5765   13.6543   13.7153   13.8081   
      23   38     120   2.35e-04   1.5439*  2.7666*  4.5751*  5.2476*  5.5583*  7.1239*  7.3144*  7.4161*  7.9180*  7.9458*  8.3232*  8.7140*  8.8697   8.9635*  9.1168*  9.1832   9.4339*  9.6145*  9.7782*  9.8940*  10.0698*  10.1136*  10.3642*  10.5889*  10.8336*  10.8432*  11.2185*  11.4464*  11.5303*  11.5700*  11.7313*  11.7472*  11.7988*  11.9089*  12.0255*  12.0558*  12.1550*  12.2580*  12.5721*  12.6334   12.6565*  12.8161   12.9960   13.0694   13.2035   13.4448   13.5292   13.5471   13.6496   13.7584   
      24   39     62    7.55e-05   1.5439*  2.7666*  4.5751*  5.2476*  5.5583*  7.1239*  7.3144*  7.4161*  7.9180*  7.9458*  8.3232*  8.7140*  8.7906   8.9635*  9.1168*  9.1389   9.4339*  9.6145*  9.7782*  9.8940*  10.0697*  10.1135*  10.3642*  10.5889*  10.8336*  10.8432*  11.2185*  11.4464*  11.5302*  11.5699*  11.7312*  11.7472*  11.7987*  11.9089*  12.0256*  12.0559*  12.1551*  12.2580*  12.5722*  12.6334*  12.6564*  12.8120   12.9957   13.0675   13.2015   13.4240   13.4667   13.5074   13.6491   13.7360   
      25   39     73    6.61e-05   1.5439*  2.7666*  4.5751*  5.2476*  5.5583*  7.1239*  7.3144*  7.4161*  7.9180*  7.9458*  8.3232*  8.7140*  8.7486   8.9635*  9.1168*  9.1177   9.4339*  9.6145*  9.7782*  9.8940*  10.0697*  10.1136*  10.3642*  10.5889*  10.8336*  10.8432*  11.2185*  11.4464*  11.5302*  11.5699*  11.7312*  11.7472*  11.7988*  11.9089*  12.0255*  12.0558*  12.1550*  12.2578*  12.5716*  12.6331*  12.6564*  12.8109   12.9947   13.0665   13.1999   13.3693   13.4356   13.4755   13.6476   13.7211   
      26   39     84    6.21e-05   1.5439*  2.7666*  4.5751*  5.2476*  5.5583*  7.1239*  7.3144*  7.4161*  7.9180*  7.9458*  8.3232*  8.7140*  8.7375   8.9635*  9.1115   9.1168*  9.4339*  9.6146*  9.7782*  9.8940*  10.0697*  10.1135*  10.3642*  10.5889*  10.8336*  10.8432*  11.2185*  11.4464*  11.5302*  11.5699*  11.7311*  11.7472*  11.7987*  11.9089*  12.0255*  12.0558*  12.1550*  12.2578*  12.5715*  12.6328*  12.6563*  12.8087   12.9941   13.0645   13.1955   13.3040   13.4240   13.4410   13.6429   13.7028   
      27   38     95    5.89e-04   1.5439*  2.7666*  4.5751*  5.2476*  5.5583*  7.1239*  7.3144*  7.4161*  7.9180*  7.9458*  8.3232*  8.7140*  8.7355   8.9635*  9.1103   9.1168*  9.4339*  9.6145*  9.7782*  9.8940*  10.0697*  10.1135*  10.3642*  10.5889*  10.8336*  10.8432*  11.2185*  11.4464*  11.5302*  11.5699*  11.7312*  11.7472*  11.7988*  11.9089*  12.0255*  12.0558*  12.1549*  12.2578*  12.5715*  12.6326   12.6561*  12.7871   12.8211   12.9937   13.0625   13.1921   13.2909   13.4146   13.4263   13.6446   
      28   41     107   3.49e-04   1.5439*  2.7666*  4.5751*  5.2476*  5.5583*  7.1239*  7.3144*  7.4161*  7.9180*  7.9458*  8.3232*  8.7140*  8.7351*  8.9635*  9.1100*  9.1168*  9.4339*  9.6145*  9.7782*  9.8940*  10.0697*  10.1135*  10.3642*  10.5889*  10.8336*  10.8432*  11.2185*  11.4464*  11.5302*  11.5490   11.5698   11.7311*  11.7472*  11.7988*  11.9089*  12.0255*  12.0558*  12.1549*  12.2578*  12.5713*  12.6326*  12.6561*  12.8074   12.9933*  13.0620   13.1857   13.2510   13.3784   13.4097   13.6420   
      29   42     116   2.21e-04   1.5439*  2.7666*  4.5751*  5.2476*  5.5583*  7.1239*  7.3144*  7.4161*  7.9180*  7.9458*  8.3232*  8.7140*  8.7350*  8.9635*  9.1099*  9.1168*  9.4339*  9.6145*  9.7782*  9.8940*  10.0697*  10.1135*  10.3642*  10.5617   10.5889*  10.8336*  10.8432*  11.2185*  11.4464*  11.5302*  11.5699*  11.7311*  11.7472*  11.7987*  11.9089*  12.0255*  12.0558*  12.1549*  12.2578*  12.5714*  12.6325*  12.6561*  12.8064   12.9930*  13.0610   13.1771   13.2350   13.3409   13.4055   13.6392   
Found complex roots...
      30   43     120   8.20e-05   1.5439*  2.7666*  4.5751*  5.2476*  5.5583*  7.1239*  7.3144*  7.4161*  7.9180*  7.9458*  8.3232*  8.7140*  8.7350*  8.9635*  9.1099*  9.1168*  9.4339*  9.6145*  9.7782*  9.8940*  10.0697*  10.1135*  10.2924   10.3642*  10.5889*  10.8336*  10.8432*  11.2185*  11.4464*  11.5302*  11.5699*  11.7311*  11.7472*  11.7988*  11.9089*  12.0255*  12.0558*  12.1549*  12.2578*  12.5712*  12.6325*  12.6560*  12.8058*  12.9929*  13.0601   13.1687   13.2246   13.3264   13.4044   13.6328   
      31   44     57    3.37e-05   1.5439*  2.7666*  4.5751*  5.2476*  5.5583*  7.1239*  7.3144*  7.4161*  7.9180*  7.9458*  8.3232*  8.7140*  8.7350*  8.9635*  9.1099*  9.1168*  9.4339*  9.6145*  9.7782*  9.8940*  10.0697*  10.1135*  10.2282   10.3642*  10.5889*  10.8336*  10.8432*  11.2185*  11.4464*  11.5302*  11.5699*  11.7311*  11.7472*  11.7987*  11.9089*  12.0255*  12.0558*  12.1549*  12.2578*  12.5713*  12.6324*  12.6561*  12.8058*  12.9929*  13.0598*  13.1631   13.2220   13.3054   13.4027   13.6240   
      32   43     63    4.20e-05   1.5439*  2.7666*  4.5751*  5.2476*  5.5583*  7.1239*  7.3144*  7.4161*  7.9180*  7.9458*  8.3232*  8.7140*  8.7350*  8.9635*  9.1099*  9.1168*  9.4339*  9.6145*  9.7782*  9.8940*  10.0697*  10.1135*  10.1864   10.3642*  10.5889*  10.8336*  10.8432*  11.2185*  11.4464*  11.5302*  11.5699*  11.7311*  11.7472*  11.7988*  11.9089*  12.0255*  12.0558*  12.1549*  12.2578*  12.5713*  12.6324*  12.6560*  12.8053*  12.9928*  13.0593   13.1585   13.2187   13.2838   13.4014   13.6012   
      33   39     70    5.64e-04   1.5439*  2.7666*  4.5751*  5.2476*  5.5583*  7.1239*  7.3144*  7.4161*  7.9180*  7.9458*  8.3233*  8.7140*  8.7350*  8.9635*  9.1099*  9.1168*  9.4339*  9.6145*  9.7782*  9.8940*  10.0697*  10.1135*  10.1722   10.3642*  10.5889*  10.8336*  10.8432*  11.2185*  11.4464*  11.5302*  11.5699*  11.7311*  11.7472*  11.7988*  11.9089*  12.0255*  12.0558*  12.1550*  12.2578*  12.5725   12.5842   12.6338   12.6558   12.8058   12.9927*  13.0604   13.1520   13.2156   13.3090   13.4008   
      34   42     81    1.49e-04   1.5439*  2.7666*  4.5751*  5.2476*  5.5583*  7.1239*  7.3144*  7.4161*  7.9180*  7.9458*  8.3232*  8.7140*  8.7350*  8.9635*  9.1099*  9.1168*  9.4339*  9.6145*  9.7782*  9.8940*  10.0697*  10.1135*  10.1657   10.3642*  10.5889*  10.8336*  10.8432*  11.2185*  11.4464*  11.5280   11.5298   11.5699*  11.7311*  11.7472*  11.7988*  11.9089*  12.0255*  12.0558*  12.1549*  12.2578*  12.5713*  12.6324*  12.6561*  12.8052*  12.9925*  13.0586   13.1111   13.2036   13.2575   13.3994   
      35   42     89    2.26e-04   1.5439*  2.7666*  4.5751*  5.2476*  5.5583*  7.1239*  7.3144*  7.4161*  7.9180*  7.9458*  8.3232*  8.7140*  8.7350*  8.9635*  9.1099*  9.1168*  9.4339*  9.6145*  9.7782*  9.8940*  10.0697*  10.1135*  10.1631   10.3642*  10.5889*  10.8336*  10.8432*  11.1611   11.2185*  11.4464*  11.5302*  11.5699*  11.7311*  11.7472*  11.7988*  11.9089*  12.0255*  12.0558*  12.1549*  12.2578*  12.5713*  12.6324*  12.6561*  12.7980   12.8194   12.9928*  13.0605   13.1733   13.2244   13.3166   
      36   45     97    9.52e-05   1.5439*  2.7666*  4.5751*  5.2476*  5.5583*  7.1239*  7.3144*  7.4161*  7.9180*  7.9458*  8.3232*  8.7140*  8.7350*  8.9635*  9.1099*  9.1168*  9.4339*  9.6145*  9.7782*  9.8940*  10.0697*  10.1135*  10.1621*  10.3642*  10.5889*  10.8336*  10.8432*  11.0409   11.2185*  11.4464*  11.5302*  11.5699*  11.7311*  11.7472*  11.7988*  11.9089*  12.0255*  12.0558*  12.1549*  12.2578*  12.5583   12.5714*  12.6325*  12.6560*  12.8058*  12.9927*  13.0597*  13.1653   13.2205   13.2970   
      37   45     102   6.57e-05   1.5439*  2.7666*  4.5751*  5.2476*  5.5583*  7.1239*  7.3144*  7.4161*  7.9180*  7.9458*  8.3232*  8.7140*  8.7350*  8.9635*  9.1099*  9.1168*  9.4339*  9.6145*  9.7782*  9.8940*  10.0697*  10.1135*  10.1620*  10.3642*  10.5889*  10.8336*  10.8432*  11.0020   11.2185*  11.4464*  11.5302*  11.5699*  11.7311*  11.7472*  11.7988*  11.9089*  12.0255*  12.0558*  12.1549*  12.2578*  12.4422   12.5713*  12.6325*  12.6561*  12.8058*  12.9927*  13.0596*  13.1620   13.2158   13.2789   
      38   44     107   1.40e-04   1.5439*  2.7666*  4.5751*  5.2476*  5.5583*  7.1239*  7.3144*  7.4161*  7.9180*  7.9458*  8.3232*  8.7140*  8.7350*  8.9635*  9.1099*  9.1168*  9.4339*  9.6145*  9.7782*  9.8940*  10.0697*  10.1135*  10.1619*  10.3642*  10.5889*  10.8336*  10.8432*  10.9874   11.2185*  11.4464*  11.5302*  11.5699*  11.7311*  11.7472*  11.7988*  11.9089*  12.0255*  12.0558*  12.1549*  12.2578*  12.3815   12.5713*  12.6324*  12.6561*  12.8056*  12.9656   12.9926   13.0600*  13.1632   13.2216   
      39   45     113   7.90e-05   1.5439*  2.7666*  4.5751*  5.2476*  5.5583*  7.1239*  7.3144*  7.4161*  7.9180*  7.9458*  8.3232*  8.7140*  8.7350*  8.9635*  9.1099*  9.1168*  9.4339*  9.6145*  9.7782*  9.8940*  10.0697*  10.1135*  10.1618*  10.3642*  10.5889*  10.8336*  10.8432*  10.9841   11.2185*  11.4464*  11.5302*  11.5699*  11.7311*  11.7472*  11.7988*  11.9089*  12.0255*  12.0558*  12.1549*  12.2578*  12.3610   12.5713*  12.6325*  12.6561*  12.7127   12.8057*  12.9927*  13.0596*  13.1624   13.2199   
      40   46     118   3.60e-05   1.5439*  2.7666*  4.5751*  5.2476*  5.5583*  7.1239*  7.3144*  7.4161*  7.9180*  7.9458*  8.3232*  8.7140*  8.7350*  8.9635*  9.1099*  9.1168*  9.4339*  9.6145*  9.7782*  9.8940*  10.0697*  10.1135*  10.1617*  10.3642*  10.5889*  10.8336*  10.8432*  10.9829   11.2185*  11.4464*  11.5302*  11.5699*  11.7311*  11.7472*  11.7988*  11.9089*  12.0255*  12.0558*  12.1549*  12.2578*  12.3511   12.5626   12.5713*  12.6324*  12.6561*  12.8057*  12.9926*  13.0596*  13.1618   13.2191*  
      41   47     120   3.64e-05   1.5439*  2.7666*  4.5751*  5.2476*  5.5583*  7.1239*  7.3144*  7.4161*  7.9180*  7.9458*  8.3232*  8.7140*  8.7350*  8.9635*  9.1099*  9.1168*  9.4339*  9.6145*  9.7782*  9.8940*  10.0697*  10.1135*  10.1617*  10.3642*  10.5889*  10.8336*  10.8432*  10.9825*  11.2185*  11.4464*  11.5302*  11.5699*  11.7311*  11.7472*  11.7988*  11.9089*  12.0255*  12.0558*  12.1549*  12.2578*  12.3451   12.5518   12.5713*  12.6325*  12.6561*  12.8056*  12.9926*  13.0596*  13.1616   13.2191*  
      42   48     53    1.45e-05   1.5439*  2.7666*  4.5751*  5.2476*  5.5583*  7.1239*  7.3144*  7.4161*  7.9180*  7.9458*  8.3232*  8.7140*  8.7350*  8.9635*  9.1099*  9.1168*  9.4339*  9.6145*  9.7782*  9.8940*  10.0697*  10.1135*  10.1617*  10.3642*  10.5889*  10.8336*  10.8432*  10.9825*  11.2185*  11.4464*  11.5302*  11.5699*  11.7311*  11.7472*  11.7988*  11.9089*  12.0255*  12.0558*  12.1549*  12.2578*  12.3429   12.5080   12.5713*  12.6324*  12.6561*  12.8056*  12.9927*  13.0595*  13.1610*  13.2193*  
      43   48     55    1.17e-05   1.5439*  2.7666*  4.5751*  5.2476*  5.5583*  7.1239*  7.3144*  7.4161*  7.9180*  7.9458*  8.3232*  8.7140*  8.7350*  8.9635*  9.1099*  9.1168*  9.4339*  9.6145*  9.7782*  9.8940*  10.0697*  10.1135*  10.1617*  10.3642*  10.5889*  10.8336*  10.8432*  10.9825*  11.2185*  11.4464*  11.5302*  11.5699*  11.7311*  11.7472*  11.7988*  11.9089*  12.0255*  12.0558*  12.1549*  12.2578*  12.3408   12.4755   12.5713*  12.6324*  12.6561*  12.8056*  12.9927*  13.0596*  13.1606*  13.2192*  
      44   47     57    7.54e-06   1.5439*  2.7666*  4.5751*  5.2476*  5.5583*  7.1239*  7.3144*  7.4161*  7.9180*  7.9458*  8.3232*  8.7140*  8.7350*  8.9635*  9.1099*  9.1168*  9.4339*  9.6145*  9.7782*  9.8940*  10.0697*  10.1135*  10.1617*  10.3642*  10.5889*  10.8336*  10.8432*  10.9825*  11.2185*  11.4464*  11.5302*  11.5699*  11.7311*  11.7472*  11.7988*  11.9089*  12.0255*  12.0558*  12.1549*  12.2578*  12.3390   12.4556   12.5713*  12.6324*  12.6561*  12.8056*  12.9927*  13.0595*  13.1606   13.2190*  
      45   47     60    4.92e-06   1.5439*  2.7666*  4.5751*  5.2476*  5.5583*  7.1239*  7.3144*  7.4161*  7.9180*  7.9458*  8.3232*  8.7140*  8.7350*  8.9635*  9.1099*  9.1168*  9.4339*  9.6145*  9.7782*  9.8940*  10.0697*  10.1135*  10.1617*  10.3642*  10.5889*  10.8336*  10.8432*  10.9825*  11.2185*  11.4464*  11.5302*  11.5699*  11.7311*  11.7472*  11.7988*  11.9089*  12.0255*  12.0558*  12.1549*  12.2578*  12.3375   12.4434   12.5713*  12.6324*  12.6561*  12.8056*  12.9926*  13.0595*  13.1598   13.2190*  
      46   47     63    4.88e-06   1.5439*  2.7666*  4.5751*  5.2476*  5.5583*  7.1239*  7.3144*  7.4161*  7.9180*  7.9458*  8.3232*  8.7140*  8.7350*  8.9635*  9.1099*  9.1168*  9.4339*  9.6145*  9.7782*  9.8940*  10.0697*  10.1135*  10.1617*  10.3642*  10.5889*  10.8336*  10.8432*  10.9825*  11.2185*  11.4464*  11.5302*  11.5699*  11.7311*  11.7472*  11.7988*  11.9089*  12.0255*  12.0558*  12.1549*  12.2578*  12.3363   12.4371   12.5713*  12.6324*  12.6561*  12.8056*  12.9927*  13.0595*  13.1572   13.2191*  
      47   44     66    1.26e-04   1.5439*  2.7666*  4.5751*  5.2476*  5.5583*  7.1239*  7.3144*  7.4161*  7.9180*  7.9458*  8.3232*  8.7140*  8.7350*  8.9635*  9.1099*  9.1168*  9.4339*  9.6145*  9.7782*  9.8940*  10.0697*  10.1135*  10.1617*  10.3642*  10.5889*  10.8336*  10.8432*  10.9825*  11.2185*  11.4464*  11.5302*  11.5699*  11.7311*  11.7472*  11.7988*  11.9089*  12.0255*  12.0558*  12.1549*  12.2578*  12.3347   12.4333   12.5713*  12.6324*  12.6561*  12.8056*  12.9925   13.0287   13.0597   13.1680   
      48   45     72    6.36e-05   1.5439*  2.7666*  4.5751*  5.2476*  5.5583*  7.1239*  7.3144*  7.4161*  7.9180*  7.9458*  8.3232*  8.7140*  8.7350*  8.9635*  9.1099*  9.1168*  9.4339*  9.6145*  9.7782*  9.8940*  10.0697*  10.1135*  10.1616*  10.3642*  10.5889*  10.8336*  10.8432*  10.9825*  11.2185*  11.4464*  11.5302*  11.5699*  11.7311*  11.7472*  11.7988*  11.9089*  12.0255*  12.0558*  12.1549*  12.2578*  12.3328   12.4305   12.5713*  12.6324*  12.6560*  12.7867   12.8078   12.9927*  13.0597*  13.1626   
      49   47     77    3.64e-05   1.5439*  2.7666*  4.5751*  5.2476*  5.5583*  7.1239*  7.3144*  7.4161*  7.9180*  7.9458*  8.3232*  8.7140*  8.7350*  8.9635*  9.1099*  9.1168*  9.4339*  9.6145*  9.7782*  9.8940*  10.0697*  10.1135*  10.1616*  10.3642*  10.5889*  10.8336*  10.8432*  10.9825*  11.2185*  11.4464*  11.5302*  11.5699*  11.7311*  11.7472*  11.7988*  11.9089*  12.0255*  12.0558*  12.1549*  12.2578*  12.3306   12.4277   12.5713*  12.6323*  12.6460   12.6560*  12.8056*  12.9927*  13.0596*  13.1621*  
      50   47     80    1.93e-05   1.5439*  2.7666*  4.5751*  5.2476*  5.5583*  7.1239*  7.3144*  7.4161*  7.9180*  7.9458*  8.3232*  8.7140*  8.7350*  8.9635*  9.1099*  9.1168*  9.4339*  9.6145*  9.7782*  9.8940*  10.0697*  10.1135*  10.1616*  10.3642*  10.5889*  10.8336*  10.8432*  10.9825*  11.2185*  11.4464*  11.5302*  11.5699*  11.7311*  11.7472*  11.7988*  11.9089*  12.0255*  12.0558*  12.1549*  12.2578*  12.3289   12.4247   12.5713*  12.5762   12.6325*  12.6561*  12.8057*  12.9927*  13.0596*  13.1618*  
      51   47     83    1.32e-05   1.5439*  2.7666*  4.5751*  5.2476*  5.5583*  7.1239*  7.3144*  7.4161*  7.9180*  7.9458*  8.3232*  8.7140*  8.7350*  8.9635*  9.1099*  9.1168*  9.4339*  9.6145*  9.7782*  9.8940*  10.0697*  10.1135*  10.1616*  10.3642*  10.5889*  10.8336*  10.8432*  10.9825*  11.2185*  11.4464*  11.5302*  11.5699*  11.7311*  11.7472*  11.7988*  11.9089*  12.0255*  12.0558*  12.1549*  12.2578*  12.3277   12.4218   12.5400   12.5713*  12.6324*  12.6561*  12.8057*  12.9927*  13.0596*  13.1616*  
      52   47     86    9.17e-06   1.5439*  2.7666*  4.5751*  5.2476*  5.5583*  7.1239*  7.3144*  7.4161*  7.9180*  7.9458*  8.3232*  8.7140*  8.7350*  8.9635*  9.1099*  9.1168*  9.4339*  9.6145*  9.7782*  9.8940*  10.0697*  10.1135*  10.1616*  10.3642*  10.5889*  10.8336*  10.8432*  10.9825*  11.2185*  11.4464*  11.5302*  11.5699*  11.7311*  11.7472*  11.7988*  11.9089*  12.0255*  12.0558*  12.1549*  12.2578*  12.3265   12.4173   12.5164   12.5713*  12.6324*  12.6561*  12.8056*  12.9927*  13.0596*  13.1617*  
      53   47     89    5.12e-05   1.5439*  2.7666*  4.5751*  5.2476*  5.5583*  7.1239*  7.3144*  7.4161*  7.9180*  7.9458*  8.3232*  8.7140*  8.7350*  8.9635*  9.1099*  9.1168*  9.4339*  9.6145*  9.7782*  9.8940*  10.0697*  10.1135*  10.1616*  10.3642*  10.5889*  10.8336*  10.8432*  10.9825*  11.2185*  11.4464*  11.5302*  11.5699*  11.7311*  11.7472*  11.7988*  11.9089*  12.0255*  12.0558*  12.1549*  12.2578*  12.3258*  12.4135   12.5041   12.5713*  12.6324*  12.6561*  12.8057*  12.9871   12.9926*  13.0596*  
      54   47     92    4.25e-05   1.5439*  2.7666*  4.5751*  5.2476*  5.5583*  7.1239*  7.3144*  7.4161*  7.9180*  7.9458*  8.3232*  8.7140*  8.7350*  8.9635*  9.1099*  9.1168*  9.4339*  9.6145*  9.7782*  9.8940*  10.0697*  10.1135*  10.1616*  10.3642*  10.5889*  10.8336*  10.8432*  10.9825*  11.2185*  11.4464*  11.5302*  11.5699*  11.7311*  11.7472*  11.7988*  11.9089*  12.0255*  12.0558*  12.1549*  12.2578*  12.3254*  12.4107   12.4992   12.5713*  12.6324*  12.6561*  12.8056*  12.8494   12.9927*  13.0596*  
      55   47     95    2.68e-05   1.5439*  2.7666*  4.5751*  5.2476*  5.5583*  7.1239*  7.3144*  7.4161*  7.9180*  7.9458*  8.3232*  8.7140*  8.7350*  8.9635*  9.1099*  9.1168*  9.4339*  9.6145*  9.7782*  9.8940*  10.0697*  10.1135*  10.1616*  10.3642*  10.5889*  10.8336*  10.8432*  10.9825*  11.2185*  11.4464*  11.5302*  11.5699*  11.7311*  11.7472*  11.7988*  11.9089*  12.0255*  12.0558*  12.1549*  12.2578*  12.3253*  12.4085   12.4966   12.5713*  12.6324*  12.6561*  12.7673   12.8057*  12.9927*  13.0596*  
      56   47     98    1.69e-05   1.5439*  2.7666*  4.5751*  5.2476*  5.5583*  7.1239*  7.3144*  7.4161*  7.9180*  7.9458*  8.3232*  8.7140*  8.7350*  8.9635*  9.1099*  9.1168*  9.4339*  9.6145*  9.7782*  9.8940*  10.0697*  10.1135*  10.1616*  10.3642*  10.5889*  10.8336*  10.8432*  10.9824*  11.2185*  11.4464*  11.5302*  11.5699*  11.7311*  11.7472*  11.7988*  11.9089*  12.0255*  12.0558*  12.1549*  12.2578*  12.3252*  12.4068   12.4951   12.5713*  12.6324*  12.6561*  12.7136   12.8056*  12.9927*  13.0596*  
      57   47     101   1.16e-05   1.5439*  2.7666*  4.5751*  5.2476*  5.5583*  7.1239*  7.3144*  7.4161*  7.9180*  7.9458*  8.3232*  8.7140*  8.7349*  8.9635*  9.1099*  9.1168*  9.4339*  9.6145*  9.7782*  9.8940*  10.0697*  10.1135*  10.1616*  10.3642*  10.5889*  10.8336*  10.8432*  10.9824*  11.2185*  11.4464*  11.5302*  11.5699*  11.7311*  11.7472*  11.7988*  11.9089*  12.0255*  12.0558*  12.1549*  12.2578*  12.3251*  12.4057   12.4942   12.5713*  12.6324*  12.6561*  12.6823   12.8056*  12.9927*  13.0596*  
      58   48     104   6.68e-06   1.5439*  2.7666*  4.5751*  5.2476*  5.5583*  7.1239*  7.3144*  7.4161*  7.9180*  7.9458*  8.3232*  8.7140*  8.7349*  8.9635*  9.1099*  9.1168*  9.4339*  9.6145*  9.7782*  9.8940*  10.0697*  10.1135*  10.1616*  10.3642*  10.5889*  10.8336*  10.8432*  10.9824*  11.2185*  11.4464*  11.5302*  11.5699*  11.7311*  11.7472*  11.7988*  11.9089*  12.0255*  12.0558*  12.1549*  12.2578*  12.3251*  12.4049   12.4935*  12.5713*  12.6324*  12.6561*  12.6611   12.8057*  12.9927*  13.0596*  
      59   49     106   3.91e-06   1.5439*  2.7666*  4.5751*  5.2476*  5.5583*  7.1239*  7.3144*  7.4161*  7.9180*  7.9458*  8.3232*  8.7140*  8.7349*  8.9635*  9.1099*  9.1168*  9.4339*  9.6145*  9.7782*  9.8940*  10.0697*  10.1135*  10.1616*  10.3642*  10.5889*  10.8336*  10.8432*  10.9824*  11.2185*  11.4464*  11.5302*  11.5699*  11.7311*  11.7472*  11.7988*  11.9089*  12.0255*  12.0558*  12.1549*  12.2578*  12.3251*  12.4043*  12.4931*  12.5713*  12.6324*  12.6491   12.6561*  12.8057*  12.9927*  13.0596*  

     Max Davidson iteration exhausted

 EOMSF transition 1/A
 Total energy = -566.61365556 a.u.  Excitation energy = 1.5439 eV.
 R1^2 = 0.9059  R2^2 = 0.0941  Res^2 = 3.24e-07
 Conv-d = yes

 Amplitude    Transitions between orbitals
 -0.8298       21 (B) A                  ->    24 (B) B                   
  0.3351       21 (B) A                  ->    26 (B) B                   
  0.1771       23 (B) A                  ->    24 (B) B                   
 -0.1313       18 (B) A                  ->    24 (B) B                   

              Summary of significant orbitals:

               Number  Type             Irrep      Energy
               40      Occ  Alpha      18 (B)     -0.4528
               44      Occ  Alpha      21 (B)     -0.3316
               48      Occ  Alpha      23 (B)     -0.2487
               49      Vir  Beta       24 (B)      0.1756
               53      Vir  Beta       26 (B)      0.3574


 EOMSF transition 2/A
 Total energy = -566.56872314 a.u.  Excitation energy = 2.7666 eV.
 R1^2 = 0.9416  R2^2 = 0.0584  Res^2 = 1.14e-07
 Conv-d = yes

 Amplitude    Transitions between orbitals
  0.7942       23 (B) A                  ->    24 (B) B                   
  0.2855       20 (B) A                  ->    24 (B) B                   
 -0.2516       25 (A) A                  ->    26 (A) B                   
 -0.2241       20 (B) A                  ->    26 (B) B                   
  0.1677       21 (B) A                  ->    24 (B) B                   
 -0.1244       22 (B) A                  ->    25 (B) B                   
 -0.1207       24 (A) A                  ->    27 (A) B                   
 -0.1157       23 (B) A                  ->    26 (B) B                   

              Summary of significant orbitals:

               Number  Type             Irrep      Energy
               45      Occ  Alpha      24 (A)     -0.2922
               47      Occ  Alpha      25 (A)     -0.2802
               43      Occ  Alpha      20 (B)     -0.3894
               44      Occ  Alpha      21 (B)     -0.3316
               46      Occ  Alpha      22 (B)     -0.2896
               48      Occ  Alpha      23 (B)     -0.2487
               50      Vir  Beta       26 (A)      0.2450
               51      Vir  Beta       27 (A)      0.2652
               49      Vir  Beta       24 (B)      0.1756
               52      Vir  Beta       25 (B)      0.2682
               53      Vir  Beta       26 (B)      0.3574


 EOMSF transition 3/A
 Total energy = -566.50226155 a.u.  Excitation energy = 4.5751 eV.
 R1^2 = 0.9599  R2^2 = 0.0401  Res^2 = 9.99e-07
 Conv-d = yes

 Amplitude    Transitions between orbitals
 -0.4356       25 (A) A                  ->    26 (A) B                   
 -0.4305       22 (B) A                  ->    25 (B) B                   
 -0.4206       24 (A) A                  ->    27 (A) B                   
 -0.4092       20 (B) A                  ->    24 (B) B                   
  0.3640       23 (B) A                  ->    26 (B) B                   
 -0.1466       17 (B) A                  ->    24 (B) B                   
  0.1050       25 (A) A                  ->    27 (A) B                   

              Summary of significant orbitals:

               Number  Type             Irrep      Energy
               45      Occ  Alpha      24 (A)     -0.2922
               47      Occ  Alpha      25 (A)     -0.2802
               37      Occ  Alpha      17 (B)     -0.4830
               43      Occ  Alpha      20 (B)     -0.3894
               46      Occ  Alpha      22 (B)     -0.2896
               48      Occ  Alpha      23 (B)     -0.2487
               50      Vir  Beta       26 (A)      0.2450
               51      Vir  Beta       27 (A)      0.2652
               49      Vir  Beta       24 (B)      0.1756
               52      Vir  Beta       25 (B)      0.2682
               53      Vir  Beta       26 (B)      0.3574


 EOMSF transition 4/A
 Total energy = -566.47754860 a.u.  Excitation energy = 5.2476 eV.
 R1^2 = 0.8633  R2^2 = 0.1367  Res^2 = 1.17e-06
 Conv-d = yes

 Amplitude    Transitions between orbitals
  0.5478       22 (B) A                  ->    24 (B) B                   
  0.4405       24 (A) A                  ->    26 (A) B                   
 -0.4285       23 (B) A                  ->    25 (B) B                   
  0.3780       25 (A) A                  ->    27 (A) B                   
  0.1474       22 (B) A                  ->    26 (B) B                   

              Summary of significant orbitals:

               Number  Type             Irrep      Energy
               45      Occ  Alpha      24 (A)     -0.2922
               47      Occ  Alpha      25 (A)     -0.2802
               46      Occ  Alpha      22 (B)     -0.2896
               48      Occ  Alpha      23 (B)     -0.2487
               50      Vir  Beta       26 (A)      0.2450
               51      Vir  Beta       27 (A)      0.2652
               49      Vir  Beta       24 (B)      0.1756
               52      Vir  Beta       25 (B)      0.2682
               53      Vir  Beta       26 (B)      0.3574


 EOMSF transition 5/A
 Total energy = -566.46612866 a.u.  Excitation energy = 5.5583 eV.
 R1^2 = 0.8762  R2^2 = 0.1238  Res^2 = 1.62e-06
 Conv-d = yes

 Amplitude    Transitions between orbitals
  0.4870       22 (B) A                  ->    25 (B) B                   
  0.4838       24 (A) A                  ->    27 (A) B                   
 -0.4088       25 (A) A                  ->    26 (A) B                   
 -0.3158       20 (B) A                  ->    24 (B) B                   
  0.2855       23 (B) A                  ->    26 (B) B                   
  0.1847       23 (B) A                  ->    24 (B) B                   

              Summary of significant orbitals:

               Number  Type             Irrep      Energy
               45      Occ  Alpha      24 (A)     -0.2922
               47      Occ  Alpha      25 (A)     -0.2802
               43      Occ  Alpha      20 (B)     -0.3894
               46      Occ  Alpha      22 (B)     -0.2896
               48      Occ  Alpha      23 (B)     -0.2487
               50      Vir  Beta       26 (A)      0.2450
               51      Vir  Beta       27 (A)      0.2652
               49      Vir  Beta       24 (B)      0.1756
               52      Vir  Beta       25 (B)      0.2682
               53      Vir  Beta       26 (B)      0.3574


 EOMSF transition 6/A
 Total energy = -566.40859346 a.u.  Excitation energy = 7.1239 eV.
 R1^2 = 0.8042  R2^2 = 0.1958  Res^2 = 9.52e-08
 Conv-d = yes

 Amplitude    Transitions between orbitals
  0.7867       21 (B) A                  ->    25 (B) B                   
 -0.2656       23 (B) A                  ->    25 (B) B                   
 -0.2309       22 (B) A                  ->    24 (B) B                   
 -0.1311       24 (A) A                  ->    26 (A) B                   
  0.1133       25 (A) A                  ->    27 (A) B                   

              Summary of significant orbitals:

               Number  Type             Irrep      Energy
               45      Occ  Alpha      24 (A)     -0.2922
               47      Occ  Alpha      25 (A)     -0.2802
               44      Occ  Alpha      21 (B)     -0.3316
               46      Occ  Alpha      22 (B)     -0.2896
               48      Occ  Alpha      23 (B)     -0.2487
               50      Vir  Beta       26 (A)      0.2450
               51      Vir  Beta       27 (A)      0.2652
               49      Vir  Beta       24 (B)      0.1756
               52      Vir  Beta       25 (B)      0.2682


 EOMSF transition 7/A
 Total energy = -566.40159291 a.u.  Excitation energy = 7.3144 eV.
 R1^2 = 0.6399  R2^2 = 0.3601  Res^2 = 8.61e-09
 Conv-d = yes

 Amplitude    Transitions between orbitals
  0.6764       21 (B) A                  ->    26 (B) B                   
  0.2596       21 (B) A                  ->    24 (B) B                   
  0.2096       21 (B) A                  ->    27 (B) B                   
 -0.0933       23 (B) A                  ->    25 (B) B                   

              Summary of significant orbitals:

               Number  Type             Irrep      Energy
               44      Occ  Alpha      21 (B)     -0.3316
               48      Occ  Alpha      23 (B)     -0.2487
               49      Vir  Beta       24 (B)      0.1756
               52      Vir  Beta       25 (B)      0.2682
               53      Vir  Beta       26 (B)      0.3574
               55      Vir  Beta       27 (B)      0.5215


 EOMSF transition 8/A
 Total energy = -566.39785471 a.u.  Excitation energy = 7.4161 eV.
 R1^2 = 0.8911  R2^2 = 0.1089  Res^2 = 1.64e-07
 Conv-d = yes

 Amplitude    Transitions between orbitals
 -0.5350       22 (B) A                  ->    24 (B) B                   
  0.4371       25 (A) A                  ->    27 (A) B                   
 -0.4319       23 (B) A                  ->    25 (B) B                   
 -0.3291       21 (B) A                  ->    25 (B) B                   
  0.1743       20 (B) A                  ->    25 (B) B                   
 -0.1428       24 (A) A                  ->    26 (A) B                   
 -0.1002       24 (A) A                  ->    28 (A) B                   

              Summary of significant orbitals:

               Number  Type             Irrep      Energy
               45      Occ  Alpha      24 (A)     -0.2922
               47      Occ  Alpha      25 (A)     -0.2802
               43      Occ  Alpha      20 (B)     -0.3894
               44      Occ  Alpha      21 (B)     -0.3316
               46      Occ  Alpha      22 (B)     -0.2896
               48      Occ  Alpha      23 (B)     -0.2487
               50      Vir  Beta       26 (A)      0.2450
               51      Vir  Beta       27 (A)      0.2652
               54      Vir  Beta       28 (A)      0.4860
               49      Vir  Beta       24 (B)      0.1756
               52      Vir  Beta       25 (B)      0.2682


 EOMSF transition 9/A
 Total energy = -566.37941022 a.u.  Excitation energy = 7.9180 eV.
 R1^2 = 0.8329  R2^2 = 0.1671  Res^2 = 2.09e-07
 Conv-d = yes

 Amplitude    Transitions between orbitals
 -0.3353       22 (B) A                  ->    26 (B) B                   
 -0.3221       23 (B) A                  ->    25 (B) B                   
 -0.3103       20 (B) A                  ->    25 (B) B                   
 -0.3042       24 (A) A                  ->    26 (A) B                   
  0.2744       24 (A) A                  ->    28 (A) B                   
  0.2722       21 (A) A                  ->    27 (A) B                   
  0.2550       17 (B) A                  ->    25 (B) B                   
 -0.2295       22 (A) A                  ->    27 (A) B                   
  0.2210       22 (B) A                  ->    27 (B) B                   
 -0.1586       21 (B) A                  ->    25 (B) B                   
 -0.1199       25 (A) A                  ->    28 (A) B                   
 -0.1101       17 (B) A                  ->    24 (B) B                   

              Summary of significant orbitals:

               Number  Type             Irrep      Energy
               38      Occ  Alpha      21 (A)     -0.4635
               39      Occ  Alpha      22 (A)     -0.4561
               45      Occ  Alpha      24 (A)     -0.2922
               47      Occ  Alpha      25 (A)     -0.2802
               37      Occ  Alpha      17 (B)     -0.4830
               43      Occ  Alpha      20 (B)     -0.3894
               44      Occ  Alpha      21 (B)     -0.3316
               46      Occ  Alpha      22 (B)     -0.2896
               48      Occ  Alpha      23 (B)     -0.2487
               50      Vir  Beta       26 (A)      0.2450
               51      Vir  Beta       27 (A)      0.2652
               54      Vir  Beta       28 (A)      0.4860
               49      Vir  Beta       24 (B)      0.1756
               52      Vir  Beta       25 (B)      0.2682
               53      Vir  Beta       26 (B)      0.3574
               55      Vir  Beta       27 (B)      0.5215


 EOMSF transition 10/A
 Total energy = -566.37839044 a.u.  Excitation energy = 7.9458 eV.
 R1^2 = 0.7806  R2^2 = 0.2194  Res^2 = 7.22e-08
 Conv-d = yes

 Amplitude    Transitions between orbitals
 -0.4561       17 (B) A                  ->    24 (B) B                   
  0.3615       20 (B) A                  ->    26 (B) B                   
 -0.2916       21 (A) A                  ->    26 (A) B                   
  0.2859       23 (B) A                  ->    27 (B) B                   
 -0.2692       25 (A) A                  ->    28 (A) B                   
  0.2194       22 (A) A                  ->    26 (A) B                   
  0.1773       25 (A) A                  ->    26 (A) B                   
  0.1582       23 (B) A                  ->    24 (B) B                   
 -0.1006       24 (A) A                  ->    28 (A) B                   

              Summary of significant orbitals:

               Number  Type             Irrep      Energy
               38      Occ  Alpha      21 (A)     -0.4635
               39      Occ  Alpha      22 (A)     -0.4561
               45      Occ  Alpha      24 (A)     -0.2922
               47      Occ  Alpha      25 (A)     -0.2802
               37      Occ  Alpha      17 (B)     -0.4830
               43      Occ  Alpha      20 (B)     -0.3894
               48      Occ  Alpha      23 (B)     -0.2487
               50      Vir  Beta       26 (A)      0.2450
               54      Vir  Beta       28 (A)      0.4860
               49      Vir  Beta       24 (B)      0.1756
               53      Vir  Beta       26 (B)      0.3574
               55      Vir  Beta       27 (B)      0.5215


 EOMSF transition 11/A
 Total energy = -566.36451903 a.u.  Excitation energy = 8.3232 eV.
 R1^2 = 0.7326  R2^2 = 0.2674  Res^2 = 5.11e-08
 Conv-d = yes

 Amplitude    Transitions between orbitals
 -0.4638       25 (A) A                  ->    26 (A) B                   
  0.3462       20 (B) A                  ->    24 (B) B                   
 -0.2753       23 (B) A                  ->    24 (B) B                   
 -0.2310       25 (A) A                  ->    28 (A) B                   
  0.2300       22 (A) A                  ->    26 (A) B                   
 -0.2231       21 (A) A                  ->    26 (A) B                   
 -0.1853       17 (B) A                  ->    26 (B) B                   
  0.1384       23 (B) A                  ->    27 (B) B                   
 -0.1243       23 (A) A                  ->    26 (A) B                   
 -0.1233       17 (B) A                  ->    24 (B) B                   
 -0.1227       23 (B) A                  ->    26 (B) B                   
 -0.1172       20 (B) A                  ->    26 (B) B                   
 -0.1031       20 (B) A                  ->    27 (B) B                   

              Summary of significant orbitals:

               Number  Type             Irrep      Energy
               38      Occ  Alpha      21 (A)     -0.4635
               39      Occ  Alpha      22 (A)     -0.4561
               42      Occ  Alpha      23 (A)     -0.4212
               47      Occ  Alpha      25 (A)     -0.2802
               37      Occ  Alpha      17 (B)     -0.4830
               43      Occ  Alpha      20 (B)     -0.3894
               48      Occ  Alpha      23 (B)     -0.2487
               50      Vir  Beta       26 (A)      0.2450
               54      Vir  Beta       28 (A)      0.4860
               49      Vir  Beta       24 (B)      0.1756
               53      Vir  Beta       26 (B)      0.3574
               55      Vir  Beta       27 (B)      0.5215


 EOMSF transition 12/A
 Total energy = -566.35015757 a.u.  Excitation energy = 8.7140 eV.
 R1^2 = 0.7951  R2^2 = 0.2049  Res^2 = 2.97e-09
 Conv-d = yes

 Amplitude    Transitions between orbitals
 -0.6139       19 (B) A                  ->    24 (B) B                   
 -0.2388       18 (B) A                  ->    24 (B) B                   
 -0.2340       23 (A) A                  ->    26 (A) B                   
 -0.2326       22 (A) A                  ->    26 (A) B                   
 -0.2280       20 (B) A                  ->    24 (B) B                   
  0.2112       21 (B) A                  ->    24 (B) B                   
  0.1628       15 (B) A                  ->    24 (B) B                   
 -0.1530       21 (A) A                  ->    26 (A) B                   
 -0.1336       23 (B) A                  ->    26 (B) B                   
 -0.1047       20 (B) A                  ->    26 (B) B                   

              Summary of significant orbitals:

               Number  Type             Irrep      Energy
               38      Occ  Alpha      21 (A)     -0.4635
               39      Occ  Alpha      22 (A)     -0.4561
               42      Occ  Alpha      23 (A)     -0.4212
               34      Occ  Alpha      15 (B)     -0.5420
               40      Occ  Alpha      18 (B)     -0.4528
               41      Occ  Alpha      19 (B)     -0.4351
               43      Occ  Alpha      20 (B)     -0.3894
               44      Occ  Alpha      21 (B)     -0.3316
               48      Occ  Alpha      23 (B)     -0.2487
               50      Vir  Beta       26 (A)      0.2450
               49      Vir  Beta       24 (B)      0.1756
               53      Vir  Beta       26 (B)      0.3574


 EOMSF transition 13/A
 Total energy = -566.34938934 a.u.  Excitation energy = 8.7349 eV.
 R1^2 = 0.0000  R2^2 = 1.0000  Res^2 = 1.98e-06
 Conv-d = yes

 Amplitude    Transitions between orbitals
  0.2260       23 (B) A      25 (A) B    ->    26 (A) B      24 (B) B     
 -0.2260       23 (B) A      25 (A) B    ->    24 (B) B      26 (A) B     
 -0.2260       25 (A) B      23 (B) A    ->    26 (A) B      24 (B) B     
  0.2260       25 (A) B      23 (B) A    ->    24 (B) B      26 (A) B     
 -0.2259       25 (A) A      23 (B) B    ->    26 (A) B      24 (B) B     
  0.2259       25 (A) A      23 (B) B    ->    24 (B) B      26 (A) B     
  0.2259       23 (B) B      25 (A) A    ->    26 (A) B      24 (B) B     
 -0.2259       23 (B) B      25 (A) A    ->    24 (B) B      26 (A) B     
  0.2258       25 (A) A      23 (B) A    ->    26 (A) A      24 (B) B     
 -0.2258       25 (A) A      23 (B) A    ->    24 (B) B      26 (A) A     
 -0.2258       23 (B) A      25 (A) A    ->    26 (A) A      24 (B) B     
  0.2258       23 (B) A      25 (A) A    ->    24 (B) B      26 (A) A     
 -0.2257       25 (A) A      23 (B) A    ->    24 (B) A      26 (A) B     
  0.2257       25 (A) A      23 (B) A    ->    26 (A) B      24 (B) A     
  0.2257       23 (B) A      25 (A) A    ->    24 (B) A      26 (A) B     
 -0.2257       23 (B) A      25 (A) A    ->    26 (A) B      24 (B) A     
 -0.1875       23 (B) A      22 (B) B    ->    24 (B) B      25 (B) B     
  0.1875       23 (B) A      22 (B) B    ->    25 (B) B      24 (B) B     
  0.1875       22 (B) B      23 (B) A    ->    24 (B) B      25 (B) B     
 -0.1875       22 (B) B      23 (B) A    ->    25 (B) B      24 (B) B     
 -0.1875       22 (B) A      23 (B) A    ->    24 (B) A      25 (B) B     
  0.1875       23 (B) A      22 (B) A    ->    24 (B) A      25 (B) B     
  0.1875       22 (B) A      23 (B) A    ->    25 (B) B      24 (B) A     
 -0.1875       23 (B) A      22 (B) A    ->    25 (B) B      24 (B) A     
  0.1875       22 (B) A      23 (B) B    ->    24 (B) B      25 (B) B     
 -0.1875       22 (B) A      23 (B) B    ->    25 (B) B      24 (B) B     
 -0.1875       23 (B) B      22 (B) A    ->    24 (B) B      25 (B) B     
  0.1875       23 (B) B      22 (B) A    ->    25 (B) B      24 (B) B     
  0.1873       22 (B) A      23 (B) A    ->    25 (B) A      24 (B) B     
 -0.1873       23 (B) A      22 (B) A    ->    25 (B) A      24 (B) B     
 -0.1873       22 (B) A      23 (B) A    ->    24 (B) B      25 (B) A     
  0.1873       23 (B) A      22 (B) A    ->    24 (B) B      25 (B) A     
 -0.1839       24 (A) A      23 (B) A    ->    24 (B) A      27 (A) B     
  0.1839       24 (A) A      23 (B) A    ->    27 (A) B      24 (B) A     
  0.1839       23 (B) A      24 (A) A    ->    24 (B) A      27 (A) B     
 -0.1839       23 (B) A      24 (A) A    ->    27 (A) B      24 (B) A     
  0.1839       23 (B) A      24 (A) B    ->    27 (A) B      24 (B) B     
 -0.1839       23 (B) A      24 (A) B    ->    24 (B) B      27 (A) B     
 -0.1839       24 (A) B      23 (B) A    ->    27 (A) B      24 (B) B     
  0.1839       24 (A) B      23 (B) A    ->    24 (B) B      27 (A) B     
 -0.1838       24 (A) A      23 (B) B    ->    27 (A) B      24 (B) B     
  0.1838       24 (A) A      23 (B) B    ->    24 (B) B      27 (A) B     
  0.1838       23 (B) B      24 (A) A    ->    27 (A) B      24 (B) B     
 -0.1838       23 (B) B      24 (A) A    ->    24 (B) B      27 (A) B     
  0.1837       24 (A) A      23 (B) A    ->    27 (A) A      24 (B) B     
 -0.1837       24 (A) A      23 (B) A    ->    24 (B) B      27 (A) A     
 -0.1837       23 (B) A      24 (A) A    ->    27 (A) A      24 (B) B     
  0.1837       23 (B) A      24 (A) A    ->    24 (B) B      27 (A) A     
 -0.1335       23 (B) A      20 (B) B    ->    24 (B) B      26 (B) B     
  0.1335       23 (B) A      20 (B) B    ->    26 (B) B      24 (B) B     
  0.1335       20 (B) B      23 (B) A    ->    24 (B) B      26 (B) B     
 -0.1335       20 (B) B      23 (B) A    ->    26 (B) B      24 (B) B     
  0.1335       20 (B) A      23 (B) A    ->    26 (B) A      24 (B) B     
 -0.1335       23 (B) A      20 (B) A    ->    26 (B) A      24 (B) B     
 -0.1335       20 (B) A      23 (B) A    ->    24 (B) B      26 (B) A     
  0.1335       23 (B) A      20 (B) A    ->    24 (B) B      26 (B) A     
 -0.1334       20 (B) A      23 (B) A    ->    24 (B) A      26 (B) B     
  0.1334       23 (B) A      20 (B) A    ->    24 (B) A      26 (B) B     
  0.1334       20 (B) A      23 (B) A    ->    26 (B) B      24 (B) A     
 -0.1334       23 (B) A      20 (B) A    ->    26 (B) B      24 (B) A     
  0.1334       20 (B) A      23 (B) B    ->    24 (B) B      26 (B) B     
 -0.1334       20 (B) A      23 (B) B    ->    26 (B) B      24 (B) B     
 -0.1334       23 (B) B      20 (B) A    ->    24 (B) B      26 (B) B     
  0.1334       23 (B) B      20 (B) A    ->    26 (B) B      24 (B) B     

              Summary of significant orbitals:

               Number  Type             Irrep      Energy
               45      Occ  Alpha      24 (A)     -0.2922
               47      Occ  Alpha      25 (A)     -0.2802
               43      Occ  Alpha      20 (B)     -0.3894
               46      Occ  Alpha      22 (B)     -0.2896
               48      Occ  Alpha      23 (B)     -0.2487
               45      Occ  Beta       24 (A)     -0.2922
               47      Occ  Beta       25 (A)     -0.2802
               43      Occ  Beta       20 (B)     -0.3894
               46      Occ  Beta       22 (B)     -0.2896
               48      Occ  Beta       23 (B)     -0.2487
               50      Vir  Alpha      26 (A)      0.2450
               51      Vir  Alpha      27 (A)      0.2652
               49      Vir  Alpha      24 (B)      0.1756
               52      Vir  Alpha      25 (B)      0.2682
               53      Vir  Alpha      26 (B)      0.3574
               50      Vir  Beta       26 (A)      0.2450
               51      Vir  Beta       27 (A)      0.2652
               49      Vir  Beta       24 (B)      0.1756
               52      Vir  Beta       25 (B)      0.2682
               53      Vir  Beta       26 (B)      0.3574


 EOMSF transition 14/A
 Total energy = -566.34099033 a.u.  Excitation energy = 8.9635 eV.
 R1^2 = 0.7545  R2^2 = 0.2455  Res^2 = 5.44e-09
 Conv-d = yes

 Amplitude    Transitions between orbitals
  0.5227       18 (B) A                  ->    24 (B) B                   
 -0.5011       23 (A) A                  ->    26 (A) B                   
 -0.2617       19 (B) A                  ->    24 (B) B                   
 -0.1760       21 (B) A                  ->    24 (B) B                   
 -0.1239       20 (B) A                  ->    24 (B) B                   
 -0.1149       19 (B) A                  ->    26 (B) B                   
  0.1027       21 (A) A                  ->    26 (A) B                   

              Summary of significant orbitals:

               Number  Type             Irrep      Energy
               38      Occ  Alpha      21 (A)     -0.4635
               42      Occ  Alpha      23 (A)     -0.4212
               40      Occ  Alpha      18 (B)     -0.4528
               41      Occ  Alpha      19 (B)     -0.4351
               43      Occ  Alpha      20 (B)     -0.3894
               44      Occ  Alpha      21 (B)     -0.3316
               50      Vir  Beta       26 (A)      0.2450
               49      Vir  Beta       24 (B)      0.1756
               53      Vir  Beta       26 (B)      0.3574


 EOMSF transition 15/A
 Total energy = -566.33561002 a.u.  Excitation energy = 9.1099 eV.
 R1^2 = 0.0000  R2^2 = 1.0000  Res^2 = 1.04e-06
 Conv-d = yes

 Amplitude    Transitions between orbitals
 -0.2085       25 (A) A      21 (B) A    ->    26 (A) A      24 (B) B     
  0.2085       25 (A) A      21 (B) A    ->    24 (B) B      26 (A) A     
  0.2085       21 (B) A      25 (A) A    ->    26 (A) A      24 (B) B     
 -0.2085       21 (B) A      25 (A) A    ->    24 (B) B      26 (A) A     
  0.2083       25 (A) A      21 (B) A    ->    24 (B) A      26 (A) B     
 -0.2083       25 (A) A      21 (B) A    ->    26 (A) B      24 (B) A     
 -0.2083       21 (B) A      25 (A) A    ->    24 (B) A      26 (A) B     
  0.2083       21 (B) A      25 (A) A    ->    26 (A) B      24 (B) A     
 -0.2082       21 (B) A      25 (A) B    ->    26 (A) B      24 (B) B     
  0.2082       21 (B) A      25 (A) B    ->    24 (B) B      26 (A) B     
  0.2082       25 (A) B      21 (B) A    ->    26 (A) B      24 (B) B     
 -0.2082       25 (A) B      21 (B) A    ->    24 (B) B      26 (A) B     
  0.2081       25 (A) A      21 (B) B    ->    26 (A) B      24 (B) B     
 -0.2081       25 (A) A      21 (B) B    ->    24 (B) B      26 (A) B     
 -0.2081       21 (B) B      25 (A) A    ->    26 (A) B      24 (B) B     
  0.2081       21 (B) B      25 (A) A    ->    24 (B) B      26 (A) B     
  0.2045       21 (B) A      22 (B) A    ->    25 (B) A      24 (B) B     
 -0.2045       22 (B) A      21 (B) A    ->    25 (B) A      24 (B) B     
 -0.2045       21 (B) A      22 (B) A    ->    24 (B) B      25 (B) A     
  0.2045       22 (B) A      21 (B) A    ->    24 (B) B      25 (B) A     
  0.2042       21 (B) A      22 (B) B    ->    24 (B) B      25 (B) B     
 -0.2042       21 (B) A      22 (B) B    ->    25 (B) B      24 (B) B     
 -0.2042       22 (B) B      21 (B) A    ->    24 (B) B      25 (B) B     
  0.2042       22 (B) B      21 (B) A    ->    25 (B) B      24 (B) B     
 -0.2042       21 (B) A      22 (B) A    ->    24 (B) A      25 (B) B     
  0.2042       22 (B) A      21 (B) A    ->    24 (B) A      25 (B) B     
  0.2042       21 (B) A      22 (B) A    ->    25 (B) B      24 (B) A     
 -0.2042       22 (B) A      21 (B) A    ->    25 (B) B      24 (B) A     
 -0.2042       22 (B) A      21 (B) B    ->    24 (B) B      25 (B) B     
  0.2042       22 (B) A      21 (B) B    ->    25 (B) B      24 (B) B     
  0.2042       21 (B) B      22 (B) A    ->    24 (B) B      25 (B) B     
 -0.2042       21 (B) B      22 (B) A    ->    25 (B) B      24 (B) B     
 -0.2000       24 (A) A      21 (B) A    ->    27 (A) A      24 (B) B     
  0.2000       24 (A) A      21 (B) A    ->    24 (B) B      27 (A) A     
  0.2000       21 (B) A      24 (A) A    ->    27 (A) A      24 (B) B     
 -0.2000       21 (B) A      24 (A) A    ->    24 (B) B      27 (A) A     
 -0.1997       21 (B) A      24 (A) B    ->    27 (A) B      24 (B) B     
  0.1997       21 (B) A      24 (A) B    ->    24 (B) B      27 (A) B     
  0.1997       24 (A) B      21 (B) A    ->    27 (A) B      24 (B) B     
 -0.1997       24 (A) B      21 (B) A    ->    24 (B) B      27 (A) B     
  0.1996       24 (A) A      21 (B) B    ->    27 (A) B      24 (B) B     
 -0.1996       24 (A) A      21 (B) B    ->    24 (B) B      27 (A) B     
 -0.1996       21 (B) B      24 (A) A    ->    27 (A) B      24 (B) B     
  0.1996       21 (B) B      24 (A) A    ->    24 (B) B      27 (A) B     
  0.1996       24 (A) A      21 (B) A    ->    24 (B) A      27 (A) B     
 -0.1996       24 (A) A      21 (B) A    ->    27 (A) B      24 (B) A     
 -0.1996       21 (B) A      24 (A) A    ->    24 (B) A      27 (A) B     
  0.1996       21 (B) A      24 (A) A    ->    27 (A) B      24 (B) A     
  0.1583       21 (B) A      23 (B) A    ->    24 (B) A      26 (B) B     
 -0.1583       23 (B) A      21 (B) A    ->    24 (B) A      26 (B) B     
 -0.1583       21 (B) A      23 (B) A    ->    26 (B) B      24 (B) A     
  0.1583       23 (B) A      21 (B) A    ->    26 (B) B      24 (B) A     
 -0.1583       21 (B) A      23 (B) A    ->    26 (B) A      24 (B) B     
  0.1583       23 (B) A      21 (B) A    ->    26 (B) A      24 (B) B     
  0.1583       21 (B) A      23 (B) A    ->    24 (B) B      26 (B) A     
[...]
 Singlet part of <S|| Hso(L0) ||S'> = (-0.000000,-0.000000) (excluded from all matrix elements)
 L-/L+ Averaged reduced matrix elements:
 <S|| Hso(L-) ||S'> = (-0.407034,1.039427)
 <S|| Hso(L+) ||S'> = (-0.407034,-1.039427)
 ______________________________________________________________
 B(Ket)->A(Bra) transition SO matrices
Full 2e SOC is not implemented withing libqints. 
I will do mean-field SOC with libqints, which is usually as good as full 2e SOC
 Analysing Sz ans S^2 of the pair of states...
 Ket state:  Computed S^2 = 2.000006 will be treated as 2.000000 Sz = -1.000000
 Bra state:  Computed S^2 = 2.000000 will be treated as 2.000000 Sz = -1.000000
 Clebsh-Gordan coefficient: <1.000,-1.000;1.000,0.000|1.000,-1.000> = -0.707
 _________________________________________________
 One-electron SO (cm-1)
 Reduced matrix elements:
 <S|| Hso(L-) ||S'> = (0.187206,-1.758683)
 <S|| Hso(L0) ||S'> = (0.000000,-0.000000)
 <S|| Hso(L+) ||S'> = (0.187206,1.758683)
 SOCC = 2.501205
 Actual matrix elements:
       |Sz=-1.00>           |Sz=0.00>           |Sz=1.00>
 <Sz=-1.00|(-0.000000,0.000000)(0.132375,1.243577)(0.000000,0.000000)
 <Sz=0.00|(-0.132375,1.243577)(-0.000000,-0.000000)(0.132375,1.243577)
 <Sz=1.00|(0.000000,-0.000000)(-0.132375,1.243577)(-0.000000,-0.000000)
 _________________________________________________
 Mean-field SO (cm-1)
 Reduced matrix elements:
 <S|| Hso(L-) ||S'> = (0.254103,-1.099260)
 <S|| Hso(L0) ||S'> = (0.000000,-0.000000)
 <S|| Hso(L+) ||S'> = (0.254103,1.099260)
 SOCC = 1.595581
 Actual matrix elements:
       |Sz=-1.00>           |Sz=0.00>           |Sz=1.00>
 <Sz=-1.00|(-0.000000,0.000000)(0.179678,0.777294)(0.000000,0.000000)
 <Sz=0.00|(-0.179678,0.777294)(-0.000000,-0.000000)(0.179678,0.777294)
 <Sz=1.00|(0.000000,-0.000000)(-0.179678,0.777294)(-0.000000,-0.000000)
 Singlet part of <S|| Hso(L0) ||S'> = (-0.000000,-0.000000) (excluded from all matrix elements)
 L-/L+ Averaged reduced matrix elements:
 <S|| Hso(L-) ||S'> = (0.254103,-1.099260)
 <S|| Hso(L+) ||S'> = (0.254103,1.099260)
 ______________________________________________________________
   Arithmetically averaged transition SO matrices
   (The phases shown, Ket and Bra assingment are from A(Ket)->B(Bra))
 _________________________________________________
 One-electron SO (cm-1)
 SOCC = 2.448626
 Actual matrix elements:
       |Sz=-1.00>           |Sz=0.00>           |Sz=1.00>
 <Sz=-1.00|(0.000000,-0.000000)(-0.209496,-1.206256)(-0.000000,-0.000000)
 <Sz=0.00|(0.209496,-1.206256)(0.000000,0.000000)(-0.209496,-1.206256)
 <Sz=1.00|(0.000000,-0.000000)(0.209496,-1.206256)(0.000000,0.000000)
 _________________________________________________
 Mean-field SO (cm-1)
 SOCC = 1.582890
 Actual matrix elements:
       |Sz=-1.00>           |Sz=0.00>           |Sz=1.00>
 <Sz=-1.00|(0.000000,-0.000000)(-0.233747,-0.756140)(-0.000000,-0.000000)
 <Sz=0.00|(0.233747,-0.756140)(0.000000,0.000000)(-0.233747,-0.756140)
 <Sz=1.00|(0.000000,-0.000000)(0.233747,-0.756140)(0.000000,0.000000)
 ______________________________________________________________

 ------------------------------------------------------------------------------
 State A: eomsf_mp2: 2/A
 State B: eomsf_mp2: 49/B
 Energy GAP = 0.378371 a.u. = 10.295996 eV
 Transition dipole moment (a.u.):
   A->B: 0.070715 (X -0.011645, Y -0.069750, Z 0.000000)
   B->A: 0.087969 (X -0.067782, Y -0.056073, Z 0.000000)
 Oscillator strength (a.u.): 0.001186
 Transition angular momentum against gauge origin (a.u.):
   A->B:  (X -0.023956i, Y 0.153738i, Z 0.000000i)
   B->A:  (X 0.010799i, Y -0.151056i, Z 0.000000i)
 Norm of one-particle transition density matrix:
   A->B: 0.400955;   B->A: 0.452633
   ||gamma^AB||*||gamma^BA||: 0.181486

 ______________________________________________________________
 A(Ket)->B(Bra) transition SO matrices
Full 2e SOC is not implemented withing libqints. 
I will do mean-field SOC with libqints, which is usually as good as full 2e SOC
 Analysing Sz ans S^2 of the pair of states...
 Ket state:  Computed S^2 = 2.000000 will be treated as 2.000000 Sz = -1.000000
 Bra state:  Computed S^2 = 2.000013 will be treated as 2.000000 Sz = -1.000000
 Clebsh-Gordan coefficient: <1.000,-1.000;1.000,0.000|1.000,-1.000> = -0.707
 _________________________________________________
 One-electron SO (cm-1)
 Reduced matrix elements:
 <S|| Hso(L-) ||S'> = (-0.297212,-2.560994)
 <S|| Hso(L0) ||S'> = (0.000000,-0.000000)
 <S|| Hso(L+) ||S'> = (-0.297212,2.560994)
 SOCC = 3.646100
 Actual matrix elements:
       |Sz=-1.00>           |Sz=0.00>           |Sz=1.00>
 <Sz=-1.00|(0.000000,0.000000)(-0.210161,1.810896)(-0.000000,0.000000)
 <Sz=0.00|(0.210161,1.810896)(0.000000,-0.000000)(-0.210161,1.810896)
 <Sz=1.00|(-0.000000,-0.000000)(0.210161,1.810896)(0.000000,-0.000000)
 _________________________________________________
 Mean-field SO (cm-1)
 Reduced matrix elements:
 <S|| Hso(L-) ||S'> = (-0.222832,-1.515736)
 <S|| Hso(L0) ||S'> = (0.000000,-0.000000)
 <S|| Hso(L+) ||S'> = (-0.222832,1.515736)
 SOCC = 2.166614
 Actual matrix elements:
       |Sz=-1.00>           |Sz=0.00>           |Sz=1.00>
 <Sz=-1.00|(0.000000,0.000000)(-0.157566,1.071787)(-0.000000,0.000000)
 <Sz=0.00|(0.157566,1.071787)(0.000000,-0.000000)(-0.157566,1.071787)
 <Sz=1.00|(-0.000000,-0.000000)(0.157566,1.071787)(0.000000,-0.000000)
 Singlet part of <S|| Hso(L0) ||S'> = (-0.000000,-0.000000) (excluded from all matrix elements)
 L-/L+ Averaged reduced matrix elements:
 <S|| Hso(L-) ||S'> = (-0.222832,-1.515736)
 <S|| Hso(L+) ||S'> = (-0.222832,1.515736)
 ______________________________________________________________
 B(Ket)->A(Bra) transition SO matrices
Full 2e SOC is not implemented withing libqints. 
I will do mean-field SOC with libqints, which is usually as good as full 2e SOC
 Analysing Sz ans S^2 of the pair of states...
 Ket state:  Computed S^2 = 2.000013 will be treated as 2.000000 Sz = -1.000000
 Bra state:  Computed S^2 = 2.000000 will be treated as 2.000000 Sz = -1.000000
 Clebsh-Gordan coefficient: <1.000,-1.000;1.000,0.000|1.000,-1.000> = -0.707
 _________________________________________________
 One-electron SO (cm-1)
 Reduced matrix elements:
 <S|| Hso(L-) ||S'> = (0.529622,2.902897)
 <S|| Hso(L0) ||S'> = (0.000000,0.000000)
 <S|| Hso(L+) ||S'> = (0.529622,-2.902897)
 SOCC = 4.173082
 Actual matrix elements:
       |Sz=-1.00>           |Sz=0.00>           |Sz=1.00>
 <Sz=-1.00|(-0.000000,-0.000000)(0.374499,-2.052658)(0.000000,-0.000000)
 <Sz=0.00|(-0.374499,-2.052658)(-0.000000,0.000000)(0.374499,-2.052658)
 <Sz=1.00|(0.000000,0.000000)(-0.374499,-2.052658)(-0.000000,0.000000)
 _________________________________________________
 Mean-field SO (cm-1)
 Reduced matrix elements:
 <S|| Hso(L-) ||S'> = (0.390790,1.692158)
 <S|| Hso(L0) ||S'> = (0.000000,0.000000)
 <S|| Hso(L+) ||S'> = (0.390790,-1.692158)
 SOCC = 2.456061
 Actual matrix elements:
       |Sz=-1.00>           |Sz=0.00>           |Sz=1.00>
 <Sz=-1.00|(-0.000000,-0.000000)(0.276330,-1.196537)(0.000000,-0.000000)
 <Sz=0.00|(-0.276330,-1.196537)(-0.000000,0.000000)(0.276330,-1.196537)
 <Sz=1.00|(0.000000,0.000000)(-0.276330,-1.196537)(-0.000000,0.000000)
 Singlet part of <S|| Hso(L0) ||S'> = (-0.000000,-0.000000) (excluded from all matrix elements)
 L-/L+ Averaged reduced matrix elements:
 <S|| Hso(L-) ||S'> = (0.390790,1.692158)
 <S|| Hso(L+) ||S'> = (0.390790,-1.692158)
 ______________________________________________________________
   Arithmetically averaged transition SO matrices
   (The phases shown, Ket and Bra assingment are from A(Ket)->B(Bra))
 _________________________________________________
 One-electron SO (cm-1)
 SOCC = 3.907541
 Actual matrix elements:
       |Sz=-1.00>           |Sz=0.00>           |Sz=1.00>
 <Sz=-1.00|(-0.000000,0.000000)(-0.292330,1.931777)(-0.000000,0.000000)
 <Sz=0.00|(0.292330,1.931777)(-0.000000,-0.000000)(-0.292330,1.931777)
 <Sz=1.00|(0.000000,0.000000)(0.292330,1.931777)(-0.000000,-0.000000)
 _________________________________________________
 Mean-field SO (cm-1)
 SOCC = 2.309450
 Actual matrix elements:
       |Sz=-1.00>           |Sz=0.00>           |Sz=1.00>
 <Sz=-1.00|(-0.000000,0.000000)(-0.216948,1.134162)(-0.000000,0.000000)
 <Sz=0.00|(0.216948,1.134162)(-0.000000,-0.000000)(-0.216948,1.134162)
 <Sz=1.00|(0.000000,0.000000)(0.216948,1.134162)(-0.000000,-0.000000)
 ______________________________________________________________

 ------------------------------------------------------------------------------
 State A: eomsf_mp2: 2/A
 State B: eomsf_mp2: 50/B
 Energy GAP = 0.379212 a.u. = 10.318888 eV
 Transition dipole moment (a.u.):
   A->B: 0.166714 (X -0.164135, Y 0.029209, Z 0.000000)
   B->A: 0.185326 (X -0.184990, Y 0.011149, Z 0.000000)
 Oscillator strength (a.u.): 0.007758
 Transition angular momentum against gauge origin (a.u.):
   A->B:  (X 0.058425i, Y 0.001463i, Z 0.000000i)
   B->A:  (X -0.053782i, Y -0.026833i, Z 0.000000i)
 Norm of one-particle transition density matrix:
   A->B: 0.433984;   B->A: 0.478607
   ||gamma^AB||*||gamma^BA||: 0.207708

 ______________________________________________________________
 A(Ket)->B(Bra) transition SO matrices
Full 2e SOC is not implemented withing libqints. 
I will do mean-field SOC with libqints, which is usually as good as full 2e SOC
 Analysing Sz ans S^2 of the pair of states...
 Ket state:  Computed S^2 = 2.000000 will be treated as 2.000000 Sz = -1.000000
 Bra state:  Computed S^2 = 2.000023 will be treated as 2.000000 Sz = -1.000000
 Clebsh-Gordan coefficient: <1.000,-1.000;1.000,0.000|1.000,-1.000> = -0.707
 _________________________________________________
 One-electron SO (cm-1)
 Reduced matrix elements:
 <S|| Hso(L-) ||S'> = (-0.465394,-0.240703)
 <S|| Hso(L0) ||S'> = (0.000000,-0.000000)
 <S|| Hso(L+) ||S'> = (-0.465394,0.240703)
 SOCC = 0.740985
 Actual matrix elements:
       |Sz=-1.00>           |Sz=0.00>           |Sz=1.00>
 <Sz=-1.00|(0.000000,0.000000)(-0.329083,0.170202)(-0.000000,0.000000)
 <Sz=0.00|(0.329083,0.170202)(0.000000,-0.000000)(-0.329083,0.170202)
 <Sz=1.00|(-0.000000,-0.000000)(0.329083,0.170202)(0.000000,-0.000000)
 _________________________________________________
 Mean-field SO (cm-1)
 Reduced matrix elements:
 <S|| Hso(L-) ||S'> = (-0.410308,-0.011477)
 <S|| Hso(L0) ||S'> = (0.000000,-0.000000)
 <S|| Hso(L+) ||S'> = (-0.410308,0.011477)
 SOCC = 0.580490
 Actual matrix elements:
       |Sz=-1.00>           |Sz=0.00>           |Sz=1.00>
 <Sz=-1.00|(0.000000,0.000000)(-0.290131,0.008116)(-0.000000,0.000000)
 <Sz=0.00|(0.290131,0.008116)(0.000000,-0.000000)(-0.290131,0.008116)
 <Sz=1.00|(-0.000000,-0.000000)(0.290131,0.008116)(0.000000,-0.000000)
 Singlet part of <S|| Hso(L0) ||S'> = (-0.000000,-0.000000) (excluded from all matrix elements)
 L-/L+ Averaged reduced matrix elements:
 <S|| Hso(L-) ||S'> = (-0.410308,-0.011477)
 <S|| Hso(L+) ||S'> = (-0.410308,0.011477)
 ______________________________________________________________
 B(Ket)->A(Bra) transition SO matrices
Full 2e SOC is not implemented withing libqints. 
I will do mean-field SOC with libqints, which is usually as good as full 2e SOC
 Analysing Sz ans S^2 of the pair of states...
 Ket state:  Computed S^2 = 2.000023 will be treated as 2.000000 Sz = -1.000000
 Bra state:  Computed S^2 = 2.000000 will be treated as 2.000000 Sz = -1.000000
 Clebsh-Gordan coefficient: <1.000,-1.000;1.000,0.000|1.000,-1.000> = -0.707
 _________________________________________________
 One-electron SO (cm-1)
 Reduced matrix elements:
 <S|| Hso(L-) ||S'> = (0.547981,0.711105)
 <S|| Hso(L0) ||S'> = (0.000000,0.000000)
 <S|| Hso(L+) ||S'> = (0.547981,-0.711105)
 SOCC = 1.269609
 Actual matrix elements:
       |Sz=-1.00>           |Sz=0.00>           |Sz=1.00>
 <Sz=-1.00|(-0.000000,-0.000000)(0.387481,-0.502827)(0.000000,-0.000000)
 <Sz=0.00|(-0.387481,-0.502827)(-0.000000,0.000000)(0.387481,-0.502827)
 <Sz=1.00|(0.000000,0.000000)(-0.387481,-0.502827)(-0.000000,0.000000)
 _________________________________________________
 Mean-field SO (cm-1)
 Reduced matrix elements:
 <S|| Hso(L-) ||S'> = (0.480829,0.270931)
 <S|| Hso(L0) ||S'> = (0.000000,0.000000)
 <S|| Hso(L+) ||S'> = (0.480829,-0.270931)
 SOCC = 0.780513
 Actual matrix elements:
       |Sz=-1.00>           |Sz=0.00>           |Sz=1.00>
 <Sz=-1.00|(-0.000000,-0.000000)(0.339998,-0.191577)(0.000000,-0.000000)
 <Sz=0.00|(-0.339998,-0.191577)(-0.000000,0.000000)(0.339998,-0.191577)
 <Sz=1.00|(0.000000,0.000000)(-0.339998,-0.191577)(-0.000000,0.000000)
 Singlet part of <S|| Hso(L0) ||S'> = (-0.000000,-0.000000) (excluded from all matrix elements)
 L-/L+ Averaged reduced matrix elements:
 <S|| Hso(L-) ||S'> = (0.480829,0.270931)
 <S|| Hso(L+) ||S'> = (0.480829,-0.270931)
 ______________________________________________________________
   Arithmetically averaged transition SO matrices
   (The phases shown, Ket and Bra assingment are from A(Ket)->B(Bra))
 _________________________________________________
 One-electron SO (cm-1)
 SOCC = 0.983073
 Actual matrix elements:
       |Sz=-1.00>           |Sz=0.00>           |Sz=1.00>
 <Sz=-1.00|(-0.000000,0.000000)(-0.358282,0.336515)(-0.000000,0.000000)
 <Sz=0.00|(0.358282,0.336515)(-0.000000,-0.000000)(-0.358282,0.336515)
 <Sz=1.00|(0.000000,0.000000)(0.358282,0.336515)(-0.000000,-0.000000)
 _________________________________________________
 Mean-field SO (cm-1)
 SOCC = 0.661014
 Actual matrix elements:
       |Sz=-1.00>           |Sz=0.00>           |Sz=1.00>
 <Sz=-1.00|(-0.000000,0.000000)(-0.315064,0.099846)(-0.000000,-0.000000)
 <Sz=0.00|(0.315064,0.099846)(-0.000000,-0.000000)(-0.315064,0.099846)
 <Sz=1.00|(0.000000,0.000000)(0.315064,0.099846)(-0.000000,-0.000000)
 ______________________________________________________________


 All requested transition properties have been computed

 Transition Properties:   CPU 377.41 s  wall 378.45 s

 Total ccman2 time:   CPU 7127.71 s  wall 7088.91 s

 
 --------------------------------------------------------------
             Orbital Energies (a.u.) and Symmetries
 --------------------------------------------------------------
 
 Alpha MOs, Restricted
 -- Occupied --                  
-20.239 -11.098 -11.046 -11.046 -11.041 -11.041 -11.040 -11.040
  1 A     2 A     1 B     3 A     4 A     2 B     5 A     3 B                  
-11.039 -11.039 -11.036 -11.036 -11.036 -11.036  -1.260  -1.101
  4 B     6 A     5 B     7 A     8 A     6 B     9 A    10 A                  
 -1.097  -0.993  -0.966  -0.965  -0.960  -0.840  -0.786  -0.777
  7 B    11 A     8 B    12 A     9 B    13 A    10 B    14 A                  
 -0.767  -0.708  -0.670  -0.644  -0.607  -0.575  -0.570  -0.568
 11 B    15 A    12 B    16 A    13 B    17 A    14 B    18 A                  
 -0.544  -0.542  -0.541  -0.497  -0.483  -0.464  -0.456  -0.453
 19 A    15 B    16 B    20 A    17 B    21 A    22 A    18 B                  
 -0.435  -0.421  -0.389  -0.332  -0.292  -0.290  -0.280  -0.249
 19 B    23 A    20 B    21 B    24 A    22 B    25 A    23 B                  
 -- Virtual --                   
  0.176   0.245   0.265   0.268   0.357   0.486   0.521   0.571
 24 B    26 A    27 A    25 B    26 B    28 A    27 B    29 A                  
  0.588   0.615   0.638   0.647   0.674   0.690   0.708   0.720
 28 B    30 A    29 B    31 A    30 B    32 A    33 A    31 B                  
  0.720   0.730   0.763   0.789   0.861   0.863   0.882   0.882
 34 A    32 B    33 B    35 A    36 A    34 B    37 A    35 B                  
  0.895   0.897   0.956   0.964   1.080   1.089   1.136   1.150
 36 B    38 A    39 A    37 B    38 B    40 A    41 A    39 B                  
 
 Beta MOs, Restricted
 -- Occupied --                  
-20.239 -11.098 -11.046 -11.046 -11.041 -11.041 -11.040 -11.040
  1 A     2 A     1 B     3 A     4 A     2 B     5 A     3 B                  
-11.039 -11.039 -11.036 -11.036 -11.036 -11.036  -1.260  -1.101
  4 B     6 A     5 B     7 A     8 A     6 B     9 A    10 A                  
 -1.097  -0.993  -0.966  -0.965  -0.960  -0.840  -0.786  -0.777
  7 B    11 A     8 B    12 A     9 B    13 A    10 B    14 A                  
 -0.767  -0.708  -0.670  -0.644  -0.607  -0.575  -0.570  -0.568
 11 B    15 A    12 B    16 A    13 B    17 A    14 B    18 A                  
 -0.544  -0.542  -0.541  -0.497  -0.483  -0.464  -0.456  -0.453
 19 A    15 B    16 B    20 A    17 B    21 A    22 A    18 B                  
 -0.435  -0.421  -0.389  -0.332  -0.292  -0.290  -0.280  -0.249
 19 B    23 A    20 B    21 B    24 A    22 B    25 A    23 B                  
 -- Virtual --                   
  0.176   0.245   0.265   0.268   0.357   0.486   0.521   0.571
 24 B    26 A    27 A    25 B    26 B    28 A    27 B    29 A                  
  0.588   0.615   0.638   0.647   0.674   0.690   0.708   0.720
 28 B    30 A    29 B    31 A    30 B    32 A    33 A    31 B                  
  0.720   0.730   0.763   0.789   0.861   0.863   0.882   0.882
 34 A    32 B    33 B    35 A    36 A    34 B    37 A    35 B                  
  0.895   0.897   0.956   0.964   1.080   1.089   1.136   1.150
 36 B    38 A    39 A    37 B    38 B    40 A    41 A    39 B                  
 --------------------------------------------------------------
 
          Ground-State Mulliken Net Atomic Charges

     Atom                 Charge (a.u.)
  ----------------------------------------
      1 C                     0.111673
      2 O                    -0.158726
      3 C                    -0.009252
      4 C                    -0.009252
      5 C                    -0.059419
      6 C                    -0.055088
      7 C                    -0.065150
      8 C                    -0.065212
      9 C                    -0.057231
     10 H                     0.067034
     11 H                     0.073705
     12 H                     0.063602
     13 H                     0.064961
     14 H                     0.065578
     15 C                    -0.059419
     16 C                    -0.055088
     17 C                    -0.065212
     18 C                    -0.065150
     19 C                    -0.057231
     20 H                     0.067034
     21 H                     0.063602
     22 H                     0.073705
     23 H                     0.064961
     24 H                     0.065578
  ----------------------------------------
  Sum of atomic charges =     0.000000

 -----------------------------------------------------------------
                    Cartesian Multipole Moments
 -----------------------------------------------------------------
    Charge (ESU x 10^10)
                -0.0000
    Dipole Moment (Debye)
         X      -0.0000      Y       0.0000      Z      -1.4615
       Tot       1.4615
    Quadrupole Moments (Debye-Ang)
        XX     -67.9533     XY      -1.2515     YY     -75.3931
        XZ       0.0000     YZ      -0.0000     ZZ     -75.8365
    Octopole Moments (Debye-Ang^2)
       XXX      -0.0000    XXY       0.0000    XYY       0.0000
       YYY       0.0000    XXZ       0.3631    XYZ      -7.4087
       YYZ       5.7576    XZZ       0.0000    YZZ       0.0000
       ZZZ      -2.7673
    Hexadecapole Moments (Debye-Ang^3)
      XXXX   -3010.4154   XXXY     -27.1778   XXYY    -580.6463
      XYYY      -1.4304   YYYY    -157.3144   XXXZ       0.0000
      XXYZ      -0.0000   XYYZ       0.0000   YYYZ      -0.0000
      XXZZ    -617.7060   XYZZ       1.8612   YYZZ    -129.4234
      XZZZ      -0.0000   YZZZ      -0.0000   ZZZZ    -679.4635
 -----------------------------------------------------------------
 Total job time:  7111.71s(wall), 7147.88s(cpu) 
 Mon Jan 29 21:49:09 2024

        *************************************************************
        *                                                           *
        *  Thank you very much for using Q-Chem.  Have a nice day.  *
        *                                                           *
        *************************************************************


