                  Welcome to Q-Chem
     A Quantum Leap Into The Future Of Chemistry


 Q-Chem 6.0 (devel), Q-Chem, Inc., Pleasanton, CA (2022)

 E. Epifanovsky,  A. T. B. Gilbert,  Xintian Feng,  Joonho Lee,  Yuezhi Mao,  
 N. Mardirossian,  P. Pokhilko,  A. White,  M. Wormit,  M. P. Coons,  
 A. L. Dempwolff,  Zhengting Gan,  D. Hait,  P. R. Horn,  L. D. Jacobson,  
 I. Kaliman,  J. Kussmann,  A. W. Lange,  Ka Un Lao,  D. S. Levine,  Jie Liu,  
 S. C. McKenzie,  A. F. Morrison,  K. Nanda,  F. Plasser,  D. R. Rehn,  
 M. L. Vidal,  Zhi-Qiang You,  Ying Zhu,  B. Alam,  B. Albrecht,  
 A. Aldossary,  E. Alguire,  J. H. Andersen,  V. Athavale,  D. Barton,  
 K. Begam,  A. Behn,  N. Bellonzi,  Y. A. Bernard,  E. J. Berquist,  
 H. Burton,  A. Carreras,  K. Carter-Fenk,  Romit Chakraborty,  
 Chandrima Chakravarty,  Junhan Chen,  A. D. Chien,  K. D. Closser,  
 V. Cofer-Shabica,  L. Cunha,  S. Dasgupta,  Jia Deng,  M. de Wergifosse,  
 M. Diedenhofen,  Hainam Do,  S. Ehlert,  Po-Tung Fang,  S. Fatehi,  
 Qingguo Feng,  T. Friedhoff,  B. Ganoe,  J. Gayvert,  Qinghui Ge,  
 G. Gidofalvi,  M. Goldey,  J. Gomes,  C. Gonzalez-Espinoza,  S. Gulania,  
 A. Gunina,  J. A. Gyamfi,  M. W. D. Hanson-Heine,  P. H. P. Harbach,  
 A. W. Hauser,  M. F. Herbst,  M. Hernandez Vera,  M. Hodecker,  
 Z. C. Holden,  S. Houck,  Xunkun Huang,  Kerwin Hui,  B. C. Huynh,  
 K. Ikeda,  M. Ivanov,  Hyunjun Ji,  Zuxin Jin,  Hanjie Jiang,  B. Kaduk,  
 S. Kaehler,  R. Kang,  K. Khistyaev,  Jaehoon Kim,  Yongbin Kim,  
 P. Klunzinger,  Z. Koczor-Benda,  Joong Hoon Koh,  D. Kosenkov,  
 Saikiran Kotaru,  L. Koulias,  T. Kowalczyk,  C. M. Krauter,  K. Kue,  
 A. Kunitsa,  T. Kus,  A. Landau,  K. V. Lawler,  D. Lefrancois,  S. Lehtola,  
 Rain Li,  Shaozhi Li,  Yi-Pei Li,  Jiashu Liang,  M. Liebenthal,  
 Hung-Hsuan Lin,  You-Sheng Lin,  Fenglai Liu,  Kuan-Yu Liu,  
 M. Loipersberger,  A. Luenser,  C. Malbon,  A. Manjanath,  P. Manohar,  
 E. Mansoor,  S. F. Manzer,  Shan-Ping Mao,  A. V. Marenich,  T. Markovich,  
 S. Mason,  F. Matz,  S. A. Maurer,  P. F. McLaughlin,  M. F. S. J. Menger,  
 J.-M. Mewes,  S. A. Mewes,  P. Morgante,  Mohammad Mostafanejad,  
 J. W. Mullinax,  K. J. Oosterbaan,  G. Paran,  V. Parravicini,  
 Alexander C. Paul,  Suranjan K. Paul,  F. Pavosevic,  Zheng Pei,  S. Prager,  
 E. I. Proynov,  E. Ramos,  B. Rana,  A. E. Rask,  A. Rettig,  R. M. Richard,  
 F. Rob,  E. Rossomme,  T. Scheele,  M. Scheurer,  M. Schneider,  
 P. E. Schneider,  N. Sergueev,  S. M. Sharada,  Hengyuan Shen,  
 W. Skomorowski,  D. W. Small,  C. J. Stein,  Yingli Su,  Yu-Chuan Su,  
 E. J. Sundstrom,  Zhen Tao,  J. Thirman,  Hung-Yi Tsai,  T. Tsuchimochi,  
 N. M. Tubman,  C. Utku,  S. P. Veccham,  O. Vydrov,  J. Wenzel,  
 Jonathan Wong,  J. Witte,  A. Yamada,  Chou-Hsun Yang,  Kun Yao,  
 S. Yeganeh,  S. R. Yost,  A. Zech,  F. Zeller,  Igor Ying Zhang,  
 Xing Zhang,  Yu Zhang,  D. Zuev,  A. Aspuru-Guzik,  A. T. Bell,  
 N. A. Besley,  K. B. Bravaya,  B. R. Brooks,  D. Casanova,  Jeng-Da Chai,  
 Hsing-Ta Chen,  S. Coriani,  C. J. Cramer,  A. E. DePrince, III,  
 R. A. DiStasio Jr.,  A. Dreuw,  B. D. Dunietz,  T. R. Furlani,  
 W. A. Goddard III,  S. Grimme,  S. Hammes-Schiffer,  T. Head-Gordon,  
 W. J. Hehre,  Chao-Ping Hsu,  T.-C. Jagau,  Yousung Jung,  A. Klamt,  
 Jing Kong,  D. S. Lambrecht,  Xiangyuan Li,  WanZhen Liang,  N. J. Mayhall,  
 C. W. McCurdy,  J. B. Neaton,  T. Neudecker,  C. Ochsenfeld,  
 J. A. Parkhill,  R. Peverati,  V. A. Rassolov,  Haisheng Ren,  Yihan Shao,  
 L. V. Slipchenko,  R. P. Steele,  J. E. Subotnik,  A. J. W. Thom,  
 A. Tkatchenko,  D. G. Truhlar,  T. Van Voorhis,  Fan Wang,  
 T. A. Wesolowski,  K. B. Whaley,  H. L. Woodcock III,  P. M. Zimmerman,  
 S. Faraji,  P. M. W. Gill,  M. Head-Gordon,  J. M. Herbert,  A. I. Krylov

 Contributors to earlier versions of Q-Chem not listed above: 
 R. D. Adamson,  B. Austin,  R. Baer,  J. Baker,  G. J. O. Beran,  
 K. Brandhorst,  S. T. Brown,  E. F. C. Byrd,  Arup K. Chakraborty,  
 G. K. L. Chan,  Chun-Min Chang,  Yunqing Chen,  C.-L. Cheng,  
 Siu Hung Chien,  D. M. Chipman,  D. L. Crittenden,  H. Dachsel,  
 R. J. Doerksen,  A. D. Dutoi,  R. G. Edgar,  J. Fosso-Tande,  
 L. Fusti-Molnar,  D. Ghosh,  A. Ghysels,  A. Golubeva-Zadorozhnaya,  
 J. Gonthier,  M. S. Gordon,  S. R. Gwaltney,  G. Hawkins,  J. E. Herr,  
 A. Heyden,  S. Hirata,  E. G. Hohenstein,  G. Kedziora,  F. J. Keil,  
 C. Kelley,  Jihan Kim,  R. A. King,  R. Z. Khaliullin,  P. P. Korambath,  
 W. Kurlancheek,  A. Laurent,  A. M. Lee,  M. S. Lee,  S. V. Levchenko,  
 Ching Yeh Lin,  D. Liotard,  E. Livshits,  R. C. Lochan,  I. Lotan,  
 L. A. Martinez-Martinez,  P. E. Maslen,  N. Nair,  D. P. O'Neill,  
 D. Neuhauser,  E. Neuscamman,  C. M. Oana,  R. Olivares-Amaya,  R. Olson,  
 T. M. Perrine,  B. Peters,  P. A. Pieniazek,  A. Prociuk,  Y. M. Rhee,  
 J. Ritchie,  M. A. Rohrdanz,  E. Rosta,  N. J. Russ,  H. F. Schaefer III,  
 M. W. Schmidt,  N. E. Schultz,  S. Sharma,  N. Shenvi,  C. D. Sherrill,  
 A. C. Simmonett,  A. Sodt,  T. Stein,  D. Stuck,  K. S. Thanthiriwatte,  
 V. Vanovschi,  L. Vogt,  Tao Wang,  A. Warshel,  M. A. Watson,  
 C. F. Williams,  Q. Wu,  X. Xu,  Jun Yang,  W. Zhang,  Yan Zhao

   Please cite Q-Chem as follows:
  "Software for the frontiers of quantum chemistry:
   An overview of developments in the Q-Chem 5 package"
   J. Chem. Phys. 155, 084801 (2021)
   https://doi.org/10.1063/5.0055522 (open access)

 Q-Chem 6.0.1 for Intel X86 EM64T Linux

 Parts of Q-Chem use Armadillo 9.900.5 (Nocturnal Misbehaviour).
 http://arma.sourceforge.net/

 Q-Chem begins on Fri Jan 26 12:46:01 2024  

 Host: atlas-254
0

     Scratch files written to ./qchem68413//
 Processing $rem in /scratch/abel/SOFTWARE/qchem/config/preferences:
 Processing $rem in /dipc/acebg/.qchemrc:
 Core orbitals will be frozen

 Checking the input file for inconsistencies... 	...done.

--------------------------------------------------------------
User input:
--------------------------------------------------------------
$comment
 RAS-SF CALCULATION
$end

$molecule
 READ fluorenone.molecule
$end

$rem
!**CALCULATION TYPE***     
JOBTYPE            sp    
!BASIS              def2-TZVP
BASIS             STO-3G

!***SCF REFERENCE***
INPUT_BOHR 	    TRUE
!SKIP_SCFMAN        FALSE
UNRESTRICTED       FALSE
!SCF_GUESS          core
!SCF_GUESS_MIX      FALSE
!SCF_GUESS_ALWAYS   FALSE
MAX_SCF_CYCLES     500
!SCF_CONVERGENCE    10
SCF_ALGORITHM      DIIS_GDM !DIIS,DM,DIIS_DM,GDM,DIIS_GDM,GD

!SYMMETRY           TRUE   !use of symmetry for calculating integrals
!SYM_IGNORE         FALSE  !turn off using symmetry
!SYM_TOL            5      !tolerance for determining point group
!USE_ABELIAN_SUBGROUP      !define to use abelian group

!THRESH             14
!SCF_FINAL_PRINT     1 !0,1,2,3

!****CCSD****
CORRELATION        CCSD
!CC_CONVERGENCE     6
!CC_MAX_ITER        200
CC_PRINT	   2
!CHOLESKY_TOL       3 !Toler. decomposition 2e integrals
CC_REF_PROP  	   1 !one-particle CCSD properties calculation
!CC_REF_PROP_TE	   0 !two-particle CCSD properties calculation
!CC_FNO_THRESH
!CC_BACKEND	   XM !Used to specify the computational back-end of CCMAN2.

!****EOM****
METHOD             EOM-MP2
EE_STATES	   [10, 10, 3, 10]
CC_STATE_TO_OPT    [3,1]
CC_EOM_PROP        1
CC_EOM_PROP_TE	   1
CC_TRANS_PROP      1
CALC_SOC           TRUE   !calculate SOC for EOM-CC, RAS-CI, ADC, TDDFT/TDA and TDDFT

!****MEMORY****
MEM_TOTAL          90000 !Default 2000 MB
MEM_STATIC         7000  !Default 64 MB
CC_MEMORY          72000

!**Molecular Properties and Analysis **                                                                                          
!POP_MULLIKEN       TRUE   !Run Mulliken population analysis
!LOWDIN_POPULATION  TRUE   !Run Löwdin population analysis
GUI                0       !Checkpoints generation
!STATE_ANALYSIS     TRUE

!**Wave function analysis**
!PLOTS = 0     ! Note: This can be omitted, default is 0
!NTO_PAIRS = 2 ! Note: This can be omitted, default is 2
!GUI 0
!MOLDEN_FORMAT      TRUE
!PRINT_ORBITALS     15
$end

!$plots
!   grid_points 100 100 100
!   grid_range  (-10,10) (-10,10) (-10,10)
!$end

--------------------------------------------------------------
 ----------------------------------------------------------------
             Standard Nuclear Orientation (Bohr)
    I     Atom           X                Y                Z
 ----------------------------------------------------------------
    1      C      -0.0000000000    -0.0000000000     3.0318066276
    2      O      -0.0000000000    -0.0000000000     5.3638644743
    3      C      -2.1864624130    -0.0000000000     1.3211263669
    4      C       2.1864624130     0.0000000000     1.3211263669
    5      C       1.3222785792     0.0000000000    -1.3152461482
    6      C       4.7555386627     0.0000000000     1.8776505802
    7      C       6.4695983050     0.0000000000    -0.0972082822
    8      C       3.1392439890     0.0000000000    -3.3016694193
    9      C       5.6496513315     0.0000000000    -2.6924387954
   10      H       5.3730975132     0.0000000000     3.8295121100
   11      H       2.5395104465     0.0000000000    -5.2593503586
   12      H       8.4790954600     0.0000000000     0.2945733557
   13      H       7.0667355415     0.0000000000    -4.1688986988
   14      C      -1.3222785792    -0.0000000000    -1.3152461482
   15      C      -4.7555386627    -0.0000000000     1.8776505802
   16      C      -3.1392439890    -0.0000000000    -3.3016694193
   17      C      -6.4695983050    -0.0000000000    -0.0972082822
   18      C      -5.6496513315    -0.0000000000    -2.6924387954
   19      H      -2.5395104465    -0.0000000000    -5.2593503586
   20      H      -5.3730975132    -0.0000000000     3.8295121100
   21      H      -8.4790954600    -0.0000000000     0.2945733557
   22      H      -7.0667355415    -0.0000000000    -4.1688986988
 ----------------------------------------------------------------
 Molecular Point Group                 C2v   NOp =  4
 Largest Abelian Subgroup              C2v   NOp =  4
 Nuclear Repulsion Energy =         775.12034816 hartrees
 There are       48 alpha and       46 beta electrons
 Requested basis set is STO-3G
 There are 36 shells and 78 basis functions
WARNING: MEM_STATIC is adjusted to be 2000 MB!
 Total memory of 90000 MB is distributed as follows: 
   MEM_STATIC is set to 2000 MB
   QALLOC/CCMAN JOB total memory use is  88000 MB
 Warning: actual memory use might exceed 90000 MB

 Total QAlloc Memory Limit  90000 MB
 Mega-Array Size      1956 MB
 MEM_STATIC part      2000 MB

 A cutoff of  1.0D-14 yielded    577 shell pairs
 There are      3052 function pairs
 Smallest overlap matrix eigenvalue = 1.76E-01

 Scale SEOQF with 1.000000e-01/1.000000e+00/1.000000e-01

 Standard Electronic Orientation quadrupole field applied
 Nucleus-field energy     =    -0.0000000045 hartrees
 Guess from superposition of atomic densities
 Warning:  Energy on first SCF cycle will be non-variational
 SAD guess density has 94.000000 electrons

 -----------------------------------------------------------------------
  General SCF calculation program by
  Eric Jon Sundstrom, Paul Horn, Yuezhi Mao, Dmitri Zuev, Alec White,
  David Stuck, Shaama M.S., Shane Yost, Joonho Lee, David Small,
  Daniel Levine, Susi Lehtola, Hugh Burton, Evgeny Epifanovsky,
  Bang C. Huynh
 -----------------------------------------------------------------------
 Hartree-Fock
 Orthonormalizing orbitals
 A restricted open-shell SCF calculation will be
 performed using DIIS, GDM
 SCF converges when RMS gradient is below 1.0e-08
 ---------------------------------------
  Cycle       Energy         DIIS error
 ---------------------------------------
    1    -563.0649955171      1.44e-01  
    2    -562.3216991484      1.38e-01  
    3    -564.2863805473      3.47e-02  
    4    -564.5732837875      9.57e-03  Done DIIS. Switching to GDM
 ---------------------------------------
  Cycle       Energy        RMS Gradient
 ---------------------------------------
    1    -564.5732837875      1.12e-01   Normal BFGS step
    2    -564.5969144870      8.37e-02   Normal BFGS step
    3    -564.6123455528      2.28e-02   Normal BFGS step
    4    -564.6147708867      1.76e-02   Normal BFGS step
    5    -564.6163160346      1.12e-02   Normal BFGS step
    6    -564.6174541053      6.75e-03   Normal BFGS step
    7    -564.6179486862      9.21e-03   Normal BFGS step
    8    -564.6182736964      5.31e-03   Normal BFGS step
    9    -564.6184947891      5.31e-03   Normal BFGS step
   10    -564.6187880453      4.26e-03   Normal BFGS step
   11    -564.6189667307      3.00e-03   Normal BFGS step
   12    -564.6190468080      1.31e-03   Normal BFGS step
   13    -564.6190568811      3.99e-04   Normal BFGS step
   14    -564.6190579178      1.92e-04   Normal BFGS step
   15    -564.6190581066      1.26e-04   Normal BFGS step
   16    -564.6190581309      5.23e-05   Normal BFGS step
   17    -564.6190581402      1.70e-05   Normal BFGS step
   18    -564.6190581411      5.97e-06   Normal BFGS step
   19    -564.6190581412      2.83e-06   Normal BFGS step
   20    -564.6190581412      7.00e-07   Normal BFGS step
   21    -564.6190581412      2.28e-07   Normal BFGS step
   22    -564.6190581412      1.43e-07   Normal BFGS step
   23    -564.6190581412      1.77e-08   Normal BFGS step
   24    -564.6190581412      5.94e-09  Convergence criterion met
The disked orbital energies are calculated using alpha and beta Focks
 ---------------------------------------
 SCF time:   CPU 3.62s  wall 4.00s 
<S^2> =          2.000000000
 SCF   energy in the final basis set =     -564.6190581412
 Total energy in the final basis set =     -564.6190581412
 mp2 is not implemented in computing transition properties!


 ------------------------------------------------------------------------------

   CCMAN2: suite of methods based on coupled cluster
           and equation of motion theories.

   Components:
   * libvmm-1.3-trunk
     by Evgeny Epifanovsky, Ilya Kaliman.
   * libtensor-2.5-trunk
     by Evgeny Epifanovsky, Michael Wormit, Dmitry Zuev, Sam Manzer, 
        Ilya Kaliman.
   * libcc-2.5-trunk
     by Evgeny Epifanovsky, Arik Landau, Tomasz Kus, Kirill Khistyaev, 
        Dmitry Zuev, Prashant Manohar, Xintian Feng, Anna Krylov, 
        Matthew Goldey, Alec White, Thomas Jagau, Kaushik Nanda, 
        Anastasia Gunina, Alexander Kunitsa, Joonho Lee.

   CCMAN original authors:
   Anna I. Krylov, C. David Sherrill, Steven R. Gwaltney,
   Edward F. C. Byrd (2000)
   Sergey V. Levchenko, Lyudmila V. Slipchenko, Tao Wang,
   Ana-Maria C. Cristian (2003)
   Piotr A. Pieniazek, C. Melania Oana, Evgeny Epifanovsky (2007)
   Prashant Manohar (2009)

 ------------------------------------------------------------------------------


 Allocating and initializing 72000MB of RAM...
 Calculation will run on 1 core.

 
 Alpha MOs, Restricted
 -- Doubly Occupied --           
-20.216 -11.063 -11.063 -11.054 -11.054 -11.055 -11.055 -11.048
  1 A1    2 A1    1 B1    2 B1    3 A1    3 B1    4 A1    5 A1                 
-11.047 -11.042 -11.042 -11.038 -11.035 -11.035  -1.295  -1.143
  4 B1    6 A1    5 B1    7 A1    8 A1    6 B1    9 A1   10 A1                 
 -1.096  -1.030  -0.996  -0.976  -0.927  -0.857  -0.821  -0.762
  7 B1   11 A1   12 A1    8 B1    9 B1   13 A1   14 A1   10 B1                 
 -0.743  -0.716  -0.656  -0.646  -0.602  -0.582  -0.576  -0.558
 11 B1   15 A1   16 A1   12 B1   17 A1   18 A1   13 B1   14 B1                 
 -0.549  -0.533  -0.546  -0.499  -0.478  -0.466  -0.458  -0.433
 19 A1   15 B1    1 B2   20 A1   16 B1   21 A1    1 A2   17 B1                 
 -0.432  -0.447  -0.367  -0.317  -0.304  -0.294
 22 A1    2 B2    3 B2    2 A2   18 B1    4 B2                                 
 -- Singly Occupied (Occupied) --
 -0.254  -0.205
  3 A2    5 B2                                                                 
 -- Virtual --                   
  0.197   0.225   0.290   0.326   0.466   0.495   0.560   0.580
  6 B2    4 A2    5 A2    7 B2    8 B2    6 A2   23 A1   19 B1                 
  0.585   0.631   0.657   0.669   0.669   0.684   0.695   0.708
 24 A1   20 B1   25 A1   26 A1   21 B1   27 A1   22 B1   23 B1                 
  0.760   0.764   0.794   0.838   0.876   0.883   0.885   0.918
 24 B1   28 A1   29 A1   30 A1   25 B1   31 A1   26 B1   27 B1                 
  0.957   0.988   1.080   1.101   1.160   1.159
 28 B1   32 A1   33 A1   29 B1   30 B1   34 A1                                 
 
 Beta MOs, Restricted
 -- Doubly Occupied --           
-20.200 -11.060 -11.060 -11.053 -11.053 -11.048 -11.048 -11.044
  1 A1    2 A1    1 B1    2 B1    3 A1    3 B1    4 A1    5 A1                 
-11.044 -11.042 -11.042 -11.036 -11.035 -11.035  -1.230  -1.120
  4 B1    6 A1    5 B1    7 A1    8 A1    6 B1    9 A1   10 A1                 
 -1.083  -1.014  -0.983  -0.967  -0.902  -0.839  -0.811  -0.750
  7 B1   11 A1   12 A1    8 B1    9 B1   13 A1   14 A1   10 B1                 
 -0.734  -0.705  -0.651  -0.639  -0.594  -0.574  -0.571  -0.552
 11 B1   15 A1   16 A1   12 B1   17 A1   18 A1   13 B1   14 B1                 
 -0.542  -0.527  -0.475  -0.485  -0.471  -0.455  -0.415  -0.426
 19 A1   15 B1    1 B2   20 A1   16 B1   21 A1    1 A2   17 B1                 
 -0.420  -0.357  -0.307  -0.288  -0.280  -0.217
 22 A1    2 B2    3 B2    2 A2   18 B1    4 B2                                 
 -- Singly Occupied (Vacant) --  
  0.047   0.265
  3 A2    5 B2                                                                 
 -- Virtual --                   
  0.248   0.293   0.342   0.399   0.544   0.547   0.566   0.584
  6 B2    4 A2    5 A2    7 B2    8 B2    6 A2   23 A1   19 B1                 
  0.589   0.633   0.664   0.681   0.684   0.703   0.706   0.714
 24 A1   20 B1   25 A1   26 A1   21 B1   27 A1   22 B1   23 B1                 
  0.768   0.769   0.803   0.844   0.880   0.889   0.891   0.927
 24 B1   28 A1   29 A1   30 A1   25 B1   31 A1   26 B1   27 B1                 
  0.963   0.996   1.086   1.106   1.166   1.172
 28 B1   32 A1   33 A1   29 B1   30 B1   34 A1                                 

 Occupation and symmetry of molecular orbitals

 Point group: C2v (4 irreducible representations).

                           A1   A2   B1   B2    All 
 ----------------------------------------------------
 All molecular orbitals:
  - Alpha                  34   6    30   8     78  
  - Beta                   34   6    30   8     78  
 ----------------------------------------------------
 Alpha orbitals:
  - Frozen occupied        8    0    6    0     14  
  - Active occupied        14   3    12   5     34  
  - Active virtual         12   3    12   3     30  
  - Frozen virtual         0    0    0    0     0   
 ----------------------------------------------------
 Beta orbitals:
  - Frozen occupied        8    0    6    0     14  
  - Active occupied        14   2    12   4     32  
  - Active virtual         12   4    12   4     32  
  - Frozen virtual         0    0    0    0     0   
 ----------------------------------------------------

 Import integrals:   CPU 0.00 s  wall 0.00 s

 Molecular orbitals will be canonicalized.
 Import integrals:   CPU 2.50 s  wall 2.60 s

 Computing CCSD intermediates for later calculations in double precision
 Finished.

 MP2 amplitudes:   CPU 1.37 s  wall 1.49 s

        Solving for EOMEE-CCSD A1 transitions.

Running a double precision version
        EOMEE-CCSD/MP2 right amplitudes will be solved using Davidson.
        Amplitudes will be solved using standard  algorithm.
     Hard-coded thresholds: 
     LinDepThresh=1.00e-15  NormThresh=1.00e-06  ReorthogonThresh=1.00e-02

      Roots     MaxVec    MaxIter   Precond   Conv      Shift    
      10        120       60        1         1.00e-05  0.00e+00  
 ------------------------------------------------------------------------------
      Iter ConvRoots NVecs ResNorm^2 Current eigenvalues (eV)
 ------------------------------------------------------------------------------
      0    0      10    1.53e-01   5.7156   6.8629   8.8053   9.1954   9.9919   10.7710   11.3169   11.5755   12.6107   12.7788   
      1    0      20    1.99e-02   2.5274   3.5390   5.3647   5.7220   6.5117   7.1614   7.6663   7.8460   8.8300   9.2988   
      2    0      30    7.34e-03   1.8684   2.9157   4.4412   4.8960   5.6031   6.1325   6.8229   7.1755   7.8338   8.6123   
      3    0      40    3.06e-03   1.7823   2.7872   4.2109   4.6996   5.2641   5.7895   6.5964   6.9956   7.4005   8.3132   
      4    0      50    1.74e-03   1.7627   2.7451   4.1577   4.6407   5.1224   5.6313   6.4840   6.8746   7.1463   8.0890   
      5    0      60    2.31e-03   1.7537   2.7200   4.1382   4.6067   5.0428   5.5370   6.3796   6.6640   6.9392   7.6421   
      6    0      70    1.19e-03   1.7505   2.7080   4.1300   4.5907   5.0120   5.4822   6.2675   6.4466   6.8098   7.2238   
      7    1      80    5.35e-04   1.7501*  2.7050   4.1266   4.5849   5.0060   5.4540   6.1265   6.3871   6.7343   7.0758   
      8    4      89    2.77e-04   1.7501*  2.7044*  4.1258*  4.5839*  5.0058   5.4383   6.0432   6.3708   6.6903   7.0216   
Found complex roots...
      9    4      95    2.09e-04   1.7502*  2.7045*  4.1258*  4.5838*  5.0066   5.4316   6.0046   6.3637   6.6583   6.9841   
Found complex roots...
      10   5      101   1.58e-04   1.7505*  2.7045*  4.1257*  4.5840*  5.0069*  5.4296   5.9864   6.3586   6.6323   6.9461   
      11   5      106   6.91e-05   1.7506*  2.7045*  4.1257*  4.5841*  5.0069*  5.4291   5.9790   6.3556   6.6151   6.9241   
      12   7      111   2.37e-05   1.7507*  2.7045*  4.1257*  4.5842*  5.0067*  5.4289*  5.9766   6.3544*  6.6077   6.9172   
      13   8      114   7.99e-06   1.7507*  2.7045*  4.1257*  4.5842*  5.0067*  5.4288*  5.9761*  6.3540*  6.6056   6.9157   
      14   9      116   3.36e-06   1.7507*  2.7045*  4.1257*  4.5842*  5.0067*  5.4288*  5.9760*  6.3539*  6.6051*  6.9154   
      15   10     117   1.93e-06   1.7507*  2.7045*  4.1257*  4.5843*  5.0067*  5.4288*  5.9759*  6.3538*  6.6051*  6.9152*  

     Davidson procedure converged

 EOMEE transition 1/A1
 Total energy = -565.35345594 a.u.  Excitation energy = 1.7507 eV.
 R0^2 = 0.1264  R1^2 = 0.8586  R2^2 = 0.1414  Res^2 = 7.84e-07
 Conv-d = yes

 Amplitude    Transitions between orbitals
 -0.6223       5 (B2) A                  ->    6 (B2) A                   
  0.6125       2 (A2) B                  ->    3 (A2) B                   
 -0.1616       4 (B2) B                  ->    5 (B2) B                   
 -0.1164       3 (A2) A                  ->    5 (A2) A                   
  0.1136       3 (B2) B                  ->    5 (B2) B                   

              Summary of significant orbitals:

               Number  Type             Irrep      Energy
               46      Occ  Alpha       3 (A2)     -0.2451
               48      Occ  Alpha       5 (B2)     -0.1232
               42      Occ  Beta        2 (A2)     -0.2878
               35      Occ  Beta        3 (B2)     -0.3068
               46      Occ  Beta        4 (B2)     -0.2158
               59      Vir  Alpha       5 (A2)      0.2903
               55      Vir  Alpha       6 (B2)      0.1953
               55      Vir  Beta        3 (A2)      0.0361
               57      Vir  Beta        5 (B2)      0.2055


 EOMEE transition 2/A1
 Total energy = -565.31840650 a.u.  Excitation energy = 2.7045 eV.
 R0^2 = 0.1009  R1^2 = 0.8022  R2^2 = 0.1978  Res^2 = 6.24e-07
 Conv-d = yes

 Amplitude    Transitions between orbitals
 -0.6178       2 (A2) B                  ->    3 (A2) B                   
 -0.5609       5 (B2) A                  ->    6 (B2) A                   
  0.1443       4 (B2) A                  ->    6 (B2) A                   
  0.1270       5 (B2) A                  ->    7 (B2) A                   
 -0.1249       4 (B2) B                  ->    6 (B2) B                   
 -0.1237       4 (B2) B                  ->    5 (B2) B                   

              Summary of significant orbitals:

               Number  Type             Irrep      Energy
               35      Occ  Alpha       4 (B2)     -0.3397
               48      Occ  Alpha       5 (B2)     -0.1232
               42      Occ  Beta        2 (A2)     -0.2878
               46      Occ  Beta        4 (B2)     -0.2158
               55      Vir  Alpha       6 (B2)      0.1953
               60      Vir  Alpha       7 (B2)      0.3257
               55      Vir  Beta        3 (A2)      0.0361
               57      Vir  Beta        5 (B2)      0.2055
               59      Vir  Beta        6 (B2)      0.2709


 EOMEE transition 3/A1
 Total energy = -565.26617665 a.u.  Excitation energy = 4.1257 eV.
 R0^2 = 0.0116  R1^2 = 0.8315  R2^2 = 0.1685  Res^2 = 1.15e-06
 Conv-d = yes

 Amplitude    Transitions between orbitals
  0.4632       5 (B2) A                  ->    7 (B2) A                   
 -0.4595       4 (B2) B                  ->    5 (B2) B                   
  0.3184       1 (A2) B                  ->    3 (A2) B                   
 -0.2857       4 (B2) B                  ->    6 (B2) B                   
  0.2012       5 (B2) A                  ->    6 (B2) A                   
  0.1656       2 (A2) B                  ->    4 (A2) B                   
  0.1642       2 (A2) B                  ->    3 (A2) B                   
  0.1621       3 (A2) A                  ->    4 (A2) A                   
 -0.1528       2 (A2) A                  ->    4 (A2) A                   
  0.1326       4 (B2) A                  ->    6 (B2) A                   

              Summary of significant orbitals:

               Number  Type             Irrep      Energy
               42      Occ  Alpha       2 (A2)     -0.3209
               46      Occ  Alpha       3 (A2)     -0.2451
               35      Occ  Alpha       4 (B2)     -0.3397
               48      Occ  Alpha       5 (B2)     -0.1232
               40      Occ  Beta        1 (A2)     -0.4152
               42      Occ  Beta        2 (A2)     -0.2878
               46      Occ  Beta        4 (B2)     -0.2158
               57      Vir  Alpha       4 (A2)      0.2248
               55      Vir  Alpha       6 (B2)      0.1953
               60      Vir  Alpha       7 (B2)      0.3257
               55      Vir  Beta        3 (A2)      0.0361
               60      Vir  Beta        4 (A2)      0.2990
               57      Vir  Beta        5 (B2)      0.2055
               59      Vir  Beta        6 (B2)      0.2709


 EOMEE transition 4/A1
 Total energy = -565.24932593 a.u.  Excitation energy = 4.5843 eV.
 R0^2 = 0.0004  R1^2 = 0.8188  R2^2 = 0.1812  Res^2 = 2.77e-06
 Conv-d = yes

 Amplitude    Transitions between orbitals
 -0.5349       4 (B2) B                  ->    5 (B2) B                   
 -0.4804       1 (A2) B                  ->    3 (A2) B                   
  0.2724       3 (A2) A                  ->    4 (A2) A                   
  0.2266       3 (A2) A                  ->    5 (A2) A                   
 -0.2174       3 (B2) B                  ->    5 (B2) B                   
  0.1773       5 (B2) A                  ->    8 (B2) A                   
 -0.1373       5 (B2) A                  ->    7 (B2) A                   
  0.1163       2 (A2) A                  ->    4 (A2) A                   

              Summary of significant orbitals:

               Number  Type             Irrep      Energy
               42      Occ  Alpha       2 (A2)     -0.3209
               46      Occ  Alpha       3 (A2)     -0.2451
               48      Occ  Alpha       5 (B2)     -0.1232
               40      Occ  Beta        1 (A2)     -0.4152
               35      Occ  Beta        3 (B2)     -0.3068
               46      Occ  Beta        4 (B2)     -0.2158
               57      Vir  Alpha       4 (A2)      0.2248
               59      Vir  Alpha       5 (A2)      0.2903
               60      Vir  Alpha       7 (B2)      0.3257
               62      Vir  Alpha       8 (B2)      0.4675
               55      Vir  Beta        3 (A2)      0.0361
               57      Vir  Beta        5 (B2)      0.2055


 EOMEE transition 5/A1
 Total energy = -565.23380208 a.u.  Excitation energy = 5.0067 eV.
 R0^2 = 0.0001  R1^2 = 0.7682  R2^2 = 0.2318  Res^2 = 5.21e-07
 Conv-d = yes

 Amplitude    Transitions between orbitals
 -0.3722       4 (B2) B                  ->    6 (B2) B                   
  0.3133       4 (B2) B                  ->    5 (B2) B                   
  0.2681       4 (B2) A                  ->    6 (B2) A                   
 -0.2617       1 (A2) B                  ->    3 (A2) B                   
 -0.2558       3 (A2) A                  ->    4 (A2) A                   
  0.2094       2 (A2) B                  ->    5 (A2) B                   
 -0.1803       3 (B2) A                  ->    6 (B2) A                   
  0.1775       5 (B2) A                  ->    7 (B2) A                   
  0.1728       2 (B2) B                  ->    5 (B2) B                   
 -0.1594       2 (A2) A                  ->    4 (A2) A                   
  0.1459       3 (A2) A                  ->    5 (A2) A                   
  0.1380       2 (A2) B                  ->    3 (A2) B                   
 -0.1307       3 (B2) B                  ->    5 (B2) B                   
  0.1279       2 (A2) B                  ->    4 (A2) B                   
  0.1139       5 (B2) A                  ->    8 (B2) A                   
  0.1014       2 (A2) A                  ->    5 (A2) A                   

              Summary of significant orbitals:

               Number  Type             Irrep      Energy
               42      Occ  Alpha       2 (A2)     -0.3209
               46      Occ  Alpha       3 (A2)     -0.2451
               45      Occ  Alpha       3 (B2)     -0.3681
               35      Occ  Alpha       4 (B2)     -0.3397
               48      Occ  Alpha       5 (B2)     -0.1232
               40      Occ  Beta        1 (A2)     -0.4152
               42      Occ  Beta        2 (A2)     -0.2878
               45      Occ  Beta        2 (B2)     -0.3580
               35      Occ  Beta        3 (B2)     -0.3068
               46      Occ  Beta        4 (B2)     -0.2158
               57      Vir  Alpha       4 (A2)      0.2248
               59      Vir  Alpha       5 (A2)      0.2903
               55      Vir  Alpha       6 (B2)      0.1953
               60      Vir  Alpha       7 (B2)      0.3257
               62      Vir  Alpha       8 (B2)      0.4675
               55      Vir  Beta        3 (A2)      0.0361
               60      Vir  Beta        4 (A2)      0.2990
               62      Vir  Beta        5 (A2)      0.3443
               57      Vir  Beta        5 (B2)      0.2055
               59      Vir  Beta        6 (B2)      0.2709


 EOMEE transition 6/A1
 Total energy = -565.21829049 a.u.  Excitation energy = 5.4288 eV.
 R0^2 = 0.0100  R1^2 = 0.8039  R2^2 = 0.1961  Res^2 = 6.06e-07
 Conv-d = yes

 Amplitude    Transitions between orbitals
  0.4096       5 (B2) A                  ->    7 (B2) A                   
 -0.3906       3 (A2) A                  ->    4 (A2) A                   
 -0.2687       4 (B2) A                  ->    6 (B2) A                   
  0.2466       2 (A2) A                  ->    4 (A2) A                   
 -0.2268       2 (A2) B                  ->    4 (A2) B                   
 -0.2196       4 (B2) A                  ->    7 (B2) A                   
  0.1803       2 (B2) B                  ->    6 (B2) B                   
 -0.1759       1 (A2) B                  ->    3 (A2) B                   
  0.1687       3 (B2) B                  ->    5 (B2) B                   
  0.1671       2 (B2) B                  ->    5 (B2) B                   
 -0.1539       2 (A2) A                  ->    5 (A2) A                   
  0.1446       5 (B2) A                  ->    8 (B2) A                   
  0.1274       4 (B2) B                  ->    6 (B2) B                   

              Summary of significant orbitals:

               Number  Type             Irrep      Energy
               42      Occ  Alpha       2 (A2)     -0.3209
               46      Occ  Alpha       3 (A2)     -0.2451
               35      Occ  Alpha       4 (B2)     -0.3397
               48      Occ  Alpha       5 (B2)     -0.1232
               40      Occ  Beta        1 (A2)     -0.4152
               42      Occ  Beta        2 (A2)     -0.2878
               45      Occ  Beta        2 (B2)     -0.3580
               35      Occ  Beta        3 (B2)     -0.3068
               46      Occ  Beta        4 (B2)     -0.2158
               57      Vir  Alpha       4 (A2)      0.2248
               59      Vir  Alpha       5 (A2)      0.2903
               55      Vir  Alpha       6 (B2)      0.1953
               60      Vir  Alpha       7 (B2)      0.3257
               62      Vir  Alpha       8 (B2)      0.4675
               55      Vir  Beta        3 (A2)      0.0361
               60      Vir  Beta        4 (A2)      0.2990
               57      Vir  Beta        5 (B2)      0.2055
               59      Vir  Beta        6 (B2)      0.2709


 EOMEE transition 7/A1
 Total energy = -565.19818415 a.u.  Excitation energy = 5.9759 eV.
 R0^2 = 0.0191  R1^2 = 0.3158  R2^2 = 0.6842  Res^2 = 3.95e-06
 Conv-d = yes

 Amplitude    Transitions between orbitals
 -0.4228       5 (B2) A      2 (A2) B    ->    6 (B2) A      3 (A2) B     
  0.4228       5 (B2) A      2 (A2) B    ->    3 (A2) B      6 (B2) A     
  0.4228       2 (A2) B      5 (B2) A    ->    6 (B2) A      3 (A2) B     
 -0.4228       2 (A2) B      5 (B2) A    ->    3 (A2) B      6 (B2) A     
  0.3403       5 (B2) A      4 (B2) B    ->    4 (A2) A      3 (A2) B     
 -0.3403       5 (B2) A      4 (B2) B    ->    3 (A2) B      4 (A2) A     
 -0.3403       4 (B2) B      5 (B2) A    ->    4 (A2) A      3 (A2) B     
  0.3403       4 (B2) B      5 (B2) A    ->    3 (A2) B      4 (A2) A     
  0.2267       5 (B2) A      3 (B2) B    ->    5 (A2) A      3 (A2) B     
 -0.2267       5 (B2) A      3 (B2) B    ->    3 (A2) B      5 (A2) A     
 -0.2267       3 (B2) B      5 (B2) A    ->    5 (A2) A      3 (A2) B     
  0.2267       3 (B2) B      5 (B2) A    ->    3 (A2) B      5 (A2) A     
  0.1946       5 (B2) A      2 (B2) B    ->    4 (A2) A      3 (A2) B     
 -0.1946       5 (B2) A      2 (B2) B    ->    3 (A2) B      4 (A2) A     
 -0.1946       2 (B2) B      5 (B2) A    ->    4 (A2) A      3 (A2) B     
  0.1946       2 (B2) B      5 (B2) A    ->    3 (A2) B      4 (A2) A     
 -0.1787       5 (B2) A      2 (A2) B    ->    7 (B2) A      3 (A2) B     
  0.1787       5 (B2) A      2 (A2) B    ->    3 (A2) B      7 (B2) A     
  0.1787       2 (A2) B      5 (B2) A    ->    7 (B2) A      3 (A2) B     
 -0.1787       2 (A2) B      5 (B2) A    ->    3 (A2) B      7 (B2) A     
 -0.1645       5 (B2) A      4 (B2) B    ->    5 (A2) A      3 (A2) B     
  0.1645       5 (B2) A      4 (B2) B    ->    3 (A2) B      5 (A2) A     
  0.1645       4 (B2) B      5 (B2) A    ->    5 (A2) A      3 (A2) B     
 -0.1645       4 (B2) B      5 (B2) A    ->    3 (A2) B      5 (A2) A     
  0.1381       5 (B2) A      1 (A2) B    ->    7 (B2) A      3 (A2) B     
 -0.1381       5 (B2) A      1 (A2) B    ->    3 (A2) B      7 (B2) A     
 -0.1381       1 (A2) B      5 (B2) A    ->    7 (B2) A      3 (A2) B     
  0.1381       1 (A2) B      5 (B2) A    ->    3 (A2) B      7 (B2) A     
 -0.1313       5 (B2) A      1 (A2) B    ->    8 (B2) A      3 (A2) B     
  0.1313       5 (B2) A      1 (A2) B    ->    3 (A2) B      8 (B2) A     
  0.1313       1 (A2) B      5 (B2) A    ->    8 (B2) A      3 (A2) B     
 -0.1313       1 (A2) B      5 (B2) A    ->    3 (A2) B      8 (B2) A     
 -0.1086       5 (B2) A      2 (B2) B    ->    5 (A2) A      3 (A2) B     
  0.1086       5 (B2) A      2 (B2) B    ->    3 (A2) B      5 (A2) A     
  0.1086       2 (B2) B      5 (B2) A    ->    5 (A2) A      3 (A2) B     
 -0.1086       2 (B2) B      5 (B2) A    ->    3 (A2) B      5 (A2) A     
 -0.1049       5 (B2) A      1 (B2) B    ->    6 (A2) A      3 (A2) B     
  0.1049       5 (B2) A      1 (B2) B    ->    3 (A2) B      6 (A2) A     
  0.1049       1 (B2) B      5 (B2) A    ->    6 (A2) A      3 (A2) B     
 -0.1049       1 (B2) B      5 (B2) A    ->    3 (A2) B      6 (A2) A     

              Summary of significant orbitals:

               Number  Type             Irrep      Energy
               48      Occ  Alpha       5 (B2)     -0.1232
               40      Occ  Beta        1 (A2)     -0.4152
               42      Occ  Beta        2 (A2)     -0.2878
               28      Occ  Beta        1 (B2)     -0.4768
               45      Occ  Beta        2 (B2)     -0.3580
               35      Occ  Beta        3 (B2)     -0.3068
               46      Occ  Beta        4 (B2)     -0.2158
               57      Vir  Alpha       4 (A2)      0.2248
               59      Vir  Alpha       5 (A2)      0.2903
               66      Vir  Alpha       6 (A2)      0.4953
               55      Vir  Alpha       6 (B2)      0.1953
               60      Vir  Alpha       7 (B2)      0.3257
               62      Vir  Alpha       8 (B2)      0.4675
               55      Vir  Beta        3 (A2)      0.0361


 EOMEE transition 8/A1
 Total energy = -565.18429508 a.u.  Excitation energy = 6.3538 eV.
 R0^2 = 0.0014  R1^2 = 0.7698  R2^2 = 0.2302  Res^2 = 1.36e-06
 Conv-d = yes

 Amplitude    Transitions between orbitals
  0.5126       3 (B2) B                  ->    5 (B2) B                   
 -0.3541       3 (A2) A                  ->    5 (A2) A                   
  0.2607       3 (B2) A                  ->    6 (B2) A                   
 -0.2157       5 (B2) A                  ->    7 (B2) A                   
 -0.2144       1 (A2) B                  ->    3 (A2) B                   
  0.1747       5 (B2) A                  ->    6 (B2) A                   
  0.1675       4 (B2) A                  ->    6 (B2) A                   
 -0.1541       4 (B2) B                  ->    6 (B2) B                   
 -0.1349       2 (A2) B                  ->    3 (A2) B                   
 -0.1273       2 (A2) B                  ->    5 (A2) B                   
  0.1273       3 (B2) B                  ->    6 (B2) B                   
 -0.1271       2 (B2) A                  ->    6 (B2) A                   

              Summary of significant orbitals:

               Number  Type             Irrep      Energy
               46      Occ  Alpha       3 (A2)     -0.2451
               31      Occ  Alpha       2 (B2)     -0.4730
               45      Occ  Alpha       3 (B2)     -0.3681
               35      Occ  Alpha       4 (B2)     -0.3397
               48      Occ  Alpha       5 (B2)     -0.1232
               40      Occ  Beta        1 (A2)     -0.4152
               42      Occ  Beta        2 (A2)     -0.2878
               35      Occ  Beta        3 (B2)     -0.3068
               46      Occ  Beta        4 (B2)     -0.2158
               59      Vir  Alpha       5 (A2)      0.2903
               55      Vir  Alpha       6 (B2)      0.1953
               60      Vir  Alpha       7 (B2)      0.3257
               55      Vir  Beta        3 (A2)      0.0361
               62      Vir  Beta        5 (A2)      0.3443
               57      Vir  Beta        5 (B2)      0.2055
               59      Vir  Beta        6 (B2)      0.2709


 EOMEE transition 9/A1
 Total energy = -565.17506314 a.u.  Excitation energy = 6.6051 eV.
 R0^2 = 0.0000  R1^2 = 0.7441  R2^2 = 0.2559  Res^2 = 2.72e-06
 Conv-d = yes

 Amplitude    Transitions between orbitals
  0.3279       1 (A2) B                  ->    3 (A2) B                   
  0.2875       2 (A2) A                  ->    4 (A2) A                   
  0.2712       4 (B2) B                  ->    6 (B2) B                   
 -0.2541       4 (B2) B                  ->    7 (B2) B                   
 -0.2318       2 (B2) A                  ->    6 (B2) A                   
  0.1996       3 (B2) B                  ->    6 (B2) B                   
  0.1884       4 (B2) A                  ->    6 (B2) A                   
 -0.1624       3 (B2) B                  ->    5 (B2) B                   
  0.1606       2 (B2) B                  ->    6 (B2) B                   
 -0.1599       2 (A2) B                  ->    4 (A2) B                   
 -0.1586       4 (B2) A                  ->    7 (B2) A                   
  0.1503       2 (A2) A                  ->    5 (A2) A                   
  0.1449       1 (A2) B                  ->    4 (A2) B                   
  0.1339       2 (A2) B                  ->    5 (A2) B                   
 -0.1263       3 (B2) A                  ->    6 (B2) A                   
  0.1212       1 (A2) A                  ->    4 (A2) A                   
  0.1111       5 (B2) A                  ->    8 (B2) A                   
  0.1062       2 (B2) B                  ->    5 (B2) B                   

              Summary of significant orbitals:

               Number  Type             Irrep      Energy
               34      Occ  Alpha       1 (A2)     -0.4639
               42      Occ  Alpha       2 (A2)     -0.3209
               31      Occ  Alpha       2 (B2)     -0.4730
               45      Occ  Alpha       3 (B2)     -0.3681
               35      Occ  Alpha       4 (B2)     -0.3397
               48      Occ  Alpha       5 (B2)     -0.1232
               40      Occ  Beta        1 (A2)     -0.4152
               42      Occ  Beta        2 (A2)     -0.2878
               45      Occ  Beta        2 (B2)     -0.3580
               35      Occ  Beta        3 (B2)     -0.3068
               46      Occ  Beta        4 (B2)     -0.2158
               57      Vir  Alpha       4 (A2)      0.2248
               59      Vir  Alpha       5 (A2)      0.2903
               55      Vir  Alpha       6 (B2)      0.1953
               60      Vir  Alpha       7 (B2)      0.3257
               62      Vir  Alpha       8 (B2)      0.4675
               55      Vir  Beta        3 (A2)      0.0361
               60      Vir  Beta        4 (A2)      0.2990
               62      Vir  Beta        5 (A2)      0.3443
               57      Vir  Beta        5 (B2)      0.2055
               59      Vir  Beta        6 (B2)      0.2709
               66      Vir  Beta        7 (B2)      0.4197


 EOMEE transition 10/A1
 Total energy = -565.16366559 a.u.  Excitation energy = 6.9152 eV.
 R0^2 = 0.0010  R1^2 = 0.7412  R2^2 = 0.2588  Res^2 = 4.78e-06
 Conv-d = yes

 Amplitude    Transitions between orbitals
 -0.5405       3 (A2) A                  ->    4 (A2) A                   
 -0.3758       4 (B2) B                  ->    5 (B2) B                   
 -0.2705       5 (B2) A                  ->    7 (B2) A                   
  0.2037       3 (B2) B                  ->    6 (B2) B                   
  0.1699       2 (B2) B                  ->    5 (B2) B                   
 -0.1693       3 (B2) A                  ->    6 (B2) A                   
  0.1341       2 (A2) B                  ->    5 (A2) B                   

              Summary of significant orbitals:

               Number  Type             Irrep      Energy
               46      Occ  Alpha       3 (A2)     -0.2451
               45      Occ  Alpha       3 (B2)     -0.3681
               48      Occ  Alpha       5 (B2)     -0.1232
               42      Occ  Beta        2 (A2)     -0.2878
               45      Occ  Beta        2 (B2)     -0.3580
               35      Occ  Beta        3 (B2)     -0.3068
               46      Occ  Beta        4 (B2)     -0.2158
               57      Vir  Alpha       4 (A2)      0.2248
               55      Vir  Alpha       6 (B2)      0.1953
               60      Vir  Alpha       7 (B2)      0.3257
               62      Vir  Beta        5 (A2)      0.3443
               57      Vir  Beta        5 (B2)      0.2055
               59      Vir  Beta        6 (B2)      0.2709


Running a double precision version
      EOM-CCSD/MP2 left amplitudes will be solved using Davidson.
        Amplitudes will be solved using MOM  algorithm.
     Hard-coded thresholds: 
     LinDepThresh=1.00e-15  NormThresh=1.00e-06  ReorthogonThresh=1.00e-02

      Roots     MaxVec    MaxIter   Precond   Conv      Shift    
      10        120       60        1         1.00e-05  0.00e+00  
 ------------------------------------------------------------------------------
      Iter ConvRoots NVecs ResNorm^2 Current eigenvalues (eV)
 ------------------------------------------------------------------------------
      0    0      10    1.05e-02   1.7507   2.7045   4.1257   4.5843   5.0067   5.4288   5.9759   6.3538   6.6051   6.9152   
      1    0      20    3.17e-03   1.7507   2.7044   4.1258   4.5843   5.0066   5.4286   5.9759   6.3539   6.6050   6.9149   
      2    0      30    4.89e-04   1.7506   2.7044   4.1259   4.5844   5.0066   5.4286   5.9760   6.3540   6.6050   6.9150   
Found complex roots...
      3    0      40    1.14e-04   1.7506   2.7044   4.1259   4.5845   5.0065   5.4285   5.9760   6.3540   6.6050   6.9149   
      4    0      50    3.75e-05   1.7506   2.7044   4.1259   4.5845   5.0065   5.4286   5.9761   6.3541   6.6050   6.9150   
Found complex roots...
      5    4      60    1.28e-05   1.7506*  2.7043*  4.1259*  4.5845*  5.0065   5.4285   5.9760   6.3541   6.6049   6.9150   
      6    8      66    7.21e-06   1.7506*  2.7043*  4.1259*  4.5845*  5.0065*  5.4285*  5.9760*  6.3541*  6.6049   6.9150   
      7    9      68    6.81e-06   1.7506*  2.7043*  4.1259*  4.5845*  5.0065*  5.4285*  5.9760*  6.3541*  6.6049*  6.9151   
      8    9      69    6.76e-06   1.7506*  2.7043*  4.1259*  4.5845*  5.0065*  5.4285*  5.9760*  6.3541*  6.6049*  6.9151   
      9    9      70    6.57e-06   1.7506*  2.7043*  4.1259*  4.5845*  5.0065*  5.4285*  5.9760*  6.3541*  6.6049*  6.9151   
      10   9      71    6.11e-06   1.7506*  2.7043*  4.1259*  4.5845*  5.0065*  5.4285*  5.9760*  6.3541*  6.6049*  6.9151   
      11   9      72    5.75e-06   1.7506*  2.7043*  4.1259*  4.5845*  5.0065*  5.4285*  5.9760*  6.3541*  6.6049*  6.9150   
Found complex roots...
      12   9      73    5.38e-06   1.7506*  2.7043*  4.1259*  4.5845*  5.0065*  5.4285*  5.9760*  6.3541*  6.6049*  6.9150   
      13   9      74    5.05e-06   1.7506*  2.7043*  4.1259*  4.5845*  5.0065*  5.4285*  5.9760*  6.3541*  6.6049*  6.9151   
      14   10     75    4.73e-06   1.7506*  2.7043*  4.1259*  4.5845*  5.0065*  5.4285*  5.9760*  6.3541*  6.6049*  6.9151*  

     Davidson procedure converged

 EOMEE-CCSD transition 1/A1
S^2 calculation will be performed in  double precision
 EOMEE-CCSD transition 2/A1
S^2 calculation will be performed in  double precision
 EOMEE-CCSD transition 3/A1
S^2 calculation will be performed in  double precision
 EOMEE-CCSD transition 4/A1
S^2 calculation will be performed in  double precision
 EOMEE-CCSD transition 5/A1
S^2 calculation will be performed in  double precision
 EOMEE-CCSD transition 6/A1
S^2 calculation will be performed in  double precision
 EOMEE-CCSD transition 7/A1
S^2 calculation will be performed in  double precision
 EOMEE-CCSD transition 8/A1
S^2 calculation will be performed in  double precision
 EOMEE-CCSD transition 9/A1
S^2 calculation will be performed in  double precision
 EOMEE-CCSD transition 10/A1
S^2 calculation will be performed in  double precision
 Excited state properties for  EOMEE-CCSD transition 1/A1
 Dipole moment (a.u.): 0.913189 (X 0.000000, Y 0.000000, Z -0.913189)
 R-squared (a.u.): 2535.597796 (XX 1716.066543, YY 55.751824, ZZ 763.779428)
 Gauge origin (a.u.): (0.000000, 0.000000, 0.000000)
 Angular momentum (a.u.) against gauge origin: 
 (X 0.000000i, Y 0.000000i, Z 0.000000i)
 Traces of the OPDMs: Tr(AA) 48.000000, Tr(BB) 46.000000
 <S^2> = 2.147852

 Excited state properties for  EOMEE-CCSD transition 2/A1
 Dipole moment (a.u.): 1.485140 (X 0.000000, Y 0.000000, Z -1.485140)
 R-squared (a.u.): 2534.246879 (XX 1715.232314, YY 55.773582, ZZ 763.240983)
 Gauge origin (a.u.): (0.000000, 0.000000, 0.000000)
 Angular momentum (a.u.) against gauge origin: 
 (X 0.000000i, Y 0.000000i, Z 0.000000i)
 Traces of the OPDMs: Tr(AA) 48.000000, Tr(BB) 46.000000
 <S^2> = 2.059484

 Excited state properties for  EOMEE-CCSD transition 3/A1
 Dipole moment (a.u.): 0.784399 (X 0.000000, Y 0.000000, Z -0.784399)
 R-squared (a.u.): 2534.783787 (XX 1714.562604, YY 55.675933, ZZ 764.545250)
 Gauge origin (a.u.): (0.000000, 0.000000, 0.000000)
 Angular momentum (a.u.) against gauge origin: 
 (X 0.000000i, Y 0.000000i, Z 0.000000i)
 Traces of the OPDMs: Tr(AA) 48.000000, Tr(BB) 46.000000
 <S^2> = 2.227822

 Excited state properties for  EOMEE-CCSD transition 4/A1
 Dipole moment (a.u.): 1.395674 (X 0.000000, Y 0.000000, Z -1.395674)
 R-squared (a.u.): 2534.227249 (XX 1713.875638, YY 55.611483, ZZ 764.740129)
 Gauge origin (a.u.): (0.000000, 0.000000, 0.000000)
 Angular momentum (a.u.) against gauge origin: 
 (X 0.000000i, Y 0.000000i, Z 0.000000i)
 Traces of the OPDMs: Tr(AA) 48.000000, Tr(BB) 46.000000
 <S^2> = 2.290524

 Excited state properties for  EOMEE-CCSD transition 5/A1
 Dipole moment (a.u.): 1.175495 (X 0.000000, Y 0.000000, Z -1.175495)
 R-squared (a.u.): 2534.207355 (XX 1714.793225, YY 55.639051, ZZ 763.775079)
 Gauge origin (a.u.): (0.000000, 0.000000, 0.000000)
 Angular momentum (a.u.) against gauge origin: 
 (X 0.000000i, Y 0.000000i, Z 0.000000i)
 Traces of the OPDMs: Tr(AA) 48.000000, Tr(BB) 46.000000
 <S^2> = 3.861250

 Excited state properties for  EOMEE-CCSD transition 6/A1
 Dipole moment (a.u.): 0.661470 (X 0.000000, Y 0.000000, Z -0.661470)
 R-squared (a.u.): 2535.475008 (XX 1715.109094, YY 55.635724, ZZ 764.730189)
 Gauge origin (a.u.): (0.000000, 0.000000, 0.000000)
 Angular momentum (a.u.) against gauge origin: 
 (X 0.000000i, Y 0.000000i, Z 0.000000i)
 Traces of the OPDMs: Tr(AA) 48.000000, Tr(BB) 46.000000
 <S^2> = 3.025670

 Excited state properties for  EOMEE-CCSD transition 7/A1
 Dipole moment (a.u.): 0.631541 (X 0.000000, Y 0.000000, Z -0.631541)
 R-squared (a.u.): 2533.837442 (XX 1715.470557, YY 55.645008, ZZ 762.721877)
 Gauge origin (a.u.): (0.000000, 0.000000, 0.000000)
 Angular momentum (a.u.) against gauge origin: 
 (X 0.000000i, Y 0.000000i, Z 0.000000i)
 Traces of the OPDMs: Tr(AA) 48.000000, Tr(BB) 46.000000
 <S^2> = 2.259190

 Excited state properties for  EOMEE-CCSD transition 8/A1
 Dipole moment (a.u.): 1.372765 (X 0.000000, Y 0.000000, Z -1.372765)
 R-squared (a.u.): 2534.406368 (XX 1713.127594, YY 55.582011, ZZ 765.696763)
 Gauge origin (a.u.): (0.000000, 0.000000, 0.000000)
 Angular momentum (a.u.) against gauge origin: 
 (X 0.000000i, Y 0.000000i, Z 0.000000i)
 Traces of the OPDMs: Tr(AA) 48.000000, Tr(BB) 46.000000
 <S^2> = 2.748173

 Excited state properties for  EOMEE-CCSD transition 9/A1
 Dipole moment (a.u.): 1.181208 (X 0.000000, Y 0.000000, Z -1.181208)
 R-squared (a.u.): 2534.333517 (XX 1714.571859, YY 55.584370, ZZ 764.177288)
 Gauge origin (a.u.): (0.000000, 0.000000, 0.000000)
 Angular momentum (a.u.) against gauge origin: 
 (X 0.000000i, Y 0.000000i, Z 0.000000i)
 Traces of the OPDMs: Tr(AA) 48.000000, Tr(BB) 46.000000
 <S^2> = 3.891907

 Excited state properties for  EOMEE-CCSD transition 10/A1
 Dipole moment (a.u.): 0.852282 (X 0.000000, Y 0.000000, Z -0.852282)
 R-squared (a.u.): 2536.147617 (XX 1715.466526, YY 55.630805, ZZ 765.050286)
 Gauge origin (a.u.): (0.000000, 0.000000, 0.000000)
 Angular momentum (a.u.) against gauge origin: 
 (X 0.000000i, Y 0.000000i, Z 0.000000i)
 Traces of the OPDMs: Tr(AA) 48.000000, Tr(BB) 46.000000
 <S^2> = 2.936250

        Solving for EOMEE-CCSD A2 transitions.

Running a double precision version
        EOMEE-CCSD/MP2 right amplitudes will be solved using Davidson.
        Amplitudes will be solved using standard  algorithm.
     Hard-coded thresholds: 
     LinDepThresh=1.00e-15  NormThresh=1.00e-06  ReorthogonThresh=1.00e-02

      Roots     MaxVec    MaxIter   Precond   Conv      Shift    
      10        120       60        1         1.00e-05  0.00e+00  
 ------------------------------------------------------------------------------
      Iter ConvRoots NVecs ResNorm^2 Current eigenvalues (eV)
 ------------------------------------------------------------------------------
      0    0      10    1.87e-01   6.6934   8.5168   9.9402   10.1319   11.1683   11.7663   12.4835   13.3130   13.6622   14.0944   
      1    0      20    2.41e-02   2.7931   5.0200   5.9827   6.0293   6.7933   7.2397   8.6218   8.9103   9.5599   9.9229   
      2    0      30    7.10e-03   1.7376   4.4066   4.9080   5.3575   5.7595   6.5869   7.7347   7.9274   8.8505   9.1340   
      3    0      40    2.13e-03   1.5619   4.3419   4.6777   5.2808   5.5330   6.4962   7.4396   7.7914   8.6971   8.9359   
      4    0      50    1.27e-03   1.5166   4.3477   4.6068   5.2768   5.4107   6.4854   7.3077   7.7569   8.6366   8.8008   
      5    0      60    1.21e-03   1.5020   4.3427   4.5708   5.2532   5.3222   6.4720   7.1989   7.7247   8.2437   8.6323   
      6    1      70    8.04e-04   1.4982*  4.3409   4.5616   5.2231   5.2997   6.4662   7.1520   7.7072   7.9208   8.5696   
      7    2      79    7.78e-04   1.4977*  4.3409*  4.5601   5.2061   5.2948   6.4650   7.1315   7.6871   7.7221   8.3346   
      8    5      87    7.19e-04   1.4973*  4.3407*  4.5601*  5.2012   5.2939*  6.4647*  7.1225   7.6218   7.6659   7.9629   
Found complex roots...
      9    6      92    3.56e-04   1.4971*  4.3407*  4.5601*  5.2001*  5.2938*  6.4647*  7.1163   7.5824   7.5824   7.7831   
Found complex roots...
      10   6      95    1.53e-04   1.4970*  4.3407*  4.5602*  5.2003*  5.2937*  6.4646*  7.1122   7.5306   7.5306   7.7511   
Found complex roots...
      11   6      98    6.93e-05   1.4970*  4.3407*  4.5602*  5.2002*  5.2937*  6.4646*  7.1101   7.5125   7.5125   7.7439   
Found complex roots...
      12   6      101   3.02e-05   1.4969*  4.3407*  4.5602*  5.2001*  5.2937*  6.4646*  7.1089   7.5029   7.5029   7.7414   
Found complex roots...
      13   7      104   1.46e-05   1.4969*  4.3407*  4.5602*  5.1999*  5.2936*  6.4645*  7.1085*  7.4986   7.4986   7.7401   
Found complex roots...
      14   8      106   7.15e-06   1.4970*  4.3407*  4.5602*  5.1999*  5.2936*  6.4645*  7.1085*  7.4973   7.4973   7.7393*  
Found complex roots...
      15   8      107   3.39e-06   1.4970*  4.3407*  4.5602*  5.1999*  5.2936*  6.4645*  7.1085*  7.4969   7.4969   7.7391*  
Found complex roots...
      16   10     108   1.90e-06   1.4970*  4.3407*  4.5602*  5.1999*  5.2936*  6.4645*  7.1084*  7.4968*  7.4968*  7.7389*  

     Davidson procedure converged

 EOMEE transition 1/A2
 Total energy = -565.36278209 a.u.  Excitation energy = 1.4970 eV.
 R0^2 = 0.0000  R1^2 = 0.9327  R2^2 = 0.0673  Res^2 = 2.20e-06
 Conv-d = yes

 Amplitude    Transitions between orbitals
  0.6555       18 (B1) B                 ->    5 (B2) B                   
  0.5403       18 (B1) B                 ->    6 (B2) B                   
  0.3312       18 (B1) B                 ->    7 (B2) B                   
  0.1831       18 (B1) B                 ->    8 (B2) B                   
 -0.1084       16 (B1) B                 ->    6 (B2) B                   
 -0.1081       16 (B1) B                 ->    5 (B2) B                   

              Summary of significant orbitals:

               Number  Type             Irrep      Energy
               31      Occ  Beta       16 (B1)     -0.4706
               43      Occ  Beta       18 (B1)     -0.2801
               57      Vir  Beta        5 (B2)      0.2055
               59      Vir  Beta        6 (B2)      0.2709
               66      Vir  Beta        7 (B2)      0.4197
               68      Vir  Beta        8 (B2)      0.5604


 EOMEE transition 2/A2
 Total energy = -565.25827720 a.u.  Excitation energy = 4.3407 eV.
 R0^2 = 0.0000  R1^2 = 0.8514  R2^2 = 0.1486  Res^2 = 1.07e-06
 Conv-d = yes

 Amplitude    Transitions between orbitals
 -0.8733       22 (A1) B                 ->    3 (A2) B                   
 -0.1725       20 (A1) B                 ->    3 (A2) B                   
 -0.1293       21 (A1) B                 ->    3 (A2) B                   
 -0.0951       22 (A1) B                 ->    4 (A2) B                   

              Summary of significant orbitals:

               Number  Type             Irrep      Energy
               25      Occ  Beta       20 (A1)     -0.4854
               32      Occ  Beta       21 (A1)     -0.4551
               37      Occ  Beta       22 (A1)     -0.4199
               55      Vir  Beta        3 (A2)      0.0361
               60      Vir  Beta        4 (A2)      0.2990


 EOMEE transition 3/A2
 Total energy = -565.25021042 a.u.  Excitation energy = 4.5602 eV.
 R0^2 = 0.0000  R1^2 = 0.7452  R2^2 = 0.2548  Res^2 = 1.49e-06
 Conv-d = yes

 Amplitude    Transitions between orbitals
  0.7864       18 (B1) A                 ->    6 (B2) A                   
 -0.2480       18 (B1) A                 ->    7 (B2) A                   
 -0.1179       18 (B1) B                 ->    5 (B2) B                   
  0.1093       22 (A1) B                 ->    3 (A2) B                   
 -0.1050       18 (B1) A                 ->    8 (B2) A                   

              Summary of significant orbitals:

               Number  Type             Irrep      Energy
               43      Occ  Alpha      18 (B1)     -0.3042
               37      Occ  Beta       22 (A1)     -0.4199
               43      Occ  Beta       18 (B1)     -0.2801
               55      Vir  Alpha       6 (B2)      0.1953
               60      Vir  Alpha       7 (B2)      0.3257
               62      Vir  Alpha       8 (B2)      0.4675
               55      Vir  Beta        3 (A2)      0.0361
               57      Vir  Beta        5 (B2)      0.2055


 EOMEE transition 4/A2
 Total energy = -565.22670292 a.u.  Excitation energy = 5.1999 eV.
 R0^2 = 0.0000  R1^2 = 0.7530  R2^2 = 0.2470  Res^2 = 1.78e-06
 Conv-d = yes

 Amplitude    Transitions between orbitals
  0.5972       18 (B1) B                 ->    5 (B2) B                   
 -0.4157       18 (B1) B                 ->    6 (B2) B                   
  0.3340       21 (A1) B                 ->    3 (A2) B                   
 -0.2097       18 (B1) B                 ->    7 (B2) B                   
 -0.1514       18 (B1) B                 ->    8 (B2) B                   
  0.1183       18 (B1) A                 ->    6 (B2) A                   
 -0.1147       22 (A1) B                 ->    3 (A2) B                   

              Summary of significant orbitals:

               Number  Type             Irrep      Energy
               43      Occ  Alpha      18 (B1)     -0.3042
               32      Occ  Beta       21 (A1)     -0.4551
               37      Occ  Beta       22 (A1)     -0.4199
               43      Occ  Beta       18 (B1)     -0.2801
               55      Vir  Alpha       6 (B2)      0.1953
               55      Vir  Beta        3 (A2)      0.0361
               57      Vir  Beta        5 (B2)      0.2055
               59      Vir  Beta        6 (B2)      0.2709
               66      Vir  Beta        7 (B2)      0.4197
               68      Vir  Beta        8 (B2)      0.5604


 EOMEE transition 5/A2
 Total energy = -565.22325899 a.u.  Excitation energy = 5.2936 eV.
 R0^2 = 0.0000  R1^2 = 0.8440  R2^2 = 0.1560  Res^2 = 9.64e-07
 Conv-d = yes

 Amplitude    Transitions between orbitals
 -0.8129       21 (A1) B                 ->    3 (A2) B                   
  0.2296       18 (B1) B                 ->    5 (B2) B                   
  0.1581       19 (A1) B                 ->    3 (A2) B                   
 -0.1574       18 (B1) B                 ->    6 (B2) B                   
  0.1366       22 (A1) B                 ->    3 (A2) B                   
 -0.1324       20 (A1) B                 ->    3 (A2) B                   

              Summary of significant orbitals:

               Number  Type             Irrep      Energy
               21      Occ  Beta       19 (A1)     -0.5418
               25      Occ  Beta       20 (A1)     -0.4854
               32      Occ  Beta       21 (A1)     -0.4551
               37      Occ  Beta       22 (A1)     -0.4199
               43      Occ  Beta       18 (B1)     -0.2801
               55      Vir  Beta        3 (A2)      0.0361
               57      Vir  Beta        5 (B2)      0.2055
               59      Vir  Beta        6 (B2)      0.2709


 EOMEE transition 6/A2
 Total energy = -565.18022895 a.u.  Excitation energy = 6.4645 eV.
 R0^2 = 0.0000  R1^2 = 0.8619  R2^2 = 0.1381  Res^2 = 1.03e-06
 Conv-d = yes

 Amplitude    Transitions between orbitals
  0.8608       20 (A1) B                 ->    3 (A2) B                   
 -0.1695       21 (A1) B                 ->    3 (A2) B                   
 -0.1632       22 (A1) B                 ->    3 (A2) B                   
 -0.1487       17 (B1) B                 ->    5 (B2) B                   

              Summary of significant orbitals:

               Number  Type             Irrep      Energy
               25      Occ  Beta       20 (A1)     -0.4854
               32      Occ  Beta       21 (A1)     -0.4551
               37      Occ  Beta       22 (A1)     -0.4199
               34      Occ  Beta       17 (B1)     -0.4257
               55      Vir  Beta        3 (A2)      0.0361
               57      Vir  Beta        5 (B2)      0.2055


 EOMEE transition 7/A2
 Total energy = -565.15656648 a.u.  Excitation energy = 7.1084 eV.
 R0^2 = 0.0000  R1^2 = 0.6565  R2^2 = 0.3435  Res^2 = 7.31e-07
 Conv-d = yes

 Amplitude    Transitions between orbitals
 -0.6913       18 (B1) A                 ->    7 (B2) A                   
 -0.2287       18 (B1) A                 ->    8 (B2) A                   
 -0.2278       18 (B1) A                 ->    6 (B2) A                   
  0.1267       18 (B1) B                 ->    7 (B2) B                   
  0.1189       18 (B1) B                 ->    8 (B2) B                   
 -0.1018       18 (B1) B                 ->    6 (B2) B                   

              Summary of significant orbitals:

               Number  Type             Irrep      Energy
               43      Occ  Alpha      18 (B1)     -0.3042
               43      Occ  Beta       18 (B1)     -0.2801
               55      Vir  Alpha       6 (B2)      0.1953
               60      Vir  Alpha       7 (B2)      0.3257
               62      Vir  Alpha       8 (B2)      0.4675
               59      Vir  Beta        6 (B2)      0.2709
               66      Vir  Beta        7 (B2)      0.4197
               68      Vir  Beta        8 (B2)      0.5604


 EOMEE transition 8/A2
 Total energy = -565.14229255 a.u.  Excitation energy = 7.4968 eV.
 R0^2 = 0.0000  R1^2 = 0.2794  R2^2 = 0.4364  Res^2 = 4.21e-06
 Conv-d = yes

 Amplitude    Transitions between orbitals
 -0.2429       2 (A2) B      18 (B1) B   ->    3 (A2) B      5 (B2) B     
  0.2429       2 (A2) B      18 (B1) B   ->    5 (B2) B      3 (A2) B     
  0.2429       18 (B1) B     2 (A2) B    ->    3 (A2) B      5 (B2) B     
 -0.2429       18 (B1) B     2 (A2) B    ->    5 (B2) B      3 (A2) B     
 -0.2289       2 (A2) B      18 (B1) B   ->    3 (A2) B      6 (B2) B     
  0.2289       2 (A2) B      18 (B1) B   ->    6 (B2) B      3 (A2) B     
  0.2289       18 (B1) B     2 (A2) B    ->    3 (A2) B      6 (B2) B     
 -0.2289       18 (B1) B     2 (A2) B    ->    6 (B2) B      3 (A2) B     
 -0.1688       2 (A2) B      18 (B1) B   ->    3 (A2) B      7 (B2) B     
  0.1688       2 (A2) B      18 (B1) B   ->    7 (B2) B      3 (A2) B     
  0.1688       18 (B1) B     2 (A2) B    ->    3 (A2) B      7 (B2) B     
 -0.1688       18 (B1) B     2 (A2) B    ->    7 (B2) B      3 (A2) B     
 -0.1275       2 (A2) B      18 (B1) B   ->    3 (A2) B      8 (B2) B     
  0.1275       2 (A2) B      18 (B1) B   ->    8 (B2) B      3 (A2) B     
  0.1275       18 (B1) B     2 (A2) B    ->    3 (A2) B      8 (B2) B     
 -0.1275       18 (B1) B     2 (A2) B    ->    8 (B2) B      3 (A2) B     
  0.1156       18 (B1) B     4 (B2) B    ->    6 (B2) B      7 (B2) B     
 -0.1156       18 (B1) B     4 (B2) B    ->    7 (B2) B      6 (B2) B     
 -0.1156       4 (B2) B      18 (B1) B   ->    6 (B2) B      7 (B2) B     
  0.1156       4 (B2) B      18 (B1) B   ->    7 (B2) B      6 (B2) B     
 -0.1134       18 (B1) B     4 (B2) B    ->    5 (B2) B      6 (B2) B     
  0.1134       18 (B1) B     4 (B2) B    ->    6 (B2) B      5 (B2) B     
  0.1134       4 (B2) B      18 (B1) B   ->    5 (B2) B      6 (B2) B     
 -0.1134       4 (B2) B      18 (B1) B   ->    6 (B2) B      5 (B2) B     
  0.1119       5 (B2) A      18 (B1) B   ->    6 (B2) A      7 (B2) B     
 -0.1119       5 (B2) A      18 (B1) B   ->    7 (B2) B      6 (B2) A     
 -0.1119       18 (B1) B     5 (B2) A    ->    6 (B2) A      7 (B2) B     
  0.1119       18 (B1) B     5 (B2) A    ->    7 (B2) B      6 (B2) A     

              Summary of significant orbitals:

               Number  Type             Irrep      Energy
               48      Occ  Alpha       5 (B2)     -0.1232
               42      Occ  Beta        2 (A2)     -0.2878
               43      Occ  Beta       18 (B1)     -0.2801
               46      Occ  Beta        4 (B2)     -0.2158
               55      Vir  Alpha       6 (B2)      0.1953
               55      Vir  Beta        3 (A2)      0.0361
               57      Vir  Beta        5 (B2)      0.2055
               59      Vir  Beta        6 (B2)      0.2709
               66      Vir  Beta        7 (B2)      0.4197
               68      Vir  Beta        8 (B2)      0.5604


 EOMEE transition 9/A2
 Total energy = -565.14229255 a.u.  Excitation energy = 7.4968 eV.
 R0^2 = 0.0000  R1^2 = 0.2794  R2^2 = 0.4364  Res^2 = 4.21e-06
 Conv-d = yes

 Amplitude    Transitions between orbitals
 -0.2429       2 (A2) B      18 (B1) B   ->    3 (A2) B      5 (B2) B     
  0.2429       2 (A2) B      18 (B1) B   ->    5 (B2) B      3 (A2) B     
  0.2429       18 (B1) B     2 (A2) B    ->    3 (A2) B      5 (B2) B     
 -0.2429       18 (B1) B     2 (A2) B    ->    5 (B2) B      3 (A2) B     
 -0.2289       2 (A2) B      18 (B1) B   ->    3 (A2) B      6 (B2) B     
  0.2289       2 (A2) B      18 (B1) B   ->    6 (B2) B      3 (A2) B     
  0.2289       18 (B1) B     2 (A2) B    ->    3 (A2) B      6 (B2) B     
 -0.2289       18 (B1) B     2 (A2) B    ->    6 (B2) B      3 (A2) B     
 -0.1688       2 (A2) B      18 (B1) B   ->    3 (A2) B      7 (B2) B     
  0.1688       2 (A2) B      18 (B1) B   ->    7 (B2) B      3 (A2) B     
  0.1688       18 (B1) B     2 (A2) B    ->    3 (A2) B      7 (B2) B     
 -0.1688       18 (B1) B     2 (A2) B    ->    7 (B2) B      3 (A2) B     
 -0.1275       2 (A2) B      18 (B1) B   ->    3 (A2) B      8 (B2) B     
  0.1275       2 (A2) B      18 (B1) B   ->    8 (B2) B      3 (A2) B     
  0.1275       18 (B1) B     2 (A2) B    ->    3 (A2) B      8 (B2) B     
 -0.1275       18 (B1) B     2 (A2) B    ->    8 (B2) B      3 (A2) B     
  0.1156       18 (B1) B     4 (B2) B    ->    6 (B2) B      7 (B2) B     
 -0.1156       18 (B1) B     4 (B2) B    ->    7 (B2) B      6 (B2) B     
 -0.1156       4 (B2) B      18 (B1) B   ->    6 (B2) B      7 (B2) B     
  0.1156       4 (B2) B      18 (B1) B   ->    7 (B2) B      6 (B2) B     
 -0.1134       18 (B1) B     4 (B2) B    ->    5 (B2) B      6 (B2) B     
  0.1134       18 (B1) B     4 (B2) B    ->    6 (B2) B      5 (B2) B     
  0.1134       4 (B2) B      18 (B1) B   ->    5 (B2) B      6 (B2) B     
 -0.1134       4 (B2) B      18 (B1) B   ->    6 (B2) B      5 (B2) B     
  0.1119       5 (B2) A      18 (B1) B   ->    6 (B2) A      7 (B2) B     
 -0.1119       5 (B2) A      18 (B1) B   ->    7 (B2) B      6 (B2) A     
 -0.1119       18 (B1) B     5 (B2) A    ->    6 (B2) A      7 (B2) B     
  0.1119       18 (B1) B     5 (B2) A    ->    7 (B2) B      6 (B2) A     

              Summary of significant orbitals:

               Number  Type             Irrep      Energy
               48      Occ  Alpha       5 (B2)     -0.1232
               42      Occ  Beta        2 (A2)     -0.2878
               43      Occ  Beta       18 (B1)     -0.2801
               46      Occ  Beta        4 (B2)     -0.2158
               55      Vir  Alpha       6 (B2)      0.1953
               55      Vir  Beta        3 (A2)      0.0361
               57      Vir  Beta        5 (B2)      0.2055
               59      Vir  Beta        6 (B2)      0.2709
               66      Vir  Beta        7 (B2)      0.4197
               68      Vir  Beta        8 (B2)      0.5604


 EOMEE transition 10/A2
 Total energy = -565.13339595 a.u.  Excitation energy = 7.7389 eV.
 R0^2 = 0.0000  R1^2 = 0.8243  R2^2 = 0.1757  Res^2 = 1.34e-06
 Conv-d = yes

 Amplitude    Transitions between orbitals
  0.8045       19 (A1) B                 ->    3 (A2) B                   
 -0.2062       18 (A1) B                 ->    3 (A2) B                   
  0.2026       16 (B1) B                 ->    5 (B2) B                   
  0.1377       21 (A1) B                 ->    3 (A2) B                   
  0.1034       15 (A1) B                 ->    3 (A2) B                   

              Summary of significant orbitals:

               Number  Type             Irrep      Energy
               36      Occ  Beta       15 (A1)     -0.7049
               44      Occ  Beta       18 (A1)     -0.5745
               21      Occ  Beta       19 (A1)     -0.5418
               32      Occ  Beta       21 (A1)     -0.4551
               31      Occ  Beta       16 (B1)     -0.4706
               55      Vir  Beta        3 (A2)      0.0361
               57      Vir  Beta        5 (B2)      0.2055


Running a double precision version
      EOM-CCSD/MP2 left amplitudes will be solved using Davidson.
        Amplitudes will be solved using MOM  algorithm.
     Hard-coded thresholds: 
     LinDepThresh=1.00e-15  NormThresh=1.00e-06  ReorthogonThresh=1.00e-02

      Roots     MaxVec    MaxIter   Precond   Conv      Shift    
      10        120       60        1         1.00e-05  0.00e+00  
Root= 8 Small norm=1.61e-16!
 ------------------------------------------------------------------------------
      Iter ConvRoots NVecs ResNorm^2 Current eigenvalues (eV)
 ------------------------------------------------------------------------------
      0    0      10    3.17e-02   1.4973   4.3408   4.5602   5.2013   5.2939   6.4645   7.1082   0.6113   15.1650   7.7390   
      1    0      20    1.85e-02   1.4961   4.3407   4.5600   5.2010   5.2938   6.4646   7.1082   0.1378   14.9390   7.7390   
      2    0      30    1.51e-02   1.4956   4.3407   4.5599   5.2008   5.2939   6.4647   7.1082   0.0160   14.9653   7.7390   
      3    0      40    1.43e-02   1.4955   4.3407   4.5598   5.2007   5.2939   6.4648   7.1082   0.0022   14.9621   7.7390   
      4    1      50    1.09e-02   1.4956   4.3407   4.5598*  5.2007   5.2939   6.4648   7.1081   0.0004   14.9574   7.7390   
      5    7      59    6.28e-03   1.4956*  4.3408*  4.5598*  5.2007*  5.2939*  6.4648*  7.1081   0.0001*  7.7391   17.8701   
      6    7      62    6.47e-03   1.4956*  4.3408*  4.5598*  5.2007*  5.2939*  6.4648*  7.1081   0.0001*  7.7394   16.3756   
Found complex roots...
      7    7      65    1.20e-02   1.4956*  4.3408*  4.5598*  5.2007*  5.2939*  6.4648*  7.1080   0.0001*  7.7387   20.3222   
      8    8      68    7.40e-03   1.4956*  4.3408*  4.5598*  5.2007*  5.2939*  6.4648*  7.1080*  0.0001*  14.9520   7.7388   
      9    8      70    1.23e-02   1.4956*  4.3408*  4.5598*  5.2007*  5.2939*  6.4648*  7.1080*  0.0001*  14.9582   7.7388   
      10   9      72    1.22e-02   1.4956*  4.3408*  4.5598*  5.2007*  5.2939*  6.4648*  7.1080*  0.0001*  14.9573   7.7388*  
Found complex roots...
      11   9      73    9.47e-03   1.4956*  4.3408*  4.5598*  5.2007*  5.2939*  6.4648*  7.1080*  0.0001*  14.9567   7.7388*  
Found complex roots...
      12   9      74    1.18e-02   1.4956*  4.3408*  4.5598*  5.2007*  5.2939*  6.4648*  7.1080*  0.0001*  14.9545   7.7388*  
Found complex roots...
      13   9      75    5.95e-03   1.4956*  4.3408*  4.5598*  5.2007*  5.2939*  6.4648*  7.1080*  0.0001*  7.7388*  16.4103   
      14   9      76    6.20e-03   1.4956*  4.3408*  4.5598*  5.2007*  5.2939*  6.4648*  7.1080*  0.0001*  7.7388*  18.0459   
      15   9      77    8.06e-03   1.4956*  4.3408*  4.5598*  5.2007*  5.2939*  6.4648*  7.1080*  0.0001*  14.9615   7.7388*  
      16   9      78    1.18e-02   1.4956*  4.3408*  4.5598*  5.2007*  5.2939*  6.4648*  7.1080*  0.0001*  14.9539   7.7388*  
Found complex roots...
      17   9      79    1.08e-02   1.4956*  4.3408*  4.5598*  5.2007*  5.2939*  6.4648*  7.1080*  0.0001*  14.9520   7.7388*  
      18   9      80    1.34e-02   1.4956*  4.3408*  4.5598*  5.2007*  5.2939*  6.4648*  7.1080*  0.0001*  14.9564   7.7388*  
Found complex roots...
      19   9      81    1.38e-02   1.4956*  4.3408*  4.5598*  5.2007*  5.2939*  6.4648*  7.1080*  0.0001*  14.9557   7.7388*  
Found complex roots...
      20   9      82    5.35e-03   1.4956*  4.3408*  4.5598*  5.2007*  5.2939*  6.4648*  7.1080*  0.0001*  7.7388*  16.3774   
      21   9      83    5.27e-03   1.4956*  4.3408*  4.5598*  5.2007*  5.2939*  6.4648*  7.1080*  0.0001*  7.7388*  16.4954   
      22   9      84    5.97e-03   1.4956*  4.3408*  4.5598*  5.2007*  5.2939*  6.4648*  7.1080*  0.0001*  7.7388*  16.2968   
Found complex roots...
      23   9      85    1.53e-02   1.4956*  4.3408*  4.5598*  5.2007*  5.2939*  6.4648*  7.1080*  0.0001*  7.7388*  24.0520   
Found complex roots...
      24   9      86    3.23e-03   1.4956*  4.3408*  4.5598*  5.2007*  5.2939*  6.4648*  7.1080*  0.0001*  7.7388*  14.5616   
      25   9      87    1.61e-02   1.4956*  4.3408*  4.5598*  5.2007*  5.2939*  6.4648*  7.1080*  0.0001*  7.7388*  23.9072   
      26   9      88    2.43e-02   1.4956*  4.3408*  4.5598*  5.2007*  5.2939*  6.4648*  7.1080*  0.0001*  7.7388*  54.4437   
      27   9      89    2.43e-02   1.4956*  4.3408*  4.5598*  5.2007*  5.2939*  6.4648*  7.1080*  0.0001*  7.7388*  54.4440   
      28   9      90    2.43e-02   1.4956*  4.3408*  4.5598*  5.2007*  5.2939*  6.4648*  7.1080*  0.0001*  7.7388*  54.4449   
      29   9      91    2.43e-02   1.4956*  4.3408*  4.5598*  5.2007*  5.2939*  6.4648*  7.1080*  0.0001*  7.7388*  54.4449   
      30   9      92    2.43e-02   1.4956*  4.3408*  4.5598*  5.2007*  5.2939*  6.4648*  7.1080*  0.0001*  7.7388*  54.4450   
      31   9      93    2.43e-02   1.4956*  4.3408*  4.5598*  5.2007*  5.2939*  6.4648*  7.1080*  0.0001*  7.7388*  54.4464   
      32   9      94    2.43e-02   1.4956*  4.3408*  4.5598*  5.2007*  5.2939*  6.4648*  7.1080*  0.0001*  7.7388*  54.4466   
      33   9      95    2.43e-02   1.4956*  4.3408*  4.5598*  5.2007*  5.2939*  6.4648*  7.1080*  0.0001*  7.7388*  54.4467   
      34   9      96    2.43e-02   1.4956*  4.3408*  4.5598*  5.2007*  5.2939*  6.4648*  7.1080*  0.0001*  7.7388*  54.4470   
      35   9      97    2.43e-02   1.4956*  4.3408*  4.5598*  5.2007*  5.2939*  6.4648*  7.1080*  0.0001*  7.7388*  54.4472   
      36   9      98    2.43e-02   1.4956*  4.3408*  4.5598*  5.2007*  5.2939*  6.4648*  7.1080*  0.0001*  7.7388*  54.4472   
      37   9      99    2.42e-02   1.4956*  4.3408*  4.5598*  5.2007*  5.2939*  6.4648*  7.1080*  0.0001*  7.7388*  54.4485   
      38   9      100   2.42e-02   1.4956*  4.3408*  4.5598*  5.2007*  5.2939*  6.4648*  7.1080*  0.0001*  7.7388*  54.4493   
      39   9      101   2.42e-02   1.4956*  4.3408*  4.5598*  5.2007*  5.2939*  6.4648*  7.1080*  0.0001*  7.7388*  54.4493   
      40   9      102   2.42e-02   1.4956*  4.3408*  4.5598*  5.2007*  5.2939*  6.4648*  7.1080*  0.0001*  7.7388*  54.4494   
      41   9      103   2.42e-02   1.4956*  4.3408*  4.5598*  5.2007*  5.2939*  6.4648*  7.1080*  0.0001*  7.7388*  54.4498   
      42   9      104   2.42e-02   1.4956*  4.3408*  4.5598*  5.2007*  5.2939*  6.4648*  7.1080*  0.0001*  7.7388*  54.4498   
      43   9      105   2.42e-02   1.4956*  4.3408*  4.5598*  5.2007*  5.2939*  6.4648*  7.1080*  0.0001*  7.7388*  54.4501   
Found complex roots...
      44   9      106   2.42e-02   1.4956*  4.3408*  4.5598*  5.2007*  5.2939*  6.4648*  7.1080*  0.0001*  7.7388*  54.4509   
      45   9      107   2.42e-02   1.4956*  4.3408*  4.5598*  5.2007*  5.2939*  6.4648*  7.1080*  0.0001*  7.7388*  54.4520   
      46   9      108   2.42e-02   1.4956*  4.3408*  4.5598*  5.2007*  5.2939*  6.4648*  7.1080*  0.0001*  7.7388*  54.4525   
      47   9      109   2.42e-02   1.4956*  4.3408*  4.5598*  5.2007*  5.2939*  6.4648*  7.1080*  0.0001*  7.7388*  54.4527   
      48   9      110   2.42e-02   1.4956*  4.3408*  4.5598*  5.2007*  5.2939*  6.4648*  7.1080*  0.0001*  7.7388*  54.4538   
      49   9      111   2.42e-02   1.4956*  4.3408*  4.5598*  5.2007*  5.2939*  6.4648*  7.1080*  0.0001*  7.7388*  54.4538   
Found complex roots...
      50   9      112   2.42e-02   1.4956*  4.3408*  4.5598*  5.2007*  5.2939*  6.4648*  7.1080*  0.0001*  7.7388*  54.4541   
      51   9      113   2.42e-02   1.4956*  4.3408*  4.5598*  5.2007*  5.2939*  6.4648*  7.1080*  0.0001*  7.7388*  54.4544   
      52   9      114   2.42e-02   1.4956*  4.3408*  4.5598*  5.2007*  5.2939*  6.4648*  7.1080*  0.0001*  7.7388*  54.4544   
      53   9      115   2.42e-02   1.4956*  4.3408*  4.5598*  5.2007*  5.2939*  6.4648*  7.1080*  0.0001*  7.7388*  54.4550   
      54   9      116   2.42e-02   1.4956*  4.3408*  4.5598*  5.2007*  5.2939*  6.4648*  7.1080*  0.0001*  7.7388*  54.4551   
Found complex roots...
      55   9      117   2.42e-02   1.4956*  4.3408*  4.5598*  5.2007*  5.2939*  6.4648*  7.1080*  0.0001*  7.7388*  54.4552   
      56   9      118   2.42e-02   1.4956*  4.3408*  4.5598*  5.2007*  5.2939*  6.4648*  7.1080*  0.0001*  7.7388*  54.4578   
      57   9      119   2.42e-02   1.4956*  4.3408*  4.5598*  5.2007*  5.2939*  6.4648*  7.1080*  0.0001*  7.7388*  54.4594   
Found complex roots...
      58   9      120   2.42e-02   1.4956*  4.3408*  4.5598*  5.2007*  5.2939*  6.4648*  7.1080*  0.0001*  7.7388*  54.4595   
      59   8      11    5.41e-02   1.4956*  4.3407*  4.5598*  5.2005*  5.2938*  6.4648*  7.1080*  16.7157   7.7388*  54.7177   

     Max Davidson iteration exhausted

biorthogonolize_left_to_right(): degenerate block detected, ndeg=2

biorthogonolize_left_to_right(): states mismatch detected: S=1.2940  for states  8 and 1
biorthogonolize_left_to_right(): states mismatch detected: S=-8.5701  for states  8 and 10
biorthogonolize_left_to_right(): states mismatch detected: S=55343394784331264.0000  for states  9 and 1
biorthogonolize_left_to_right(): states mismatch detected: S=30137353504956416.0000  for states  9 and 2
biorthogonolize_left_to_right(): states mismatch detected: S=-9644567481321984.0000  for states  9 and 3
biorthogonolize_left_to_right(): states mismatch detected: S=-123342572320768.0000  for states  9 and 4
biorthogonolize_left_to_right(): states mismatch detected: S=19064389534621696.0000  for states  9 and 5
biorthogonolize_left_to_right(): states mismatch detected: S=-47054317662155264.0000  for states  9 and 6
biorthogonolize_left_to_right(): states mismatch detected: S=-12412896057970688.0000  for states  9 and 7
biorthogonolize_left_to_right(): states mismatch detected: S=881754333888512.0000  for states  9 and 8
biorthogonolize_left_to_right(): states mismatch detected: S=414592671432036843520.0000  for states  9 and 10
[...]
 Clebsh-Gordan coefficient: <1.000,1.000;1.000,0.000|1.000,1.000> = 0.707
 _________________________________________________
 One-electron SO (cm-1)
 Reduced matrix elements:
 <S|| Hso(L-) ||S'> = (0.000000,0.000000)
 <S|| Hso(L0) ||S'> = (0.000000,-48.029329)
 <S|| Hso(L+) ||S'> = (0.000000,-0.000000)
 SOCC = 48.029329
 Actual matrix elements:
       |Sz=-1.00>           |Sz=0.00>           |Sz=1.00>
 <Sz=-1.00|(-0.000000,33.961864)(0.000000,-0.000000)(0.000000,-0.000000)
 <Sz=0.00|(-0.000000,-0.000000)(-0.000000,-0.000000)(0.000000,-0.000000)
 <Sz=1.00|(0.000000,-0.000000)(-0.000000,-0.000000)(-0.000000,-33.961864)
 _________________________________________________
 Mean-field SO (cm-1)
 Reduced matrix elements:
 <S|| Hso(L-) ||S'> = (0.000000,0.000000)
 <S|| Hso(L0) ||S'> = (0.000000,-29.222700)
 <S|| Hso(L+) ||S'> = (0.000000,-0.000000)
 SOCC = 29.222700
 Actual matrix elements:
       |Sz=-1.00>           |Sz=0.00>           |Sz=1.00>
 <Sz=-1.00|(-0.000000,20.663569)(0.000000,-0.000000)(0.000000,-0.000000)
 <Sz=0.00|(-0.000000,-0.000000)(-0.000000,-0.000000)(0.000000,-0.000000)
 <Sz=1.00|(0.000000,-0.000000)(-0.000000,-0.000000)(-0.000000,-20.663569)
 Singlet part of <S|| Hso(L0) ||S'> = (-0.000000,-0.108966) (excluded from all matrix elements)
 L-/L+ Averaged reduced matrix elements:
 <S|| Hso(L-) ||S'> = (0.000000,0.000000)
 <S|| Hso(L+) ||S'> = (0.000000,-0.000000)
 ______________________________________________________________
   Arithmetically averaged transition SO matrices
   (The phases shown, Ket and Bra assingment are from A(Ket)->B(Bra))
 _________________________________________________
 One-electron SO (cm-1)
 SOCC = 47.924577
 Actual matrix elements:
       |Sz=-1.00>           |Sz=0.00>           |Sz=1.00>
 <Sz=-1.00|(-0.000000,-33.887793)(-0.000000,0.000000)(0.000000,0.000000)
 <Sz=0.00|(0.000000,0.000000)(-0.000000,0.000000)(-0.000000,0.000000)
 <Sz=1.00|(0.000000,0.000000)(0.000000,0.000000)(-0.000000,33.887793)
 _________________________________________________
 Mean-field SO (cm-1)
 SOCC = 29.131406
 Actual matrix elements:
       |Sz=-1.00>           |Sz=0.00>           |Sz=1.00>
 <Sz=-1.00|(-0.000000,-20.599015)(-0.000000,0.000000)(0.000000,0.000000)
 <Sz=0.00|(0.000000,0.000000)(-0.000000,0.000000)(-0.000000,0.000000)
 <Sz=1.00|(0.000000,0.000000)(0.000000,0.000000)(-0.000000,20.599015)
 ______________________________________________________________

 ------------------------------------------------------------------------------
 State A: eomee_mp2/uhfref: 1/B1
 State B: eomee_mp2/uhfref: 9/B2
 Energy GAP = 0.253885 a.u. = 6.908576 eV
 Transition dipole moment (a.u.):
   A->B: 0.000000 (X 0.000000, Y 0.000000, Z 0.000000)
   B->A: 0.000000 (X 0.000000, Y 0.000000, Z 0.000000)
 Oscillator strength (a.u.): 0.000000
 Transition angular momentum against gauge origin (a.u.):
   A->B:  (X 0.000000i, Y 0.000000i, Z 0.130515i)
   B->A:  (X 0.000000i, Y 0.000000i, Z -0.204380i)
 Norm of one-particle transition density matrix:
   A->B: 0.575305;   B->A: 0.547302
   ||gamma^AB||*||gamma^BA||: 0.314866

 ______________________________________________________________
 A(Ket)->B(Bra) transition SO matrices
Full 2e SOC is not implemented withing libqints. 
I will do mean-field SOC with libqints, which is usually as good as full 2e SOC
 Analysing Sz ans S^2 of the pair of states...
 Ket state:  Computed S^2 = 2.038236 will be treated as 2.000000 Sz = 1.000000
WARNING! The deviation of S^2 from the correct value is large, indicating a significant spin contamination. The results may be unreliable
 Bra state:  Computed S^2 = 2.559964 will be treated as 2.000000 Sz = 1.000000
 Clebsh-Gordan coefficient: <1.000,1.000;1.000,0.000|1.000,1.000> = 0.707
 _________________________________________________
 One-electron SO (cm-1)
 Reduced matrix elements:
 <S|| Hso(L-) ||S'> = (0.000000,0.000000)
 <S|| Hso(L0) ||S'> = (0.000000,-13.189115)
 <S|| Hso(L+) ||S'> = (0.000000,-0.000000)
 SOCC = 13.189115
 Actual matrix elements:
       |Sz=-1.00>           |Sz=0.00>           |Sz=1.00>
 <Sz=-1.00|(-0.000000,9.326113)(0.000000,-0.000000)(0.000000,-0.000000)
 <Sz=0.00|(-0.000000,-0.000000)(-0.000000,-0.000000)(0.000000,-0.000000)
 <Sz=1.00|(0.000000,-0.000000)(-0.000000,-0.000000)(-0.000000,-9.326113)
 _________________________________________________
 Mean-field SO (cm-1)
 Reduced matrix elements:
 <S|| Hso(L-) ||S'> = (0.000000,0.000000)
 <S|| Hso(L0) ||S'> = (0.000000,-7.733407)
 <S|| Hso(L+) ||S'> = (0.000000,-0.000000)
 SOCC = 7.733407
 Actual matrix elements:
       |Sz=-1.00>           |Sz=0.00>           |Sz=1.00>
 <Sz=-1.00|(-0.000000,5.468345)(0.000000,-0.000000)(0.000000,-0.000000)
 <Sz=0.00|(-0.000000,-0.000000)(-0.000000,-0.000000)(0.000000,-0.000000)
 <Sz=1.00|(0.000000,-0.000000)(-0.000000,-0.000000)(-0.000000,-5.468345)
 Singlet part of <S|| Hso(L0) ||S'> = (-0.000000,-0.018837) (excluded from all matrix elements)
 L-/L+ Averaged reduced matrix elements:
 <S|| Hso(L-) ||S'> = (0.000000,0.000000)
 <S|| Hso(L+) ||S'> = (0.000000,-0.000000)
 ______________________________________________________________
 B(Ket)->A(Bra) transition SO matrices
Full 2e SOC is not implemented withing libqints. 
I will do mean-field SOC with libqints, which is usually as good as full 2e SOC
 Analysing Sz ans S^2 of the pair of states...
WARNING! The deviation of S^2 from the correct value is large, indicating a significant spin contamination. The results may be unreliable
 Ket state:  Computed S^2 = 2.559964 will be treated as 2.000000 Sz = 1.000000
 Bra state:  Computed S^2 = 2.038236 will be treated as 2.000000 Sz = 1.000000
 Clebsh-Gordan coefficient: <1.000,1.000;1.000,0.000|1.000,1.000> = 0.707
 _________________________________________________
 One-electron SO (cm-1)
 Reduced matrix elements:
 <S|| Hso(L-) ||S'> = (-0.000000,-0.000000)
 <S|| Hso(L0) ||S'> = (0.000000,22.117194)
 <S|| Hso(L+) ||S'> = (-0.000000,0.000000)
 SOCC = 22.117194
 Actual matrix elements:
       |Sz=-1.00>           |Sz=0.00>           |Sz=1.00>
 <Sz=-1.00|(0.000000,-15.639218)(-0.000000,0.000000)(-0.000000,0.000000)
 <Sz=0.00|(0.000000,0.000000)(0.000000,0.000000)(-0.000000,0.000000)
 <Sz=1.00|(-0.000000,0.000000)(0.000000,0.000000)(0.000000,15.639218)
 _________________________________________________
 Mean-field SO (cm-1)
 Reduced matrix elements:
 <S|| Hso(L-) ||S'> = (-0.000000,-0.000000)
 <S|| Hso(L0) ||S'> = (0.000000,13.171207)
 <S|| Hso(L+) ||S'> = (-0.000000,0.000000)
 SOCC = 13.171207
 Actual matrix elements:
       |Sz=-1.00>           |Sz=0.00>           |Sz=1.00>
 <Sz=-1.00|(0.000000,-9.313449)(-0.000000,0.000000)(-0.000000,0.000000)
 <Sz=0.00|(0.000000,0.000000)(0.000000,0.000000)(-0.000000,0.000000)
 <Sz=1.00|(-0.000000,0.000000)(0.000000,0.000000)(0.000000,9.313449)
 Singlet part of <S|| Hso(L0) ||S'> = (-0.000000,0.040060) (excluded from all matrix elements)
 L-/L+ Averaged reduced matrix elements:
 <S|| Hso(L-) ||S'> = (-0.000000,-0.000000)
 <S|| Hso(L+) ||S'> = (-0.000000,0.000000)
 ______________________________________________________________
   Arithmetically averaged transition SO matrices
   (The phases shown, Ket and Bra assingment are from A(Ket)->B(Bra))
 _________________________________________________
 One-electron SO (cm-1)
 SOCC = 17.653154
 Actual matrix elements:
       |Sz=-1.00>           |Sz=0.00>           |Sz=1.00>
 <Sz=-1.00|(0.000000,12.482665)(0.000000,-0.000000)(0.000000,-0.000000)
 <Sz=0.00|(-0.000000,-0.000000)(0.000000,-0.000000)(0.000000,-0.000000)
 <Sz=1.00|(-0.000000,-0.000000)(-0.000000,-0.000000)(0.000000,-12.482665)
 _________________________________________________
 Mean-field SO (cm-1)
 SOCC = 10.452307
 Actual matrix elements:
       |Sz=-1.00>           |Sz=0.00>           |Sz=1.00>
 <Sz=-1.00|(0.000000,7.390897)(0.000000,-0.000000)(0.000000,-0.000000)
 <Sz=0.00|(-0.000000,-0.000000)(0.000000,-0.000000)(0.000000,-0.000000)
 <Sz=1.00|(-0.000000,-0.000000)(-0.000000,-0.000000)(0.000000,-7.390897)
 ______________________________________________________________

 ------------------------------------------------------------------------------
 State A: eomee_mp2/uhfref: 1/B1
 State B: eomee_mp2/uhfref: 10/B2
 Energy GAP = 0.255785 a.u. = 6.960267 eV
 Transition dipole moment (a.u.):
   A->B: 0.000000 (X 0.000000, Y 0.000000, Z 0.000000)
   B->A: 0.000000 (X 0.000000, Y 0.000000, Z 0.000000)
 Oscillator strength (a.u.): 0.000000
 Transition angular momentum against gauge origin (a.u.):
   A->B:  (X 0.000000i, Y 0.000000i, Z 0.000521i)
   B->A:  (X 0.000000i, Y 0.000000i, Z -0.046449i)
 Norm of one-particle transition density matrix:
   A->B: 0.672350;   B->A: 0.621951
   ||gamma^AB||*||gamma^BA||: 0.418169

 ______________________________________________________________
 A(Ket)->B(Bra) transition SO matrices
Full 2e SOC is not implemented withing libqints. 
I will do mean-field SOC with libqints, which is usually as good as full 2e SOC
 Analysing Sz ans S^2 of the pair of states...
 Ket state:  Computed S^2 = 2.038236 will be treated as 2.000000 Sz = 1.000000
WARNING! The deviation of S^2 from the correct value is large, indicating a significant spin contamination. The results may be unreliable
 Bra state:  Computed S^2 = 2.491865 will be treated as 2.000000 Sz = 1.000000
 Clebsh-Gordan coefficient: <1.000,1.000;1.000,0.000|1.000,1.000> = 0.707
 _________________________________________________
 One-electron SO (cm-1)
 Reduced matrix elements:
 <S|| Hso(L-) ||S'> = (-0.000000,-0.000000)
 <S|| Hso(L0) ||S'> = (0.000000,-4.022026)
 <S|| Hso(L+) ||S'> = (-0.000000,0.000000)
 SOCC = 4.022026
 Actual matrix elements:
       |Sz=-1.00>           |Sz=0.00>           |Sz=1.00>
 <Sz=-1.00|(0.000000,2.844002)(-0.000000,0.000000)(-0.000000,-0.000000)
 <Sz=0.00|(0.000000,-0.000000)(0.000000,-0.000000)(-0.000000,0.000000)
 <Sz=1.00|(-0.000000,-0.000000)(0.000000,0.000000)(0.000000,-2.844002)
 _________________________________________________
 Mean-field SO (cm-1)
 Reduced matrix elements:
 <S|| Hso(L-) ||S'> = (-0.000000,-0.000000)
 <S|| Hso(L0) ||S'> = (0.000000,-2.622145)
 <S|| Hso(L+) ||S'> = (-0.000000,0.000000)
 SOCC = 2.622145
 Actual matrix elements:
       |Sz=-1.00>           |Sz=0.00>           |Sz=1.00>
 <Sz=-1.00|(0.000000,1.854137)(-0.000000,0.000000)(-0.000000,-0.000000)
 <Sz=0.00|(0.000000,0.000000)(0.000000,-0.000000)(-0.000000,0.000000)
 <Sz=1.00|(-0.000000,-0.000000)(0.000000,0.000000)(0.000000,-1.854137)
 Singlet part of <S|| Hso(L0) ||S'> = (-0.000000,-0.021148) (excluded from all matrix elements)
 L-/L+ Averaged reduced matrix elements:
 <S|| Hso(L-) ||S'> = (-0.000000,-0.000000)
 <S|| Hso(L+) ||S'> = (-0.000000,0.000000)
 ______________________________________________________________
 B(Ket)->A(Bra) transition SO matrices
Full 2e SOC is not implemented withing libqints. 
I will do mean-field SOC with libqints, which is usually as good as full 2e SOC
 Analysing Sz ans S^2 of the pair of states...
WARNING! The deviation of S^2 from the correct value is large, indicating a significant spin contamination. The results may be unreliable
 Ket state:  Computed S^2 = 2.491865 will be treated as 2.000000 Sz = 1.000000
 Bra state:  Computed S^2 = 2.038236 will be treated as 2.000000 Sz = 1.000000
 Clebsh-Gordan coefficient: <1.000,1.000;1.000,0.000|1.000,1.000> = 0.707
 _________________________________________________
 One-electron SO (cm-1)
 Reduced matrix elements:
 <S|| Hso(L-) ||S'> = (0.000000,0.000000)
 <S|| Hso(L0) ||S'> = (0.000000,9.930226)
 <S|| Hso(L+) ||S'> = (0.000000,-0.000000)
 SOCC = 9.930226
 Actual matrix elements:
       |Sz=-1.00>           |Sz=0.00>           |Sz=1.00>
 <Sz=-1.00|(-0.000000,-7.021730)(0.000000,-0.000000)(0.000000,0.000000)
 <Sz=0.00|(-0.000000,0.000000)(-0.000000,0.000000)(0.000000,-0.000000)
 <Sz=1.00|(0.000000,0.000000)(-0.000000,-0.000000)(-0.000000,7.021730)
 _________________________________________________
 Mean-field SO (cm-1)
 Reduced matrix elements:
 <S|| Hso(L-) ||S'> = (0.000000,0.000000)
 <S|| Hso(L0) ||S'> = (0.000000,6.217589)
 <S|| Hso(L+) ||S'> = (0.000000,-0.000000)
 SOCC = 6.217589
 Actual matrix elements:
       |Sz=-1.00>           |Sz=0.00>           |Sz=1.00>
 <Sz=-1.00|(-0.000000,-4.396499)(0.000000,-0.000000)(0.000000,0.000000)
 <Sz=0.00|(-0.000000,-0.000000)(-0.000000,0.000000)(0.000000,-0.000000)
 <Sz=1.00|(0.000000,0.000000)(-0.000000,-0.000000)(-0.000000,4.396499)
 Singlet part of <S|| Hso(L0) ||S'> = (-0.000000,0.034797) (excluded from all matrix elements)
 L-/L+ Averaged reduced matrix elements:
 <S|| Hso(L-) ||S'> = (0.000000,0.000000)
 <S|| Hso(L+) ||S'> = (0.000000,-0.000000)
 ______________________________________________________________
   Arithmetically averaged transition SO matrices
   (The phases shown, Ket and Bra assingment are from A(Ket)->B(Bra))
 _________________________________________________
 One-electron SO (cm-1)
 SOCC = 6.976126
 Actual matrix elements:
       |Sz=-1.00>           |Sz=0.00>           |Sz=1.00>
 <Sz=-1.00|(-0.000000,4.932866)(-0.000000,-0.000000)(-0.000000,-0.000000)
 <Sz=0.00|(0.000000,0.000000)(-0.000000,-0.000000)(-0.000000,0.000000)
 <Sz=1.00|(0.000000,-0.000000)(0.000000,0.000000)(-0.000000,-4.932866)
 _________________________________________________
 Mean-field SO (cm-1)
 SOCC = 4.419867
 Actual matrix elements:
       |Sz=-1.00>           |Sz=0.00>           |Sz=1.00>
 <Sz=-1.00|(-0.000000,3.125318)(-0.000000,0.000000)(-0.000000,-0.000000)
 <Sz=0.00|(0.000000,0.000000)(-0.000000,-0.000000)(-0.000000,0.000000)
 <Sz=1.00|(0.000000,-0.000000)(0.000000,0.000000)(-0.000000,-3.125318)
 ______________________________________________________________


 All requested transition properties have been computed

 Transition Properties:   CPU 237.29 s  wall 237.93 s

 Total ccman2 time:   CPU 1572.09 s  wall 1566.14 s

 
 --------------------------------------------------------------
             Orbital Energies (a.u.) and Symmetries
 --------------------------------------------------------------
 
 Alpha MOs, Restricted
 -- Doubly Occupied --           
-20.216 -11.063 -11.063 -11.054 -11.054 -11.055 -11.055 -11.048
  1 A1    2 A1    1 B1    2 B1    3 A1    3 B1    4 A1    5 A1                 
-11.047 -11.042 -11.042 -11.038 -11.035 -11.035  -1.295  -1.143
  4 B1    6 A1    5 B1    7 A1    8 A1    6 B1    9 A1   10 A1                 
 -1.096  -1.030  -0.996  -0.976  -0.927  -0.857  -0.821  -0.762
  7 B1   11 A1   12 A1    8 B1    9 B1   13 A1   14 A1   10 B1                 
 -0.743  -0.716  -0.656  -0.646  -0.602  -0.582  -0.576  -0.558
 11 B1   15 A1   16 A1   12 B1   17 A1   18 A1   13 B1   14 B1                 
 -0.549  -0.533  -0.546  -0.499  -0.478  -0.466  -0.458  -0.433
 19 A1   15 B1    1 B2   20 A1   16 B1   21 A1    1 A2   17 B1                 
 -0.432  -0.447  -0.367  -0.317  -0.304  -0.294
 22 A1    2 B2    3 B2    2 A2   18 B1    4 B2                                 
 -- Singly Occupied (Occupied) --
 -0.254  -0.205
  3 A2    5 B2                                                                 
 -- Virtual --                   
  0.197   0.225   0.290   0.326   0.466   0.495   0.560   0.580
  6 B2    4 A2    5 A2    7 B2    8 B2    6 A2   23 A1   19 B1                 
  0.585   0.631   0.657   0.669   0.669   0.684   0.695   0.708
 24 A1   20 B1   25 A1   26 A1   21 B1   27 A1   22 B1   23 B1                 
  0.760   0.764   0.794   0.838   0.876   0.883   0.885   0.918
 24 B1   28 A1   29 A1   30 A1   25 B1   31 A1   26 B1   27 B1                 
  0.957   0.988   1.080   1.101   1.160   1.159
 28 B1   32 A1   33 A1   29 B1   30 B1   34 A1                                 
 
 Beta MOs, Restricted
 -- Doubly Occupied --           
-20.200 -11.060 -11.060 -11.053 -11.053 -11.048 -11.048 -11.044
  1 A1    2 A1    1 B1    2 B1    3 A1    3 B1    4 A1    5 A1                 
-11.044 -11.042 -11.042 -11.036 -11.035 -11.035  -1.230  -1.120
  4 B1    6 A1    5 B1    7 A1    8 A1    6 B1    9 A1   10 A1                 
 -1.083  -1.014  -0.983  -0.967  -0.902  -0.839  -0.811  -0.750
  7 B1   11 A1   12 A1    8 B1    9 B1   13 A1   14 A1   10 B1                 
 -0.734  -0.705  -0.651  -0.639  -0.594  -0.574  -0.571  -0.552
 11 B1   15 A1   16 A1   12 B1   17 A1   18 A1   13 B1   14 B1                 
 -0.542  -0.527  -0.475  -0.485  -0.471  -0.455  -0.415  -0.426
 19 A1   15 B1    1 B2   20 A1   16 B1   21 A1    1 A2   17 B1                 
 -0.420  -0.357  -0.307  -0.288  -0.280  -0.217
 22 A1    2 B2    3 B2    2 A2   18 B1    4 B2                                 
 -- Singly Occupied (Vacant) --  
  0.047   0.265
  3 A2    5 B2                                                                 
 -- Virtual --                   
  0.248   0.293   0.342   0.399   0.544   0.547   0.566   0.584
  6 B2    4 A2    5 A2    7 B2    8 B2    6 A2   23 A1   19 B1                 
  0.589   0.633   0.664   0.681   0.684   0.703   0.706   0.714
 24 A1   20 B1   25 A1   26 A1   21 B1   27 A1   22 B1   23 B1                 
  0.768   0.769   0.803   0.844   0.880   0.889   0.891   0.927
 24 B1   28 A1   29 A1   30 A1   25 B1   31 A1   26 B1   27 B1                 
  0.963   0.996   1.086   1.106   1.166   1.172
 28 B1   32 A1   33 A1   29 B1   30 B1   34 A1                                 
 --------------------------------------------------------------
 
          Ground-State Mulliken Net Atomic Charges

     Atom                 Charge (a.u.)
  ----------------------------------------
      1 C                     0.120852
      2 O                    -0.156194
      3 C                    -0.006739
      4 C                    -0.006739
      5 C                    -0.006506
      6 C                    -0.072338
      7 C                    -0.055877
      8 C                    -0.057523
      9 C                    -0.055790
     10 H                     0.072887
     11 H                     0.068431
     12 H                     0.063762
     13 H                     0.067364
     14 C                    -0.006506
     15 C                    -0.072338
     16 C                    -0.057523
     17 C                    -0.055877
     18 C                    -0.055790
     19 H                     0.068431
     20 H                     0.072887
     21 H                     0.063762
     22 H                     0.067364
  ----------------------------------------
  Sum of atomic charges =     0.000000

 -----------------------------------------------------------------
                    Cartesian Multipole Moments
 -----------------------------------------------------------------
    Charge (ESU x 10^10)
                -0.0000
    Dipole Moment (Debye)
         X      -0.0000      Y       0.0000      Z      -2.0164
       Tot       2.0164
    Quadrupole Moments (Debye-Ang)
        XX     -66.2391     XY       0.0000     YY     -75.1264
        XZ       0.0000     YZ      -0.0000     ZZ     -73.9783
    Octopole Moments (Debye-Ang^2)
       XXX      -0.0000    XXY       0.0000    XYY      -0.0000
       YYY       0.0000    XXZ       1.1404    XYZ      -0.0000
       YYZ       7.9491    XZZ      -0.0000    YZZ      -0.0000
       ZZZ     -14.7284
    Hexadecapole Moments (Debye-Ang^3)
      XXXX   -2105.3755   XXXY       0.0000   XXYY    -407.8505
      XYYY      -0.0000   YYYY     -59.4569   XXXZ       0.0000
      XXYZ       0.0000   XYYZ      -0.0000   YYYZ      -0.0000
      XXZZ    -490.7656   XYZZ      -0.0000   YYZZ    -161.2345
      XZZZ       0.0000   YZZZ      -0.0000   ZZZZ    -932.5121
 -----------------------------------------------------------------
 Total job time:  1621.25s(wall), 1625.80s(cpu) 
 Fri Jan 26 13:13:02 2024

        *************************************************************
        *                                                           *
        *  Thank you very much for using Q-Chem.  Have a nice day.  *
        *                                                           *
        *************************************************************


