                  Welcome to Q-Chem
     A Quantum Leap Into The Future Of Chemistry


 Q-Chem 6.0 (devel), Q-Chem, Inc., Pleasanton, CA (2022)

 E. Epifanovsky,  A. T. B. Gilbert,  Xintian Feng,  Joonho Lee,  Yuezhi Mao,  
 N. Mardirossian,  P. Pokhilko,  A. White,  M. Wormit,  M. P. Coons,  
 A. L. Dempwolff,  Zhengting Gan,  D. Hait,  P. R. Horn,  L. D. Jacobson,  
 I. Kaliman,  J. Kussmann,  A. W. Lange,  Ka Un Lao,  D. S. Levine,  Jie Liu,  
 S. C. McKenzie,  A. F. Morrison,  K. Nanda,  F. Plasser,  D. R. Rehn,  
 M. L. Vidal,  Zhi-Qiang You,  Ying Zhu,  B. Alam,  B. Albrecht,  
 A. Aldossary,  E. Alguire,  J. H. Andersen,  V. Athavale,  D. Barton,  
 K. Begam,  A. Behn,  N. Bellonzi,  Y. A. Bernard,  E. J. Berquist,  
 H. Burton,  A. Carreras,  K. Carter-Fenk,  Romit Chakraborty,  
 Chandrima Chakravarty,  Junhan Chen,  A. D. Chien,  K. D. Closser,  
 V. Cofer-Shabica,  L. Cunha,  S. Dasgupta,  Jia Deng,  M. de Wergifosse,  
 M. Diedenhofen,  Hainam Do,  S. Ehlert,  Po-Tung Fang,  S. Fatehi,  
 Qingguo Feng,  T. Friedhoff,  B. Ganoe,  J. Gayvert,  Qinghui Ge,  
 G. Gidofalvi,  M. Goldey,  J. Gomes,  C. Gonzalez-Espinoza,  S. Gulania,  
 A. Gunina,  J. A. Gyamfi,  M. W. D. Hanson-Heine,  P. H. P. Harbach,  
 A. W. Hauser,  M. F. Herbst,  M. Hernandez Vera,  M. Hodecker,  
 Z. C. Holden,  S. Houck,  Xunkun Huang,  Kerwin Hui,  B. C. Huynh,  
 K. Ikeda,  M. Ivanov,  Hyunjun Ji,  Zuxin Jin,  Hanjie Jiang,  B. Kaduk,  
 S. Kaehler,  R. Kang,  K. Khistyaev,  Jaehoon Kim,  Yongbin Kim,  
 P. Klunzinger,  Z. Koczor-Benda,  Joong Hoon Koh,  D. Kosenkov,  
 Saikiran Kotaru,  L. Koulias,  T. Kowalczyk,  C. M. Krauter,  K. Kue,  
 A. Kunitsa,  T. Kus,  A. Landau,  K. V. Lawler,  D. Lefrancois,  S. Lehtola,  
 Rain Li,  Shaozhi Li,  Yi-Pei Li,  Jiashu Liang,  M. Liebenthal,  
 Hung-Hsuan Lin,  You-Sheng Lin,  Fenglai Liu,  Kuan-Yu Liu,  
 M. Loipersberger,  A. Luenser,  C. Malbon,  A. Manjanath,  P. Manohar,  
 E. Mansoor,  S. F. Manzer,  Shan-Ping Mao,  A. V. Marenich,  T. Markovich,  
 S. Mason,  F. Matz,  S. A. Maurer,  P. F. McLaughlin,  M. F. S. J. Menger,  
 J.-M. Mewes,  S. A. Mewes,  P. Morgante,  Mohammad Mostafanejad,  
 J. W. Mullinax,  K. J. Oosterbaan,  G. Paran,  V. Parravicini,  
 Alexander C. Paul,  Suranjan K. Paul,  F. Pavosevic,  Zheng Pei,  S. Prager,  
 E. I. Proynov,  E. Ramos,  B. Rana,  A. E. Rask,  A. Rettig,  R. M. Richard,  
 F. Rob,  E. Rossomme,  T. Scheele,  M. Scheurer,  M. Schneider,  
 P. E. Schneider,  N. Sergueev,  S. M. Sharada,  Hengyuan Shen,  
 W. Skomorowski,  D. W. Small,  C. J. Stein,  Yingli Su,  Yu-Chuan Su,  
 E. J. Sundstrom,  Zhen Tao,  J. Thirman,  Hung-Yi Tsai,  T. Tsuchimochi,  
 N. M. Tubman,  C. Utku,  S. P. Veccham,  O. Vydrov,  J. Wenzel,  
 Jonathan Wong,  J. Witte,  A. Yamada,  Chou-Hsun Yang,  Kun Yao,  
 S. Yeganeh,  S. R. Yost,  A. Zech,  F. Zeller,  Igor Ying Zhang,  
 Xing Zhang,  Yu Zhang,  D. Zuev,  A. Aspuru-Guzik,  A. T. Bell,  
 N. A. Besley,  K. B. Bravaya,  B. R. Brooks,  D. Casanova,  Jeng-Da Chai,  
 Hsing-Ta Chen,  S. Coriani,  C. J. Cramer,  A. E. DePrince, III,  
 R. A. DiStasio Jr.,  A. Dreuw,  B. D. Dunietz,  T. R. Furlani,  
 W. A. Goddard III,  S. Grimme,  S. Hammes-Schiffer,  T. Head-Gordon,  
 W. J. Hehre,  Chao-Ping Hsu,  T.-C. Jagau,  Yousung Jung,  A. Klamt,  
 Jing Kong,  D. S. Lambrecht,  Xiangyuan Li,  WanZhen Liang,  N. J. Mayhall,  
 C. W. McCurdy,  J. B. Neaton,  T. Neudecker,  C. Ochsenfeld,  
 J. A. Parkhill,  R. Peverati,  V. A. Rassolov,  Haisheng Ren,  Yihan Shao,  
 L. V. Slipchenko,  R. P. Steele,  J. E. Subotnik,  A. J. W. Thom,  
 A. Tkatchenko,  D. G. Truhlar,  T. Van Voorhis,  Fan Wang,  
 T. A. Wesolowski,  K. B. Whaley,  H. L. Woodcock III,  P. M. Zimmerman,  
 S. Faraji,  P. M. W. Gill,  M. Head-Gordon,  J. M. Herbert,  A. I. Krylov

 Contributors to earlier versions of Q-Chem not listed above: 
 R. D. Adamson,  B. Austin,  R. Baer,  J. Baker,  G. J. O. Beran,  
 K. Brandhorst,  S. T. Brown,  E. F. C. Byrd,  Arup K. Chakraborty,  
 G. K. L. Chan,  Chun-Min Chang,  Yunqing Chen,  C.-L. Cheng,  
 Siu Hung Chien,  D. M. Chipman,  D. L. Crittenden,  H. Dachsel,  
 R. J. Doerksen,  A. D. Dutoi,  R. G. Edgar,  J. Fosso-Tande,  
 L. Fusti-Molnar,  D. Ghosh,  A. Ghysels,  A. Golubeva-Zadorozhnaya,  
 J. Gonthier,  M. S. Gordon,  S. R. Gwaltney,  G. Hawkins,  J. E. Herr,  
 A. Heyden,  S. Hirata,  E. G. Hohenstein,  G. Kedziora,  F. J. Keil,  
 C. Kelley,  Jihan Kim,  R. A. King,  R. Z. Khaliullin,  P. P. Korambath,  
 W. Kurlancheek,  A. Laurent,  A. M. Lee,  M. S. Lee,  S. V. Levchenko,  
 Ching Yeh Lin,  D. Liotard,  E. Livshits,  R. C. Lochan,  I. Lotan,  
 L. A. Martinez-Martinez,  P. E. Maslen,  N. Nair,  D. P. O'Neill,  
 D. Neuhauser,  E. Neuscamman,  C. M. Oana,  R. Olivares-Amaya,  R. Olson,  
 T. M. Perrine,  B. Peters,  P. A. Pieniazek,  A. Prociuk,  Y. M. Rhee,  
 J. Ritchie,  M. A. Rohrdanz,  E. Rosta,  N. J. Russ,  H. F. Schaefer III,  
 M. W. Schmidt,  N. E. Schultz,  S. Sharma,  N. Shenvi,  C. D. Sherrill,  
 A. C. Simmonett,  A. Sodt,  T. Stein,  D. Stuck,  K. S. Thanthiriwatte,  
 V. Vanovschi,  L. Vogt,  Tao Wang,  A. Warshel,  M. A. Watson,  
 C. F. Williams,  Q. Wu,  X. Xu,  Jun Yang,  W. Zhang,  Yan Zhao

   Please cite Q-Chem as follows:
  "Software for the frontiers of quantum chemistry:
   An overview of developments in the Q-Chem 5 package"
   J. Chem. Phys. 155, 084801 (2021)
   https://doi.org/10.1063/5.0055522 (open access)

 Q-Chem 6.0.1 for Intel X86 EM64T Linux

 Parts of Q-Chem use Armadillo 9.900.5 (Nocturnal Misbehaviour).
 http://arma.sourceforge.net/

 Q-Chem begins on Fri Jan 26 13:22:51 2024  

 Host: atlas-260
0

     Scratch files written to ./qchem214454//
 Processing $rem in /scratch/abel/SOFTWARE/qchem/config/preferences:
 Processing $rem in /dipc/acebg/.qchemrc:
 Core orbitals will be frozen

 Checking the input file for inconsistencies... 	...done.

--------------------------------------------------------------
User input:
--------------------------------------------------------------
$comment
 RAS-SF CALCULATION
$end

$molecule
 READ fluorenone_singlet.molecule
$end

$rem
!**CALCULATION TYPE***     
JOBTYPE            sp    
!BASIS              def2-TZVP
BASIS             STO-3G

!***SCF REFERENCE***
INPUT_BOHR 	    TRUE
!SKIP_SCFMAN        FALSE
UNRESTRICTED       FALSE
!SCF_GUESS          core
!SCF_GUESS_MIX      FALSE
!SCF_GUESS_ALWAYS   FALSE
MAX_SCF_CYCLES     500
!SCF_CONVERGENCE    10
SCF_ALGORITHM      DIIS_GDM !DIIS,DM,DIIS_DM,GDM,DIIS_GDM,GD

!SYMMETRY           TRUE   !use of symmetry for calculating integrals
!SYM_IGNORE         FALSE  !turn off using symmetry
!SYM_TOL            5      !tolerance for determining point group
!USE_ABELIAN_SUBGROUP      !define to use abelian group

!THRESH             14
!SCF_FINAL_PRINT     1 !0,1,2,3

!****CCSD****
CORRELATION        CCSD
!CC_CONVERGENCE     6
!CC_MAX_ITER        200
CC_PRINT	   2
!CHOLESKY_TOL       3 !Toler. decomposition 2e integrals
CC_REF_PROP  	   1 !one-particle CCSD properties calculation
!CC_REF_PROP_TE	   0 !two-particle CCSD properties calculation
!CC_FNO_THRESH
!CC_BACKEND	   XM !Used to specify the computational back-end of CCMAN2.

!****EOM****
METHOD             EOM-MP2
SF_STATES	   [10, 10, 3, 10]
CC_STATE_TO_OPT    [3,1]
CC_EOM_PROP        1
CC_EOM_PROP_TE	   1
CC_TRANS_PROP      1
CALC_SOC           TRUE   !calculate SOC for EOM-CC, RAS-CI, ADC, TDDFT/TDA and TDDFT

!****MEMORY****
MEM_TOTAL          90000 !Default 2000 MB
MEM_STATIC         7000  !Default 64 MB
CC_MEMORY          72000

!**Molecular Properties and Analysis **                                                                                          
!POP_MULLIKEN       TRUE   !Run Mulliken population analysis
!LOWDIN_POPULATION  TRUE   !Run Löwdin population analysis
GUI                0       !Checkpoints generation
!STATE_ANALYSIS     TRUE

!**Wave function analysis**
!PLOTS = 0     ! Note: This can be omitted, default is 0
!NTO_PAIRS = 2 ! Note: This can be omitted, default is 2
!GUI 0
!MOLDEN_FORMAT      TRUE
!PRINT_ORBITALS     15
$end

!$plots
!   grid_points 100 100 100
!   grid_range  (-10,10) (-10,10) (-10,10)
!$end

--------------------------------------------------------------
 ----------------------------------------------------------------
             Standard Nuclear Orientation (Bohr)
    I     Atom           X                Y                Z
 ----------------------------------------------------------------
    1      C      -0.0000000000    -0.0000000000     3.0318066276
    2      O      -0.0000000000    -0.0000000000     5.3638644743
    3      C      -2.1864624130    -0.0000000000     1.3211263669
    4      C       2.1864624130     0.0000000000     1.3211263669
    5      C       1.3222785792     0.0000000000    -1.3152461482
    6      C       4.7555386627     0.0000000000     1.8776505802
    7      C       6.4695983050     0.0000000000    -0.0972082822
    8      C       3.1392439890     0.0000000000    -3.3016694193
    9      C       5.6496513315     0.0000000000    -2.6924387954
   10      H       5.3730975132     0.0000000000     3.8295121100
   11      H       2.5395104465     0.0000000000    -5.2593503586
   12      H       8.4790954600     0.0000000000     0.2945733557
   13      H       7.0667355415     0.0000000000    -4.1688986988
   14      C      -1.3222785792    -0.0000000000    -1.3152461482
   15      C      -4.7555386627    -0.0000000000     1.8776505802
   16      C      -3.1392439890    -0.0000000000    -3.3016694193
   17      C      -6.4695983050    -0.0000000000    -0.0972082822
   18      C      -5.6496513315    -0.0000000000    -2.6924387954
   19      H      -2.5395104465    -0.0000000000    -5.2593503586
   20      H      -5.3730975132    -0.0000000000     3.8295121100
   21      H      -8.4790954600    -0.0000000000     0.2945733557
   22      H      -7.0667355415    -0.0000000000    -4.1688986988
 ----------------------------------------------------------------
 Molecular Point Group                 C2v   NOp =  4
 Largest Abelian Subgroup              C2v   NOp =  4
 Nuclear Repulsion Energy =         775.12034816 hartrees
 There are       47 alpha and       47 beta electrons
 Requested basis set is STO-3G
 There are 36 shells and 78 basis functions
WARNING: MEM_STATIC is adjusted to be 2000 MB!
 Total memory of 90000 MB is distributed as follows: 
   MEM_STATIC is set to 2000 MB
   QALLOC/CCMAN JOB total memory use is  88000 MB
 Warning: actual memory use might exceed 90000 MB

 Total QAlloc Memory Limit  90000 MB
 Mega-Array Size      1956 MB
 MEM_STATIC part      2000 MB

 A cutoff of  1.0D-14 yielded    577 shell pairs
 There are      3052 function pairs
 Smallest overlap matrix eigenvalue = 1.76E-01

 Scale SEOQF with 1.000000e-01/1.000000e+00/1.000000e-01

 Standard Electronic Orientation quadrupole field applied
 Nucleus-field energy     =    -0.0000000045 hartrees
 Guess from superposition of atomic densities
 Warning:  Energy on first SCF cycle will be non-variational
 SAD guess density has 94.000000 electrons

 -----------------------------------------------------------------------
  General SCF calculation program by
  Eric Jon Sundstrom, Paul Horn, Yuezhi Mao, Dmitri Zuev, Alec White,
  David Stuck, Shaama M.S., Shane Yost, Joonho Lee, David Small,
  Daniel Levine, Susi Lehtola, Hugh Burton, Evgeny Epifanovsky,
  Bang C. Huynh
 -----------------------------------------------------------------------
 Hartree-Fock
 A restricted SCF calculation will be
 performed using DIIS, GDM
 SCF converges when RMS gradient is below 1.0e-08
 ---------------------------------------
  Cycle       Energy         DIIS error
 ---------------------------------------
    1    -565.6871594468      1.35e-01  
    2    -564.4898720158      1.33e-02  
    3    -564.6328314555      9.95e-03  Done DIIS. Switching to GDM
 ---------------------------------------
  Cycle       Energy        RMS Gradient
 ---------------------------------------
    1    -564.6328314555      1.35e-01   Descent step
    2    -564.6878291123      7.70e-02   Normal BFGS step
    3    -564.7148604852      1.69e-02   Normal BFGS step
    4    -564.7155632440      3.69e-03   Normal BFGS step
    5    -564.7157462965      1.13e-03   Normal BFGS step
    6    -564.7157811326      6.50e-04   Normal BFGS step
    7    -564.7157844040      1.96e-04   Normal BFGS step
    8    -564.7157848130      6.92e-05   Normal BFGS step
    9    -564.7157848600      3.27e-05   Normal BFGS step
   10    -564.7157848693      1.20e-05   Normal BFGS step
   11    -564.7157848709      2.77e-06   Normal BFGS step
   12    -564.7157848710      7.90e-07   Normal BFGS step
   13    -564.7157848710      2.57e-07   Normal BFGS step
   14    -564.7157848710      1.11e-07   Normal BFGS step
   15    -564.7157848710      3.43e-08   Normal BFGS step
   16    -564.7157848710      7.74e-09  Convergence criterion met
 ---------------------------------------
 SCF time:   CPU 2.25s  wall 3.00s 
 SCF   energy in the final basis set =     -564.7157848710
 Total energy in the final basis set =     -564.7157848710
 mp2 is not implemented in computing transition properties!


 ------------------------------------------------------------------------------

   CCMAN2: suite of methods based on coupled cluster
           and equation of motion theories.

   Components:
   * libvmm-1.3-trunk
     by Evgeny Epifanovsky, Ilya Kaliman.
   * libtensor-2.5-trunk
     by Evgeny Epifanovsky, Michael Wormit, Dmitry Zuev, Sam Manzer, 
        Ilya Kaliman.
   * libcc-2.5-trunk
     by Evgeny Epifanovsky, Arik Landau, Tomasz Kus, Kirill Khistyaev, 
        Dmitry Zuev, Prashant Manohar, Xintian Feng, Anna Krylov, 
        Matthew Goldey, Alec White, Thomas Jagau, Kaushik Nanda, 
        Anastasia Gunina, Alexander Kunitsa, Joonho Lee.

   CCMAN original authors:
   Anna I. Krylov, C. David Sherrill, Steven R. Gwaltney,
   Edward F. C. Byrd (2000)
   Sergey V. Levchenko, Lyudmila V. Slipchenko, Tao Wang,
   Ana-Maria C. Cristian (2003)
   Piotr A. Pieniazek, C. Melania Oana, Evgeny Epifanovsky (2007)
   Prashant Manohar (2009)

 ------------------------------------------------------------------------------


 Allocating and initializing 72000MB of RAM...
 Calculation will run on 1 core.

 
 Alpha MOs, Restricted
 -- Occupied --                  
-20.293 -11.122 -11.048 -11.047 -11.043 -11.043 -11.042 -11.042
  1 A1    2 A1    3 A1    1 B1    2 B1    4 A1    3 B1    5 A1                 
-11.041 -11.041 -11.036 -11.036 -11.032 -11.032  -1.323  -1.130
  4 B1    6 A1    5 B1    7 A1    6 B1    8 A1    9 A1   10 A1                 
 -1.081  -1.019  -0.986  -0.967  -0.908  -0.855  -0.809  -0.755
  7 B1   11 A1   12 A1    8 B1    9 B1   13 A1   14 A1   10 B1                 
 -0.733  -0.710  -0.655  -0.641  -0.599  -0.577  -0.576  -0.558
 11 B1   15 A1   16 A1   12 B1   17 A1   18 A1   13 B1   14 B1                 
 -0.544  -0.523  -0.523  -0.511  -0.479  -0.465  -0.442  -0.429
 19 A1   15 B1    1 B2   20 A1   16 B1   21 A1    1 A2    2 B2                 
 -0.428  -0.425  -0.331  -0.331  -0.295  -0.281  -0.212
 22 A1   17 B1   18 B1    3 B2    2 A2    4 B2    3 A2                         
 -- Virtual --                   
  0.139   0.227   0.266   0.318   0.370   0.505   0.530   0.564
  5 B2    6 B2    4 A2    5 A2    7 B2    8 B2    6 A2   23 A1                 
  0.584   0.594   0.637   0.664   0.676   0.680   0.687   0.704
 19 B1   24 A1   20 B1   25 A1   21 B1   26 A1   27 A1   22 B1                 
  0.712   0.765   0.771   0.798   0.840   0.881   0.885   0.891
 23 B1   24 B1   28 A1   29 A1   30 A1   25 B1   31 A1   26 B1                 
  0.922   0.965   0.987   1.087   1.109   1.144   1.169
 27 B1   28 B1   32 A1   33 A1   29 B1   34 A1   30 B1                         
 
 Beta MOs, Restricted
 -- Occupied --                  
-20.293 -11.122 -11.048 -11.047 -11.043 -11.043 -11.042 -11.042
  1 A1    2 A1    3 A1    1 B1    2 B1    4 A1    3 B1    5 A1                 
-11.041 -11.041 -11.036 -11.036 -11.032 -11.032  -1.323  -1.130
  4 B1    6 A1    5 B1    7 A1    6 B1    8 A1    9 A1   10 A1                 
 -1.081  -1.019  -0.986  -0.967  -0.908  -0.855  -0.809  -0.755
  7 B1   11 A1   12 A1    8 B1    9 B1   13 A1   14 A1   10 B1                 
 -0.733  -0.710  -0.655  -0.641  -0.599  -0.577  -0.576  -0.558
 11 B1   15 A1   16 A1   12 B1   17 A1   18 A1   13 B1   14 B1                 
 -0.544  -0.523  -0.523  -0.511  -0.479  -0.465  -0.442  -0.429
 19 A1   15 B1    1 B2   20 A1   16 B1   21 A1    1 A2    2 B2                 
 -0.428  -0.425  -0.331  -0.331  -0.295  -0.281  -0.212
 22 A1   17 B1   18 B1    3 B2    2 A2    4 B2    3 A2                         
 -- Virtual --                   
  0.139   0.227   0.266   0.318   0.370   0.505   0.530   0.564
  5 B2    6 B2    4 A2    5 A2    7 B2    8 B2    6 A2   23 A1                 
  0.584   0.594   0.637   0.664   0.676   0.680   0.687   0.704
 19 B1   24 A1   20 B1   25 A1   21 B1   26 A1   27 A1   22 B1                 
  0.712   0.765   0.771   0.798   0.840   0.881   0.885   0.891
 23 B1   24 B1   28 A1   29 A1   30 A1   25 B1   31 A1   26 B1                 
  0.922   0.965   0.987   1.087   1.109   1.144   1.169
 27 B1   28 B1   32 A1   33 A1   29 B1   34 A1   30 B1                         

 Occupation and symmetry of molecular orbitals

 Point group: C2v (4 irreducible representations).

                           A1   A2   B1   B2    All 
 ----------------------------------------------------
 All molecular orbitals:
  - Alpha                  34   6    30   8     78  
  - Beta                   34   6    30   8     78  
 ----------------------------------------------------
 Alpha orbitals:
  - Frozen occupied        8    0    6    0     14  
  - Active occupied        14   3    12   4     33  
  - Active virtual         12   3    12   4     31  
  - Frozen virtual         0    0    0    0     0   
 ----------------------------------------------------
 Beta orbitals:
  - Frozen occupied        8    0    6    0     14  
  - Active occupied        14   3    12   4     33  
  - Active virtual         12   3    12   4     31  
  - Frozen virtual         0    0    0    0     0   
 ----------------------------------------------------

 Import integrals:   CPU 0.00 s  wall 0.00 s

 Import integrals:   CPU 1.63 s  wall 1.83 s

 Computing CCSD intermediates for later calculations in double precision
 Finished.

 MP2 amplitudes:   CPU 1.59 s  wall 1.96 s

        Solving for EOMSF-CCSD A1 transitions.

Running a double precision version
       EOMSF-CCSD/MP2 right amplitudes will be solved using Davidson.
        Amplitudes will be solved using standard  algorithm.
     Hard-coded thresholds: 
     LinDepThresh=1.00e-15  NormThresh=1.00e-06  ReorthogonThresh=1.00e-02

      Roots     MaxVec    MaxIter   Precond   Conv      Shift    
      10        120       60        1         1.00e-05  0.00e+00  
 ------------------------------------------------------------------------------
      Iter ConvRoots NVecs ResNorm^2 Current eigenvalues (eV)
 ------------------------------------------------------------------------------
      0    0      20    1.16e-01   5.8151   7.4857   8.4115   8.5996   9.5637   10.1955   11.2647   11.9694   13.2232   14.2498   
      1    0      30    1.31e-02   3.8639   5.2748   5.9295   6.1503   7.2099   7.9976   8.6721   8.9385   9.6365   10.5009   
      2    0      40    2.62e-03   3.5067   4.8214   5.4104   5.6570   6.9304   7.4198   8.0674   8.3299   9.0838   9.7986   
      3    0      50    5.91e-04   3.4763   4.7861   5.3451   5.6020   6.8961   7.3189   7.9355   8.2544   8.9842   9.6664   
      4    0      60    1.90e-04   3.4701   4.7813   5.3361   5.5949   6.8883   7.2963   7.9103   8.2339   8.9223   9.6171   
      5    4      70    6.32e-05   3.4682*  4.7803*  5.3348*  5.5936*  6.8859   7.2911   7.9036   8.2263   8.8925   9.6006   
      6    7      76    2.35e-05   3.4681*  4.7802*  5.3347*  5.5936*  6.8854*  7.2903*  7.9025*  8.2244   8.8834   9.5946   
      7    8      79    1.03e-05   3.4681*  4.7803*  5.3347*  5.5936*  6.8854*  7.2902*  7.9024*  8.2239*  8.8808   9.5918   
      8    9      81    5.77e-06   3.4681*  4.7803*  5.3347*  5.5936*  6.8854*  7.2902*  7.9024*  8.2239*  8.8799*  9.5905   
      9    10     82    4.64e-06   3.4681*  4.7803*  5.3347*  5.5936*  6.8854*  7.2902*  7.9024*  8.2239*  8.8799*  9.5901*  

     Davidson procedure converged

 EOMSF transition 1/A1
 Total energy = -565.40807516 a.u.  Excitation energy = 3.4681 eV.
 R1^2 = 0.9328  R2^2 = 0.0672  Res^2 = 2.23e-06
 Conv-d = yes

 Amplitude    Transitions between orbitals
  0.7240       4 (B2) A                  ->    5 (B2) B                   
 -0.2537       3 (A2) A                  ->    4 (A2) B                   
 -0.2522       4 (B2) A                  ->    6 (B2) B                   
 -0.2449       2 (B2) A                  ->    5 (B2) B                   
 -0.2323       2 (A2) A                  ->    4 (A2) B                   
  0.2182       3 (B2) A                  ->    5 (B2) B                   
  0.1880       2 (B2) A                  ->    7 (B2) B                   
  0.1764       3 (A2) A                  ->    5 (A2) B                   
  0.1061       2 (B2) A                  ->    6 (B2) B                   

              Summary of significant orbitals:

               Number  Type             Irrep      Energy
               45      Occ  Alpha       2 (A2)     -0.2954
               47      Occ  Alpha       3 (A2)     -0.2123
               40      Occ  Alpha       2 (B2)     -0.4288
               44      Occ  Alpha       3 (B2)     -0.3305
               46      Occ  Alpha       4 (B2)     -0.2814
               50      Vir  Beta        4 (A2)      0.2661
               51      Vir  Beta        5 (A2)      0.3182
               48      Vir  Beta        5 (B2)      0.1389
               49      Vir  Beta        6 (B2)      0.2266
               52      Vir  Beta        7 (B2)      0.3699


 EOMSF transition 2/A1
 Total energy = -565.35985376 a.u.  Excitation energy = 4.7803 eV.
 R1^2 = 0.9214  R2^2 = 0.0786  Res^2 = 3.90e-06
 Conv-d = yes

 Amplitude    Transitions between orbitals
  0.5251       3 (B2) A                  ->    5 (B2) B                   
  0.4980       3 (A2) A                  ->    5 (A2) B                   
  0.3061       3 (B2) A                  ->    6 (B2) B                   
 -0.2764       4 (B2) A                  ->    5 (B2) B                   
  0.2283       2 (B2) A                  ->    5 (B2) B                   
  0.1723       4 (B2) A                  ->    7 (B2) B                   
 -0.1659       3 (A2) A                  ->    4 (A2) B                   
  0.1423       1 (B2) A                  ->    5 (B2) B                   
 -0.1296       2 (B2) A                  ->    6 (B2) B                   
 -0.1178       2 (A2) A                  ->    5 (A2) B                   
  0.1038       2 (B2) A                  ->    8 (B2) B                   
  0.1037       3 (B2) A                  ->    7 (B2) B                   

              Summary of significant orbitals:

               Number  Type             Irrep      Energy
               45      Occ  Alpha       2 (A2)     -0.2954
               47      Occ  Alpha       3 (A2)     -0.2123
               35      Occ  Alpha       1 (B2)     -0.5229
               40      Occ  Alpha       2 (B2)     -0.4288
               44      Occ  Alpha       3 (B2)     -0.3305
               46      Occ  Alpha       4 (B2)     -0.2814
               50      Vir  Beta        4 (A2)      0.2661
               51      Vir  Beta        5 (A2)      0.3182
               48      Vir  Beta        5 (B2)      0.1389
               49      Vir  Beta        6 (B2)      0.2266
               52      Vir  Beta        7 (B2)      0.3699
               53      Vir  Beta        8 (B2)      0.5052


 EOMSF transition 3/A1
 Total energy = -565.33947711 a.u.  Excitation energy = 5.3347 eV.
 R1^2 = 0.8776  R2^2 = 0.1224  Res^2 = 6.62e-06
 Conv-d = yes

 Amplitude    Transitions between orbitals
 -0.5254       4 (B2) A                  ->    6 (B2) B                   
  0.4805       3 (A2) A                  ->    4 (A2) B                   
  0.3136       3 (B2) A                  ->    6 (B2) B                   
 -0.2830       2 (A2) A                  ->    5 (A2) B                   
 -0.2626       2 (A2) A                  ->    4 (A2) B                   
 -0.1939       4 (B2) A                  ->    5 (B2) B                   
 -0.1845       2 (B2) A                  ->    5 (B2) B                   
 -0.1221       3 (B2) A                  ->    5 (B2) B                   
  0.1012       2 (B2) A                  ->    7 (B2) B                   

              Summary of significant orbitals:

               Number  Type             Irrep      Energy
               45      Occ  Alpha       2 (A2)     -0.2954
               47      Occ  Alpha       3 (A2)     -0.2123
               40      Occ  Alpha       2 (B2)     -0.4288
               44      Occ  Alpha       3 (B2)     -0.3305
               46      Occ  Alpha       4 (B2)     -0.2814
               50      Vir  Beta        4 (A2)      0.2661
               51      Vir  Beta        5 (A2)      0.3182
               48      Vir  Beta        5 (B2)      0.1389
               49      Vir  Beta        6 (B2)      0.2266
               52      Vir  Beta        7 (B2)      0.3699


 EOMSF transition 4/A1
 Total energy = -565.32996363 a.u.  Excitation energy = 5.5936 eV.
 R1^2 = 0.9006  R2^2 = 0.0994  Res^2 = 6.17e-06
 Conv-d = yes

 Amplitude    Transitions between orbitals
  0.4599       2 (A2) A                  ->    4 (A2) B                   
 -0.4067       2 (B2) A                  ->    5 (B2) B                   
  0.3258       3 (A2) A                  ->    4 (A2) B                   
  0.3234       3 (B2) A                  ->    5 (B2) B                   
 -0.3214       4 (B2) A                  ->    7 (B2) B                   
  0.2353       4 (B2) A                  ->    6 (B2) B                   
  0.2034       3 (A2) A                  ->    5 (A2) B                   
  0.1962       2 (B2) A                  ->    6 (B2) B                   
 -0.1474       1 (B2) A                  ->    5 (B2) B                   

              Summary of significant orbitals:

               Number  Type             Irrep      Energy
               45      Occ  Alpha       2 (A2)     -0.2954
               47      Occ  Alpha       3 (A2)     -0.2123
               35      Occ  Alpha       1 (B2)     -0.5229
               40      Occ  Alpha       2 (B2)     -0.4288
               44      Occ  Alpha       3 (B2)     -0.3305
               46      Occ  Alpha       4 (B2)     -0.2814
               50      Vir  Beta        4 (A2)      0.2661
               51      Vir  Beta        5 (A2)      0.3182
               48      Vir  Beta        5 (B2)      0.1389
               49      Vir  Beta        6 (B2)      0.2266
               52      Vir  Beta        7 (B2)      0.3699


 EOMSF transition 5/A1
 Total energy = -565.28249128 a.u.  Excitation energy = 6.8854 eV.
 R1^2 = 0.9151  R2^2 = 0.0849  Res^2 = 1.54e-06
 Conv-d = yes

 Amplitude    Transitions between orbitals
 -0.4577       3 (A2) A                  ->    4 (A2) B                   
 -0.4283       4 (B2) A                  ->    5 (B2) B                   
 -0.3540       4 (B2) A                  ->    6 (B2) B                   
 -0.3183       2 (B2) A                  ->    5 (B2) B                   
 -0.2929       3 (B2) A                  ->    6 (B2) B                   
  0.2871       3 (B2) A                  ->    5 (B2) B                   
 -0.2481       3 (A2) A                  ->    5 (A2) B                   
  0.1193       2 (B2) A                  ->    7 (B2) B                   

              Summary of significant orbitals:

               Number  Type             Irrep      Energy
               47      Occ  Alpha       3 (A2)     -0.2123
               40      Occ  Alpha       2 (B2)     -0.4288
               44      Occ  Alpha       3 (B2)     -0.3305
               46      Occ  Alpha       4 (B2)     -0.2814
               50      Vir  Beta        4 (A2)      0.2661
               51      Vir  Beta        5 (A2)      0.3182
               48      Vir  Beta        5 (B2)      0.1389
               49      Vir  Beta        6 (B2)      0.2266
               52      Vir  Beta        7 (B2)      0.3699


 EOMSF transition 6/A1
 Total energy = -565.26761492 a.u.  Excitation energy = 7.2902 eV.
 R1^2 = 0.8575  R2^2 = 0.1425  Res^2 = 4.08e-06
 Conv-d = yes

 Amplitude    Transitions between orbitals
  0.4254       3 (A2) A                  ->    4 (A2) B                   
  0.3633       3 (B2) A                  ->    5 (B2) B                   
 -0.3287       3 (B2) A                  ->    6 (B2) B                   
 -0.3046       1 (A2) A                  ->    4 (A2) B                   
  0.2442       2 (A2) A                  ->    5 (A2) B                   
  0.2292       4 (B2) A                  ->    7 (B2) B                   
 -0.2254       2 (B2) A                  ->    6 (B2) B                   
 -0.1801       2 (A2) A                  ->    4 (A2) B                   
  0.1725       2 (A2) A                  ->    6 (A2) B                   
  0.1386       4 (B2) A                  ->    8 (B2) B                   
 -0.1305       3 (A2) A                  ->    5 (A2) B                   
  0.1266       4 (B2) A                  ->    5 (B2) B                   
  0.1248       1 (B2) A                  ->    6 (B2) B                   
 -0.1197       1 (A2) A                  ->    5 (A2) B                   
 -0.1054       3 (B2) A                  ->    8 (B2) B                   

              Summary of significant orbitals:

               Number  Type             Irrep      Energy
               39      Occ  Alpha       1 (A2)     -0.4418
               45      Occ  Alpha       2 (A2)     -0.2954
               47      Occ  Alpha       3 (A2)     -0.2123
               35      Occ  Alpha       1 (B2)     -0.5229
               40      Occ  Alpha       2 (B2)     -0.4288
               44      Occ  Alpha       3 (B2)     -0.3305
               46      Occ  Alpha       4 (B2)     -0.2814
               50      Vir  Beta        4 (A2)      0.2661
               51      Vir  Beta        5 (A2)      0.3182
               54      Vir  Beta        6 (A2)      0.5302
               48      Vir  Beta        5 (B2)      0.1389
               49      Vir  Beta        6 (B2)      0.2266
               52      Vir  Beta        7 (B2)      0.3699
               53      Vir  Beta        8 (B2)      0.5052


 EOMSF transition 7/A1
 Total energy = -565.24511604 a.u.  Excitation energy = 7.9024 eV.
 R1^2 = 0.8480  R2^2 = 0.1520  Res^2 = 8.52e-06
 Conv-d = yes

 Amplitude    Transitions between orbitals
  0.4899       1 (B2) A                  ->    5 (B2) B                   
 -0.3284       3 (A2) A                  ->    6 (A2) B                   
  0.2579       1 (A2) A                  ->    4 (A2) B                   
 -0.2500       2 (B2) A                  ->    5 (B2) B                   
 -0.2267       2 (B2) A                  ->    6 (B2) B                   
 -0.2234       3 (B2) A                  ->    7 (B2) B                   
 -0.2148       1 (A2) A                  ->    5 (A2) B                   
 -0.1948       3 (A2) A                  ->    5 (A2) B                   
 -0.1910       4 (B2) A                  ->    8 (B2) B                   
 -0.1862       2 (B2) A                  ->    7 (B2) B                   
 -0.1540       3 (B2) A                  ->    8 (B2) B                   
 -0.1480       2 (A2) A                  ->    5 (A2) B                   
  0.1479       4 (B2) A                  ->    6 (B2) B                   
  0.1168       3 (B2) A                  ->    5 (B2) B                   

              Summary of significant orbitals:

               Number  Type             Irrep      Energy
               39      Occ  Alpha       1 (A2)     -0.4418
               45      Occ  Alpha       2 (A2)     -0.2954
               47      Occ  Alpha       3 (A2)     -0.2123
               35      Occ  Alpha       1 (B2)     -0.5229
               40      Occ  Alpha       2 (B2)     -0.4288
               44      Occ  Alpha       3 (B2)     -0.3305
               46      Occ  Alpha       4 (B2)     -0.2814
               50      Vir  Beta        4 (A2)      0.2661
               51      Vir  Beta        5 (A2)      0.3182
               54      Vir  Beta        6 (A2)      0.5302
               48      Vir  Beta        5 (B2)      0.1389
               49      Vir  Beta        6 (B2)      0.2266
               52      Vir  Beta        7 (B2)      0.3699
               53      Vir  Beta        8 (B2)      0.5052


 EOMSF transition 8/A1
 Total energy = -565.23330136 a.u.  Excitation energy = 8.2239 eV.
 R1^2 = 0.8597  R2^2 = 0.1403  Res^2 = 3.33e-06
 Conv-d = yes

 Amplitude    Transitions between orbitals
  0.5096       3 (A2) A                  ->    5 (A2) B                   
 -0.4198       3 (B2) A                  ->    5 (B2) B                   
 -0.3120       2 (B2) A                  ->    5 (B2) B                   
 -0.2165       1 (A2) A                  ->    5 (A2) B                   
  0.1947       2 (A2) A                  ->    5 (A2) B                   
  0.1934       1 (B2) A                  ->    6 (B2) B                   
 -0.1652       2 (A2) A                  ->    4 (A2) B                   
 -0.1613       3 (A2) A                  ->    6 (A2) B                   
  0.1489       4 (B2) A                  ->    6 (B2) B                   
 -0.1275       2 (B2) A                  ->    6 (B2) B                   
 -0.1240       4 (B2) A                  ->    5 (B2) B                   
  0.1203       2 (B2) A                  ->    7 (B2) B                   
  0.1181       4 (B2) A                  ->    8 (B2) B                   
  0.1152       2 (A2) A                  ->    6 (A2) B                   
  0.1099       4 (B2) A                  ->    7 (B2) B                   
 -0.1053       3 (A2) A                  ->    4 (A2) B                   
 -0.1037       3 (B2) A                  ->    6 (B2) B                   

              Summary of significant orbitals:

               Number  Type             Irrep      Energy
               39      Occ  Alpha       1 (A2)     -0.4418
               45      Occ  Alpha       2 (A2)     -0.2954
               47      Occ  Alpha       3 (A2)     -0.2123
               35      Occ  Alpha       1 (B2)     -0.5229
               40      Occ  Alpha       2 (B2)     -0.4288
               44      Occ  Alpha       3 (B2)     -0.3305
               46      Occ  Alpha       4 (B2)     -0.2814
               50      Vir  Beta        4 (A2)      0.2661
               51      Vir  Beta        5 (A2)      0.3182
               54      Vir  Beta        6 (A2)      0.5302
               48      Vir  Beta        5 (B2)      0.1389
               49      Vir  Beta        6 (B2)      0.2266
               52      Vir  Beta        7 (B2)      0.3699
               53      Vir  Beta        8 (B2)      0.5052


 EOMSF transition 9/A1
 Total energy = -565.20919529 a.u.  Excitation energy = 8.8799 eV.
 R1^2 = 0.8097  R2^2 = 0.1903  Res^2 = 6.03e-06
 Conv-d = yes

 Amplitude    Transitions between orbitals
  0.4782       4 (B2) A                  ->    6 (B2) B                   
 -0.4500       2 (A2) A                  ->    4 (A2) B                   
 -0.3118       3 (A2) A                  ->    5 (A2) B                   
  0.2944       3 (B2) A                  ->    6 (B2) B                   
 -0.2372       1 (B2) A                  ->    5 (B2) B                   
 -0.2001       2 (B2) A                  ->    5 (B2) B                   
  0.1674       2 (B2) A                  ->    7 (B2) B                   
  0.1483       1 (A2) A                  ->    5 (A2) B                   

              Summary of significant orbitals:

               Number  Type             Irrep      Energy
               39      Occ  Alpha       1 (A2)     -0.4418
               45      Occ  Alpha       2 (A2)     -0.2954
               47      Occ  Alpha       3 (A2)     -0.2123
               35      Occ  Alpha       1 (B2)     -0.5229
               40      Occ  Alpha       2 (B2)     -0.4288
               44      Occ  Alpha       3 (B2)     -0.3305
               46      Occ  Alpha       4 (B2)     -0.2814
               50      Vir  Beta        4 (A2)      0.2661
               51      Vir  Beta        5 (A2)      0.3182
               48      Vir  Beta        5 (B2)      0.1389
               49      Vir  Beta        6 (B2)      0.2266
               52      Vir  Beta        7 (B2)      0.3699


 EOMSF transition 10/A1
 Total energy = -565.18309454 a.u.  Excitation energy = 9.5901 eV.
 R1^2 = 0.7975  R2^2 = 0.2025  Res^2 = 4.00e-06
 Conv-d = yes

 Amplitude    Transitions between orbitals
  0.4011       2 (A2) A                  ->    4 (A2) B                   
  0.3986       3 (B2) A                  ->    6 (B2) B                   
 -0.3691       2 (B2) A                  ->    6 (B2) B                   
 -0.2863       1 (A2) A                  ->    4 (A2) B                   
 -0.2217       3 (A2) A                  ->    5 (A2) B                   
  0.2022       2 (A2) A                  ->    6 (A2) B                   
  0.1904       1 (B2) A                  ->    6 (B2) B                   
 -0.1738       3 (A2) A                  ->    4 (A2) B                   
  0.1377       4 (B2) A                  ->    8 (B2) B                   
  0.1332       4 (B2) A                  ->    5 (B2) B                   
 -0.1233       2 (A2) A                  ->    5 (A2) B                   
  0.1009       4 (B2) A                  ->    7 (B2) B                   

              Summary of significant orbitals:

               Number  Type             Irrep      Energy
               39      Occ  Alpha       1 (A2)     -0.4418
               45      Occ  Alpha       2 (A2)     -0.2954
               47      Occ  Alpha       3 (A2)     -0.2123
               35      Occ  Alpha       1 (B2)     -0.5229
               40      Occ  Alpha       2 (B2)     -0.4288
               44      Occ  Alpha       3 (B2)     -0.3305
               46      Occ  Alpha       4 (B2)     -0.2814
               50      Vir  Beta        4 (A2)      0.2661
               51      Vir  Beta        5 (A2)      0.3182
               54      Vir  Beta        6 (A2)      0.5302
               48      Vir  Beta        5 (B2)      0.1389
               49      Vir  Beta        6 (B2)      0.2266
               52      Vir  Beta        7 (B2)      0.3699
               53      Vir  Beta        8 (B2)      0.5052


Running a double precision version
      EOM-CCSD/MP2 left amplitudes will be solved using Davidson.
        Amplitudes will be solved using MOM  algorithm.
     Hard-coded thresholds: 
     LinDepThresh=1.00e-15  NormThresh=1.00e-06  ReorthogonThresh=1.00e-02

      Roots     MaxVec    MaxIter   Precond   Conv      Shift    
      10        120       60        1         1.00e-05  0.00e+00  
 ------------------------------------------------------------------------------
      Iter ConvRoots NVecs ResNorm^2 Current eigenvalues (eV)
 ------------------------------------------------------------------------------
      0    0      10    1.97e-03   3.4681   4.7803   5.3347   5.5936   6.8854   7.2902   7.9024   8.2239   8.8799   9.5901   
      1    0      20    1.63e-04   3.4681   4.7802   5.3347   5.5935   6.8854   7.2902   7.9024   8.2238   8.8798   9.5900   
      2    1      30    2.19e-05   3.4680   4.7802   5.3347*  5.5935   6.8854   7.2902   7.9024   8.2238   8.8799   9.5900   
      3    9      39    5.64e-06   3.4680*  4.7802*  5.3347*  5.5935*  6.8854*  7.2901*  7.9023*  8.2238*  8.8798*  9.5900   
      4    10     40    4.83e-06   3.4680*  4.7802*  5.3347*  5.5935*  6.8854*  7.2901*  7.9023*  8.2238*  8.8798*  9.5900*  

     Davidson procedure converged

 EOMSF-CCSD transition 1/A1
S^2 calculation will be performed in  double precision
 EOMSF-CCSD transition 2/A1
S^2 calculation will be performed in  double precision
 EOMSF-CCSD transition 3/A1
S^2 calculation will be performed in  double precision
 EOMSF-CCSD transition 4/A1
S^2 calculation will be performed in  double precision
 EOMSF-CCSD transition 5/A1
S^2 calculation will be performed in  double precision
 EOMSF-CCSD transition 6/A1
S^2 calculation will be performed in  double precision
 EOMSF-CCSD transition 7/A1
S^2 calculation will be performed in  double precision
 EOMSF-CCSD transition 8/A1
S^2 calculation will be performed in  double precision
 EOMSF-CCSD transition 9/A1
S^2 calculation will be performed in  double precision
 EOMSF-CCSD transition 10/A1
S^2 calculation will be performed in  double precision
 Excited state properties for  EOMSF-CCSD transition 1/A1
 Dipole moment (a.u.): 0.808952 (X 0.000000, Y 0.000000, Z -0.808952)
 R-squared (a.u.): 2535.377537 (XX 1717.284274, YY 55.835147, ZZ 762.258116)
 Gauge origin (a.u.): (0.000000, 0.000000, 0.000000)
 Angular momentum (a.u.) against gauge origin: 
 (X 0.000000i, Y 0.000000i, Z 0.000000i)
 Traces of the OPDMs: Tr(AA) 46.000000, Tr(BB) 48.000000
 <S^2> = 2.000000

 Excited state properties for  EOMSF-CCSD transition 2/A1
 Dipole moment (a.u.): 0.599052 (X 0.000000, Y 0.000000, Z -0.599052)
 R-squared (a.u.): 2535.300949 (XX 1716.238909, YY 55.729880, ZZ 763.332159)
 Gauge origin (a.u.): (0.000000, 0.000000, 0.000000)
 Angular momentum (a.u.) against gauge origin: 
 (X 0.000000i, Y 0.000000i, Z 0.000000i)
 Traces of the OPDMs: Tr(AA) 46.000000, Tr(BB) 48.000000
 <S^2> = 2.000000

 Excited state properties for  EOMSF-CCSD transition 3/A1
 Dipole moment (a.u.): 0.705928 (X 0.000000, Y 0.000000, Z -0.705928)
 R-squared (a.u.): 2536.201062 (XX 1717.630019, YY 55.716026, ZZ 762.855017)
 Gauge origin (a.u.): (0.000000, 0.000000, 0.000000)
 Angular momentum (a.u.) against gauge origin: 
 (X 0.000000i, Y 0.000000i, Z 0.000000i)
 Traces of the OPDMs: Tr(AA) 46.000000, Tr(BB) 48.000000
 <S^2> = 2.000000

 Excited state properties for  EOMSF-CCSD transition 4/A1
 Dipole moment (a.u.): 0.631114 (X 0.000000, Y 0.000000, Z -0.631114)
 R-squared (a.u.): 2536.681119 (XX 1717.891452, YY 55.729079, ZZ 763.060588)
 Gauge origin (a.u.): (0.000000, 0.000000, 0.000000)
 Angular momentum (a.u.) against gauge origin: 
 (X 0.000000i, Y 0.000000i, Z 0.000000i)
 Traces of the OPDMs: Tr(AA) 46.000000, Tr(BB) 48.000000
 <S^2> = 2.000000

 Excited state properties for  EOMSF-CCSD transition 5/A1
 Dipole moment (a.u.): 1.135817 (X 0.000000, Y 0.000000, Z -1.135817)
 R-squared (a.u.): 2534.097877 (XX 1715.018078, YY 55.735026, ZZ 763.344773)
 Gauge origin (a.u.): (0.000000, 0.000000, 0.000000)
 Angular momentum (a.u.) against gauge origin: 
 (X 0.000000i, Y 0.000000i, Z 0.000000i)
 Traces of the OPDMs: Tr(AA) 46.000000, Tr(BB) 48.000000
 <S^2> = 2.000000

 Excited state properties for  EOMSF-CCSD transition 6/A1
 Dipole moment (a.u.): 1.140552 (X 0.000000, Y 0.000000, Z -1.140552)
 R-squared (a.u.): 2536.521930 (XX 1716.698429, YY 55.662865, ZZ 764.160636)
 Gauge origin (a.u.): (0.000000, 0.000000, 0.000000)
 Angular momentum (a.u.) against gauge origin: 
 (X 0.000000i, Y 0.000000i, Z 0.000000i)
 Traces of the OPDMs: Tr(AA) 46.000000, Tr(BB) 48.000000
 <S^2> = 2.000000

 Excited state properties for  EOMSF-CCSD transition 7/A1
 Dipole moment (a.u.): 0.754240 (X 0.000000, Y 0.000000, Z -0.754240)
 R-squared (a.u.): 2537.599792 (XX 1718.512317, YY 55.611402, ZZ 763.476073)
 Gauge origin (a.u.): (0.000000, 0.000000, 0.000000)
 Angular momentum (a.u.) against gauge origin: 
 (X 0.000000i, Y 0.000000i, Z 0.000000i)
 Traces of the OPDMs: Tr(AA) 46.000000, Tr(BB) 48.000000
 <S^2> = 2.000000

 Excited state properties for  EOMSF-CCSD transition 8/A1
 Dipole moment (a.u.): 0.753352 (X 0.000000, Y 0.000000, Z -0.753352)
 R-squared (a.u.): 2535.198765 (XX 1715.742970, YY 55.670693, ZZ 763.785102)
 Gauge origin (a.u.): (0.000000, 0.000000, 0.000000)
 Angular momentum (a.u.) against gauge origin: 
 (X 0.000000i, Y 0.000000i, Z 0.000000i)
 Traces of the OPDMs: Tr(AA) 46.000000, Tr(BB) 48.000000
 <S^2> = 2.000000

 Excited state properties for  EOMSF-CCSD transition 9/A1
 Dipole moment (a.u.): 0.959402 (X 0.000000, Y 0.000000, Z -0.959402)
 R-squared (a.u.): 2536.266847 (XX 1717.589113, YY 55.708159, ZZ 762.969575)
 Gauge origin (a.u.): (0.000000, 0.000000, 0.000000)
 Angular momentum (a.u.) against gauge origin: 
 (X 0.000000i, Y 0.000000i, Z 0.000000i)
 Traces of the OPDMs: Tr(AA) 46.000000, Tr(BB) 48.000000
 <S^2> = 2.000000

 Excited state properties for  EOMSF-CCSD transition 10/A1
 Dipole moment (a.u.): 0.787919 (X 0.000000, Y 0.000000, Z -0.787919)
 R-squared (a.u.): 2536.924137 (XX 1717.548104, YY 55.642401, ZZ 763.733633)
 Gauge origin (a.u.): (0.000000, 0.000000, 0.000000)
 Angular momentum (a.u.) against gauge origin: 
 (X 0.000000i, Y 0.000000i, Z 0.000000i)
 Traces of the OPDMs: Tr(AA) 46.000000, Tr(BB) 48.000000
 <S^2> = 2.000000

        Solving for EOMSF-CCSD A2 transitions.

Running a double precision version
       EOMSF-CCSD/MP2 right amplitudes will be solved using Davidson.
        Amplitudes will be solved using standard  algorithm.
     Hard-coded thresholds: 
     LinDepThresh=1.00e-15  NormThresh=1.00e-06  ReorthogonThresh=1.00e-02

      Roots     MaxVec    MaxIter   Precond   Conv      Shift    
      10        120       60        1         1.00e-05  0.00e+00  
 ------------------------------------------------------------------------------
      Iter ConvRoots NVecs ResNorm^2 Current eigenvalues (eV)
 ------------------------------------------------------------------------------
      0    0      20    1.58e-01   5.2610   11.0892   12.0204   12.6602   13.2250   14.1518   14.5319   14.9870   15.4070   15.8720   
      1    0      30    1.84e-02   2.6035   7.2411   8.3804   9.2653   9.9277   10.4807   10.8859   11.1409   11.4621   12.0824   
      2    0      40    4.48e-03   2.1470   6.4415   7.8569   8.4782   9.3231   9.6641   10.2258   10.4382   10.7210   11.3955   
      3    0      50    1.52e-03   2.0849   6.3115   7.7716   8.2590   9.1437   9.5142   10.1021   10.3020   10.5227   11.2355   
      4    0      60    8.00e-04   2.0710   6.2815   7.7512   8.1798   9.0049   9.4592   10.0679   10.2420   10.4490   11.1835   
      5    0      70    5.21e-04   2.0678   6.2750   7.7426   8.1271   8.8575   9.4286   10.0423   10.1945   10.4098   11.1451   
      6    1      80    7.39e-04   2.0675*  6.2733   7.7399   8.1002   8.7924   9.4179   10.0244   10.1673   10.3899   10.9593   
Found complex roots...
      7    3      89    3.41e-04   2.0675*  6.2730*  7.7391*  8.0895   8.7636   9.4132   10.0130   10.1511   10.3778   10.7664   
Found complex roots...
      8    3      96    1.81e-04   2.0675*  6.2730*  7.7390*  8.0854   8.7515   9.4109   10.0048   10.1421   10.3697   10.6785   
      9    3      103   8.94e-05   2.0675*  6.2730*  7.7390*  8.0846   8.7474   9.4100   9.9992   10.1368   10.3649   10.6373   
      10   5      110   6.83e-05   2.0675*  6.2730*  7.7390*  8.0843*  8.7452   9.4094*  9.9950   10.1331   10.3616   10.6105   
Found complex roots...
      11   5      115   7.65e-05   2.0675*  6.2730*  7.7390*  8.0841*  8.7442   9.4091*  9.9909   10.1301   10.3584   10.5832   
Found complex roots...
      12   6      120   6.87e-05   2.0675*  6.2730*  7.7390*  8.0841*  8.7438*  9.4088*  9.9874   10.1272   10.3549   10.5525   
      13   6      14    2.14e-05   2.0675*  6.2730*  7.7390*  8.0841*  8.7436*  9.4087*  9.9861   10.1262   10.3532   10.5414   
      14   8      18    1.28e-05   2.0675*  6.2730*  7.7390*  8.0841*  8.7435*  9.4087*  9.9853*  10.1255*  10.3524   10.5355   
      15   9      20    7.25e-06   2.0675*  6.2730*  7.7390*  8.0841*  8.7436*  9.4087*  9.9849*  10.1251*  10.3518*  10.5311   
      16   9      21    5.07e-06   2.0675*  6.2730*  7.7390*  8.0841*  8.7436*  9.4086*  9.9847*  10.1249*  10.3515*  10.5292   
      17   9      22    4.18e-06   2.0675*  6.2730*  7.7390*  8.0841*  8.7436*  9.4086*  9.9846*  10.1248*  10.3514*  10.5279   
      18   9      23    4.16e-06   2.0675*  6.2730*  7.7390*  8.0841*  8.7436*  9.4087*  9.9844*  10.1247*  10.3510*  10.5261   
      19   9      24    3.88e-06   2.0675*  6.2730*  7.7390*  8.0842*  8.7436*  9.4086*  9.9842*  10.1245*  10.3509*  10.5240   
      20   9      25    3.13e-06   2.0675*  6.2731*  7.7390*  8.0842*  8.7436*  9.4087*  9.9843*  10.1245*  10.3504*  10.5218   
      21   9      26    2.65e-06   2.0675*  6.2730*  7.7389*  8.0842*  8.7436*  9.4086*  9.9841*  10.1244*  10.3505*  10.5203   
      22   9      27    1.93e-06   2.0675*  6.2731*  7.7390*  8.0842*  8.7436*  9.4087*  9.9842*  10.1244*  10.3502*  10.5191   
      23   9      28    1.46e-06   2.0675*  6.2730*  7.7390*  8.0842*  8.7436*  9.4087*  9.9842*  10.1244*  10.3502*  10.5180   
      24   10     29    1.20e-06   2.0675*  6.2730*  7.7389*  8.0842*  8.7436*  9.4087*  9.9842*  10.1244*  10.3501*  10.5171*  

     Davidson procedure converged

 EOMSF transition 1/A2
 Total energy = -565.45954675 a.u.  Excitation energy = 2.0675 eV.
 R1^2 = 0.9234  R2^2 = 0.0766  Res^2 = 5.10e-07
 Conv-d = yes

 Amplitude    Transitions between orbitals
 -0.8017       18 (B1) A                 ->    5 (B2) B                   
  0.2942       18 (B1) A                 ->    6 (B2) B                   
  0.2767       18 (B1) A                 ->    7 (B2) B                   
  0.1835       16 (B1) A                 ->    5 (B2) B                   
  0.1218       17 (B1) A                 ->    5 (B2) B                   
 -0.1043       18 (B1) A                 ->    8 (B2) B                   

              Summary of significant orbitals:

               Number  Type             Irrep      Energy
               37      Occ  Alpha      16 (B1)     -0.4793
               42      Occ  Alpha      17 (B1)     -0.4248
               43      Occ  Alpha      18 (B1)     -0.3310
               48      Vir  Beta        5 (B2)      0.1389
               49      Vir  Beta        6 (B2)      0.2266
               52      Vir  Beta        7 (B2)      0.3699
               53      Vir  Beta        8 (B2)      0.5052


 EOMSF transition 2/A2
 Total energy = -565.30499488 a.u.  Excitation energy = 6.2730 eV.
 R1^2 = 0.8379  R2^2 = 0.1621  Res^2 = 7.62e-07
 Conv-d = yes

 Amplitude    Transitions between orbitals
 -0.7458       18 (B1) A                 ->    6 (B2) B                   
 -0.4280       18 (B1) A                 ->    5 (B2) B                   
 -0.1951       18 (B1) A                 ->    7 (B2) B                   
  0.1062       18 (B1) A                 ->    8 (B2) B                   

              Summary of significant orbitals:

               Number  Type             Irrep      Energy
               43      Occ  Alpha      18 (B1)     -0.3310
               48      Vir  Beta        5 (B2)      0.1389
               49      Vir  Beta        6 (B2)      0.2266
               52      Vir  Beta        7 (B2)      0.3699
               53      Vir  Beta        8 (B2)      0.5052


 EOMSF transition 3/A2
 Total energy = -565.25112365 a.u.  Excitation energy = 7.7389 eV.
 R1^2 = 0.8815  R2^2 = 0.1185  Res^2 = 9.98e-07
 Conv-d = yes

 Amplitude    Transitions between orbitals
  0.7908       17 (B1) A                 ->    5 (B2) B                   
 -0.2533       18 (B1) A                 ->    6 (B2) B                   
  0.1712       18 (B1) A                 ->    7 (B2) B                   
  0.1620       18 (B1) A                 ->    5 (B2) B                   
 -0.1612       22 (A1) A                 ->    4 (A2) B                   
  0.1441       16 (B1) A                 ->    5 (B2) B                   
  0.1102       15 (B1) A                 ->    5 (B2) B                   
  0.1027       14 (B1) A                 ->    5 (B2) B                   
 -0.1017       13 (B1) A                 ->    5 (B2) B                   

              Summary of significant orbitals:

               Number  Type             Irrep      Energy
               41      Occ  Alpha      22 (A1)     -0.4276
               31      Occ  Alpha      13 (B1)     -0.5762
               32      Occ  Alpha      14 (B1)     -0.5580
               34      Occ  Alpha      15 (B1)     -0.5235
               37      Occ  Alpha      16 (B1)     -0.4793
               42      Occ  Alpha      17 (B1)     -0.4248
               43      Occ  Alpha      18 (B1)     -0.3310
               50      Vir  Beta        4 (A2)      0.2661
               48      Vir  Beta        5 (B2)      0.1389
               49      Vir  Beta        6 (B2)      0.2266
               52      Vir  Beta        7 (B2)      0.3699


 EOMSF transition 4/A2
 Total energy = -565.23843735 a.u.  Excitation energy = 8.0842 eV.
 R1^2 = 0.7949  R2^2 = 0.2051  Res^2 = 9.57e-08
 Conv-d = yes

 Amplitude    Transitions between orbitals
 -0.5297       18 (B1) A                 ->    7 (B2) B                   
  0.3804       17 (B1) A                 ->    5 (B2) B                   
 -0.2871       16 (B1) A                 ->    5 (B2) B                   
  0.2762       18 (B1) A                 ->    6 (B2) B                   
  0.2277       18 (B1) A                 ->    8 (B2) B                   
 -0.1706       18 (B1) A                 ->    5 (B2) B                   
  0.1428       15 (B1) A                 ->    5 (B2) B                   
 -0.1024       12 (B1) A                 ->    5 (B2) B                   
 -0.1016       14 (B1) A                 ->    5 (B2) B                   

              Summary of significant orbitals:

               Number  Type             Irrep      Energy
               28      Occ  Alpha      12 (B1)     -0.6409
               32      Occ  Alpha      14 (B1)     -0.5580
               34      Occ  Alpha      15 (B1)     -0.5235
               37      Occ  Alpha      16 (B1)     -0.4793
               42      Occ  Alpha      17 (B1)     -0.4248
               43      Occ  Alpha      18 (B1)     -0.3310
               48      Vir  Beta        5 (B2)      0.1389
               49      Vir  Beta        6 (B2)      0.2266
               52      Vir  Beta        7 (B2)      0.3699
               53      Vir  Beta        8 (B2)      0.5052


 EOMSF transition 5/A2
 Total energy = -565.21420251 a.u.  Excitation energy = 8.7436 eV.
 R1^2 = 0.6362  R2^2 = 0.3638  Res^2 = 4.61e-08
 Conv-d = yes

 Amplitude    Transitions between orbitals
 -0.6012       16 (B1) A                 ->    5 (B2) B                   
  0.2730       18 (B1) A                 ->    7 (B2) B                   
 -0.1894       14 (B1) A                 ->    5 (B2) B                   
 -0.1608       12 (B1) A                 ->    5 (B2) B                   
  0.1472       13 (B1) A                 ->    5 (B2) B                   
  0.1401       15 (B1) A                 ->    5 (B2) B                   
 -0.1350       18 (B1) A                 ->    5 (B2) B                   
 -0.1060       22 (A1) A                 ->    4 (A2) B                   

              Summary of significant orbitals:

               Number  Type             Irrep      Energy
               41      Occ  Alpha      22 (A1)     -0.4276
               28      Occ  Alpha      12 (B1)     -0.6409
               31      Occ  Alpha      13 (B1)     -0.5762
               32      Occ  Alpha      14 (B1)     -0.5580
               34      Occ  Alpha      15 (B1)     -0.5235
               37      Occ  Alpha      16 (B1)     -0.4793
               43      Occ  Alpha      18 (B1)     -0.3310
               50      Vir  Beta        4 (A2)      0.2661
               48      Vir  Beta        5 (B2)      0.1389
               52      Vir  Beta        7 (B2)      0.3699


 EOMSF transition 6/A2
 Total energy = -565.18976317 a.u.  Excitation energy = 9.4087 eV.
 R1^2 = 0.8665  R2^2 = 0.1335  Res^2 = 1.59e-07
 Conv-d = yes

 Amplitude    Transitions between orbitals
  0.7846       17 (B1) A                 ->    6 (B2) B                   
  0.3568       22 (A1) A                 ->    4 (A2) B                   
  0.2053       22 (A1) A                 ->    5 (A2) B                   
 -0.1088       21 (A1) A                 ->    5 (A2) B                   

              Summary of significant orbitals:

               Number  Type             Irrep      Energy
               38      Occ  Alpha      21 (A1)     -0.4646
               41      Occ  Alpha      22 (A1)     -0.4276
               42      Occ  Alpha      17 (B1)     -0.4248
               50      Vir  Beta        4 (A2)      0.2661
               51      Vir  Beta        5 (A2)      0.3182
               49      Vir  Beta        6 (B2)      0.2266


 EOMSF transition 7/A2
 Total energy = -565.16861326 a.u.  Excitation energy = 9.9842 eV.
 R1^2 = 0.7546  R2^2 = 0.2454  Res^2 = 1.10e-07
 Conv-d = yes

 Amplitude    Transitions between orbitals
  0.4514       16 (B1) A                 ->    5 (B2) B                   
  0.4014       16 (B1) A                 ->    6 (B2) B                   
  0.3984       15 (B1) A                 ->    5 (B2) B                   
 -0.2460       22 (A1) A                 ->    5 (A2) B                   
 -0.1780       21 (A1) A                 ->    5 (A2) B                   
 -0.1568       17 (B1) A                 ->    6 (B2) B                   
 -0.1487       18 (B1) A                 ->    7 (B2) B                   
 -0.1193       20 (A1) A                 ->    5 (A2) B                   
  0.1087       18 (B1) A                 ->    6 (B2) B                   

              Summary of significant orbitals:

               Number  Type             Irrep      Energy
               36      Occ  Alpha      20 (A1)     -0.5106
               38      Occ  Alpha      21 (A1)     -0.4646
               41      Occ  Alpha      22 (A1)     -0.4276
               34      Occ  Alpha      15 (B1)     -0.5235
               37      Occ  Alpha      16 (B1)     -0.4793
               42      Occ  Alpha      17 (B1)     -0.4248
               43      Occ  Alpha      18 (B1)     -0.3310
               51      Vir  Beta        5 (A2)      0.3182
               48      Vir  Beta        5 (B2)      0.1389
               49      Vir  Beta        6 (B2)      0.2266
               52      Vir  Beta        7 (B2)      0.3699


 EOMSF transition 8/A2
 Total energy = -565.16346107 a.u.  Excitation energy = 10.1244 eV.
 R1^2 = 0.8076  R2^2 = 0.1924  Res^2 = 1.13e-07
 Conv-d = yes

 Amplitude    Transitions between orbitals
 -0.6856       15 (B1) A                 ->    5 (B2) B                   
 -0.2198       22 (A1) A                 ->    4 (A2) B                   
  0.1724       16 (B1) A                 ->    5 (B2) B                   
  0.1688       17 (B1) A                 ->    7 (B2) B                   
 -0.1610       20 (A1) A                 ->    4 (A2) B                   
  0.1554       16 (B1) A                 ->    6 (B2) B                   
 -0.1533       21 (A1) A                 ->    5 (A2) B                   
 -0.1336       14 (B1) A                 ->    5 (B2) B                   
 -0.1255       15 (B1) A                 ->    7 (B2) B                   
 -0.1206       18 (B1) A                 ->    7 (B2) B                   
 -0.1055       17 (A1) A                 ->    5 (A2) B                   
  0.1033       20 (A1) A                 ->    5 (A2) B                   

              Summary of significant orbitals:

               Number  Type             Irrep      Energy
               29      Occ  Alpha      17 (A1)     -0.5987
               36      Occ  Alpha      20 (A1)     -0.5106
               38      Occ  Alpha      21 (A1)     -0.4646
               41      Occ  Alpha      22 (A1)     -0.4276
               32      Occ  Alpha      14 (B1)     -0.5580
               34      Occ  Alpha      15 (B1)     -0.5235
               37      Occ  Alpha      16 (B1)     -0.4793
               42      Occ  Alpha      17 (B1)     -0.4248
               43      Occ  Alpha      18 (B1)     -0.3310
               50      Vir  Beta        4 (A2)      0.2661
               51      Vir  Beta        5 (A2)      0.3182
               48      Vir  Beta        5 (B2)      0.1389
               49      Vir  Beta        6 (B2)      0.2266
               52      Vir  Beta        7 (B2)      0.3699


 EOMSF transition 9/A2
 Total energy = -565.15516452 a.u.  Excitation energy = 10.3501 eV.
 R1^2 = 0.8022  R2^2 = 0.1978  Res^2 = 4.88e-07
 Conv-d = yes

 Amplitude    Transitions between orbitals
 -0.4908       16 (B1) A                 ->    6 (B2) B                   
  0.4317       22 (A1) A                 ->    4 (A2) B                   
  0.4139       21 (A1) A                 ->    4 (A2) B                   
 -0.1951       17 (B1) A                 ->    6 (B2) B                   
 -0.1430       18 (B1) A                 ->    7 (B2) B                   
  0.1410       16 (B1) A                 ->    7 (B2) B                   
  0.1266       17 (B1) A                 ->    5 (B2) B                   
  0.1246       13 (B1) A                 ->    5 (B2) B                   
 -0.1116       14 (B1) A                 ->    5 (B2) B                   
  0.1078       21 (A1) A                 ->    5 (A2) B                   

              Summary of significant orbitals:

               Number  Type             Irrep      Energy
               38      Occ  Alpha      21 (A1)     -0.4646
               41      Occ  Alpha      22 (A1)     -0.4276
               31      Occ  Alpha      13 (B1)     -0.5762
               32      Occ  Alpha      14 (B1)     -0.5580
               37      Occ  Alpha      16 (B1)     -0.4793
               42      Occ  Alpha      17 (B1)     -0.4248
               43      Occ  Alpha      18 (B1)     -0.3310
               50      Vir  Beta        4 (A2)      0.2661
               51      Vir  Beta        5 (A2)      0.3182
               48      Vir  Beta        5 (B2)      0.1389
               49      Vir  Beta        6 (B2)      0.2266
               52      Vir  Beta        7 (B2)      0.3699


 EOMSF transition 10/A2
 Total energy = -565.14902721 a.u.  Excitation energy = 10.5171 eV.
 R1^2 = 0.5888  R2^2 = 0.4112  Res^2 = 8.69e-06
 Conv-d = yes

 Amplitude    Transitions between orbitals
 -0.3239       18 (B1) A                 ->    7 (B2) B                   
  0.3004       14 (B1) A                 ->    5 (B2) B                   
 -0.2626       13 (B1) A                 ->    5 (B2) B                   
 -0.2435       21 (A1) A                 ->    4 (A2) B                   
 -0.2204       22 (A1) A                 ->    4 (A2) B                   
  0.1854       21 (A1) A                 ->    5 (A2) B                   
 -0.1836       16 (B1) A                 ->    6 (B2) B                   
 -0.1589       16 (B1) A                 ->    7 (B2) B                   
  0.1561       15 (B1) A                 ->    6 (B2) B                   
  0.1288       12 (B1) A                 ->    5 (B2) B                   
  0.1121       13 (B1) A                 ->    6 (B2) B                   
 -0.1790       3 (B2) A      18 (B1) B   ->    5 (B2) B      6 (B2) B     
  0.1790       3 (B2) A      18 (B1) B   ->    6 (B2) B      5 (B2) B     
  0.1790       18 (B1) B     3 (B2) A    ->    5 (B2) B      6 (B2) B     
 -0.1790       18 (B1) B     3 (B2) A    ->    6 (B2) B      5 (B2) B     
 -0.1724       18 (B1) A     3 (B2) A    ->    5 (B2) A      5 (B2) B     
  0.1724       18 (B1) A     3 (B2) A    ->    5 (B2) B      5 (B2) A     
  0.1724       3 (B2) A      18 (B1) A   ->    5 (B2) A      5 (B2) B     
 -0.1724       3 (B2) A      18 (B1) A   ->    5 (B2) B      5 (B2) A     
  0.1529       3 (A2) A      18 (B1) B   ->    5 (A2) B      5 (B2) B     
 -0.1529       3 (A2) A      18 (B1) B   ->    5 (B2) B      5 (A2) B     
 -0.1529       18 (B1) B     3 (A2) A    ->    5 (A2) B      5 (B2) B     
  0.1529       18 (B1) B     3 (A2) A    ->    5 (B2) B      5 (A2) B     
 -0.1257       2 (A2) A      18 (B1) B   ->    4 (A2) B      5 (B2) B     
  0.1257       2 (A2) A      18 (B1) B   ->    5 (B2) B      4 (A2) B     
  0.1257       18 (B1) B     2 (A2) A    ->    4 (A2) B      5 (B2) B     
 -0.1257       18 (B1) B     2 (A2) A    ->    5 (B2) B      4 (A2) B     
 -0.1129       18 (B1) A     3 (B2) B    ->    5 (B2) B      6 (B2) B     
  0.1129       18 (B1) A     3 (B2) B    ->    6 (B2) B      5 (B2) B     
  0.1129       3 (B2) B      18 (B1) A   ->    5 (B2) B      6 (B2) B     
 -0.1129       3 (B2) B      18 (B1) A   ->    6 (B2) B      5 (B2) B     
  0.1064       18 (B1) A     3 (A2) B    ->    5 (A2) B      5 (B2) B     
 -0.1064       18 (B1) A     3 (A2) B    ->    5 (B2) B      5 (A2) B     
 -0.1064       3 (A2) B      18 (B1) A   ->    5 (A2) B      5 (B2) B     
  0.1064       3 (A2) B      18 (B1) A   ->    5 (B2) B      5 (A2) B     
  0.1010       3 (A2) A      18 (B1) A   ->    5 (A2) A      5 (B2) B     
 -0.1010       3 (A2) A      18 (B1) A   ->    5 (B2) B      5 (A2) A     
 -0.1010       18 (B1) A     3 (A2) A    ->    5 (A2) A      5 (B2) B     
  0.1010       18 (B1) A     3 (A2) A    ->    5 (B2) B      5 (A2) A     

              Summary of significant orbitals:

               Number  Type             Irrep      Energy
               38      Occ  Alpha      21 (A1)     -0.4646
               41      Occ  Alpha      22 (A1)     -0.4276
               45      Occ  Alpha       2 (A2)     -0.2954
               47      Occ  Alpha       3 (A2)     -0.2123
               28      Occ  Alpha      12 (B1)     -0.6409
               31      Occ  Alpha      13 (B1)     -0.5762
               32      Occ  Alpha      14 (B1)     -0.5580
               34      Occ  Alpha      15 (B1)     -0.5235
               37      Occ  Alpha      16 (B1)     -0.4793
               43      Occ  Alpha      18 (B1)     -0.3310
               44      Occ  Alpha       3 (B2)     -0.3305
               47      Occ  Beta        3 (A2)     -0.2123
               43      Occ  Beta       18 (B1)     -0.3310
               44      Occ  Beta        3 (B2)     -0.3305
               51      Vir  Alpha       5 (A2)      0.3182
               48      Vir  Alpha       5 (B2)      0.1389
               50      Vir  Beta        4 (A2)      0.2661
               51      Vir  Beta        5 (A2)      0.3182
               48      Vir  Beta        5 (B2)      0.1389
               49      Vir  Beta        6 (B2)      0.2266
               52      Vir  Beta        7 (B2)      0.3699


Running a double precision version
      EOM-CCSD/MP2 left amplitudes will be solved using Davidson.
        Amplitudes will be solved using MOM  algorithm.
     Hard-coded thresholds: 
     LinDepThresh=1.00e-15  NormThresh=1.00e-06  ReorthogonThresh=1.00e-02

      Roots     MaxVec    MaxIter   Precond   Conv      Shift    
      10        120       60        1         1.00e-05  0.00e+00  
 ------------------------------------------------------------------------------
      Iter ConvRoots NVecs ResNorm^2 Current eigenvalues (eV)
 ------------------------------------------------------------------------------
      0    0      10    4.47e-03   2.0675   6.2730   7.7389   8.0842   8.7436   9.4087   9.9842   10.1244   10.3501   10.5171   
      1    0      20    4.27e-04   2.0675   6.2730   7.7389   8.0842   8.7436   9.4087   9.9842   10.1244   10.3501   10.5169   
      2    0      30    5.60e-05   2.0675   6.2731   7.7389   8.0841   8.7436   9.4087   9.9842   10.1244   10.3502   10.5171   
      3    2      40    1.52e-05   2.0674*  6.2731   7.7388   8.0841   8.7436   9.4087*  9.9842   10.1244   10.3502   10.5171   
      4    8      48    6.52e-06   2.0674*  6.2731*  7.7388*  8.0841*  8.7436   9.4087*  9.9842*  10.1244*  10.3502*  10.5171   
      5    9      50    4.99e-06   2.0674*  6.2731*  7.7388*  8.0841*  8.7436*  9.4087*  9.9842*  10.1244*  10.3502*  10.5170   
      6    10     51    4.31e-06   2.0674*  6.2731*  7.7388*  8.0841*  8.7436*  9.4087*  9.9842*  10.1244*  10.3502*  10.5170*  

     Davidson procedure converged

 EOMSF-CCSD transition 1/A2
S^2 calculation will be performed in  double precision
 EOMSF-CCSD transition 2/A2
S^2 calculation will be performed in  double precision
 EOMSF-CCSD transition 3/A2
S^2 calculation will be performed in  double precision
 EOMSF-CCSD transition 4/A2
S^2 calculation will be performed in  double precision
 EOMSF-CCSD transition 5/A2
S^2 calculation will be performed in  double precision
 EOMSF-CCSD transition 6/A2
S^2 calculation will be performed in  double precision
 EOMSF-CCSD transition 7/A2
S^2 calculation will be performed in  double precision
 EOMSF-CCSD transition 8/A2
S^2 calculation will be performed in  double precision
 EOMSF-CCSD transition 9/A2
S^2 calculation will be performed in  double precision
 EOMSF-CCSD transition 10/A2
S^2 calculation will be performed in  double precision
 Excited state properties for  EOMSF-CCSD transition 1/A2
 Dipole moment (a.u.): 0.202176 (X 0.000000, Y 0.000000, Z 0.202176)
 R-squared (a.u.): 2535.279770 (XX 1720.115113, YY 56.717898, ZZ 758.446759)
 Gauge origin (a.u.): (0.000000, 0.000000, 0.000000)
 Angular momentum (a.u.) against gauge origin: 
 (X 0.000000i, Y 0.000000i, Z 0.000000i)
 Traces of the OPDMs: Tr(AA) 46.000000, Tr(BB) 48.000000
 <S^2> = 2.000000

 Excited state properties for  EOMSF-CCSD transition 2/A2
 Dipole moment (a.u.): 1.499156 (X 0.000000, Y 0.000000, Z 1.499156)
 R-squared (a.u.): 2538.696800 (XX 1726.926096, YY 56.784941, ZZ 754.985762)
 Gauge origin (a.u.): (0.000000, 0.000000, 0.000000)
 Angular momentum (a.u.) against gauge origin: 
 (X 0.000000i, Y 0.000000i, Z 0.000000i)
 Traces of the OPDMs: Tr(AA) 46.000000, Tr(BB) 48.000000
 <S^2> = 2.000000

 Excited state properties for  EOMSF-CCSD transition 3/A2
 Dipole moment (a.u.): 0.869563 (X 0.000000, Y 0.000000, Z -0.869563)
 R-squared (a.u.): 2534.465738 (XX 1716.690962, YY 56.812078, ZZ 760.962698)
 Gauge origin (a.u.): (0.000000, 0.000000, 0.000000)
 Angular momentum (a.u.) against gauge origin: 
 (X 0.000000i, Y 0.000000i, Z 0.000000i)
 Traces of the OPDMs: Tr(AA) 46.000000, Tr(BB) 48.000000
 <S^2> = 2.000000

 Excited state properties for  EOMSF-CCSD transition 4/A2
 Dipole moment (a.u.): 0.427163 (X 0.000000, Y 0.000000, Z 0.427163)
 R-squared (a.u.): 2534.830868 (XX 1719.227910, YY 56.710949, ZZ 758.892010)
 Gauge origin (a.u.): (0.000000, 0.000000, 0.000000)
 Angular momentum (a.u.) against gauge origin: 
 (X 0.000000i, Y 0.000000i, Z 0.000000i)
 Traces of the OPDMs: Tr(AA) 46.000000, Tr(BB) 48.000000
 <S^2> = 2.000000

 Excited state properties for  EOMSF-CCSD transition 5/A2
 Dipole moment (a.u.): 0.218192 (X 0.000000, Y 0.000000, Z -0.218192)
 R-squared (a.u.): 2531.568131 (XX 1714.841375, YY 56.756237, ZZ 759.970519)
 Gauge origin (a.u.): (0.000000, 0.000000, 0.000000)
 Angular momentum (a.u.) against gauge origin: 
 (X 0.000000i, Y 0.000000i, Z 0.000000i)
 Traces of the OPDMs: Tr(AA) 46.000000, Tr(BB) 48.000000
 <S^2> = 2.000000

 Excited state properties for  EOMSF-CCSD transition 6/A2
 Dipole moment (a.u.): 0.703225 (X 0.000000, Y 0.000000, Z -0.703225)
 R-squared (a.u.): 2534.499087 (XX 1716.850810, YY 56.793379, ZZ 760.854897)
 Gauge origin (a.u.): (0.000000, 0.000000, 0.000000)
 Angular momentum (a.u.) against gauge origin: 
 (X 0.000000i, Y 0.000000i, Z 0.000000i)
 Traces of the OPDMs: Tr(AA) 46.000000, Tr(BB) 48.000000
 <S^2> = 2.000000

 Excited state properties for  EOMSF-CCSD transition 7/A2
 Dipole moment (a.u.): 0.618697 (X 0.000000, Y 0.000000, Z -0.618697)
 R-squared (a.u.): 2529.460448 (XX 1712.124228, YY 56.752539, ZZ 760.583681)
 Gauge origin (a.u.): (0.000000, 0.000000, 0.000000)
 Angular momentum (a.u.) against gauge origin: 
 (X 0.000000i, Y 0.000000i, Z 0.000000i)
 Traces of the OPDMs: Tr(AA) 46.000000, Tr(BB) 48.000000
 <S^2> = 2.000008

 Excited state properties for  EOMSF-CCSD transition 8/A2
 Dipole moment (a.u.): 0.745552 (X 0.000000, Y 0.000000, Z -0.745552)
 R-squared (a.u.): 2531.331967 (XX 1713.320436, YY 56.768340, ZZ 761.243191)
 Gauge origin (a.u.): (0.000000, 0.000000, 0.000000)
 Angular momentum (a.u.) against gauge origin: 
 (X 0.000000i, Y 0.000000i, Z 0.000000i)
 Traces of the OPDMs: Tr(AA) 46.000000, Tr(BB) 48.000000
 <S^2> = 2.000010

 Excited state properties for  EOMSF-CCSD transition 9/A2
 Dipole moment (a.u.): 0.682128 (X 0.000000, Y 0.000000, Z -0.682128)
 R-squared (a.u.): 2531.954944 (XX 1714.470398, YY 56.757080, ZZ 760.727466)
 Gauge origin (a.u.): (0.000000, 0.000000, 0.000000)
 Angular momentum (a.u.) against gauge origin: 
 (X 0.000000i, Y 0.000000i, Z 0.000000i)
 Traces of the OPDMs: Tr(AA) 46.000000, Tr(BB) 48.000000
 <S^2> = 2.000037

 Excited state properties for  EOMSF-CCSD transition 10/A2
 Dipole moment (a.u.): 0.044101 (X 0.000000, Y 0.000000, Z -0.044101)
 R-squared (a.u.): 2532.728330 (XX 1717.321569, YY 56.688954, ZZ 758.717806)
 Gauge origin (a.u.): (0.000000, 0.000000, 0.000000)
 Angular momentum (a.u.) against gauge origin: 
 (X 0.000000i, Y 0.000000i, Z 0.000000i)
 Traces of the OPDMs: Tr(AA) 46.000000, Tr(BB) 48.000000
 <S^2> = 2.000413

        Solving for EOMSF-CCSD B1 transitions.

Running a double precision version
       EOMSF-CCSD/MP2 right amplitudes will be solved using Davidson.
        Amplitudes will be solved using standard  algorithm.
     Hard-coded thresholds: 
     LinDepThresh=1.00e-15  NormThresh=1.00e-06  ReorthogonThresh=1.00e-02

      Roots     MaxVec    MaxIter   Precond   Conv      Shift    
      3         120       60        1         1.00e-05  0.00e+00  
 ------------------------------------------------------------------------------
      Iter ConvRoots NVecs ResNorm^2 Current eigenvalues (eV)
 ------------------------------------------------------------------------------
      0    0      6     1.38e-01   6.0547   8.5686   9.4811   
      1    0      9     1.66e-02   3.1760   5.4784   6.1843   
      2    0      12    4.87e-03   2.5088   4.7542   5.3927   
      3    0      15    1.24e-03   2.4265   4.6108   5.1946   
      4    0      18    3.47e-04   2.4140   4.5831   5.1250   
      5    0      21    9.68e-05   2.4103   4.5755   5.0976   
      6    1      24    2.37e-05   2.4093*  4.5736   5.0899   
      7    2      26    6.53e-06   2.4093*  4.5733*  5.0889   
      8    3      27    3.81e-06   2.4093*  4.5733*  5.0885*  

     Davidson procedure converged

 EOMSF transition 1/B1
 Total energy = -565.44698612 a.u.  Excitation energy = 2.4093 eV.
 R1^2 = 0.9135  R2^2 = 0.0865  Res^2 = 5.86e-06
 Conv-d = yes

 Amplitude    Transitions between orbitals
 -0.8608       3 (A2) A                  ->    5 (B2) B                   
 -0.1883       3 (B2) A                  ->    5 (A2) B                   
 -0.1875       3 (A2) A                  ->    6 (B2) B                   
  0.1770       4 (B2) A                  ->    4 (A2) B                   
  0.1352       2 (A2) A                  ->    6 (B2) B                   
 -0.1000       2 (A2) A                  ->    5 (B2) B                   

              Summary of significant orbitals:

               Number  Type             Irrep      Energy
               45      Occ  Alpha       2 (A2)     -0.2954
               47      Occ  Alpha       3 (A2)     -0.2123
               44      Occ  Alpha       3 (B2)     -0.3305
               46      Occ  Alpha       4 (B2)     -0.2814
               50      Vir  Beta        4 (A2)      0.2661
               51      Vir  Beta        5 (A2)      0.3182
               48      Vir  Beta        5 (B2)      0.1389
               49      Vir  Beta        6 (B2)      0.2266


 EOMSF transition 2/B1
 Total energy = -565.36745834 a.u.  Excitation energy = 4.5733 eV.
 R1^2 = 0.8581  R2^2 = 0.1419  Res^2 = 3.34e-06
 Conv-d = yes

 Amplitude    Transitions between orbitals
 -0.6432       3 (A2) A                  ->    6 (B2) B                   
  0.5778       2 (A2) A                  ->    5 (B2) B                   
 -0.1952       4 (B2) A                  ->    4 (A2) B                   
 -0.1778       3 (B2) A                  ->    5 (A2) B                   

              Summary of significant orbitals:

               Number  Type             Irrep      Energy
               45      Occ  Alpha       2 (A2)     -0.2954
               47      Occ  Alpha       3 (A2)     -0.2123
               44      Occ  Alpha       3 (B2)     -0.3305
               46      Occ  Alpha       4 (B2)     -0.2814
               50      Vir  Beta        4 (A2)      0.2661
               51      Vir  Beta        5 (A2)      0.3182
               48      Vir  Beta        5 (B2)      0.1389
               49      Vir  Beta        6 (B2)      0.2266


 EOMSF transition 3/B1
 Total energy = -565.34852647 a.u.  Excitation energy = 5.0885 eV.
 R1^2 = 0.8921  R2^2 = 0.1079  Res^2 = 2.23e-06
 Conv-d = yes

 Amplitude    Transitions between orbitals
  0.5796       2 (A2) A                  ->    6 (B2) B                   
  0.4557       4 (B2) A                  ->    4 (A2) B                   
 -0.2841       2 (A2) A                  ->    5 (B2) B                   
  0.2831       3 (A2) A                  ->    5 (B2) B                   
 -0.2178       3 (A2) A                  ->    6 (B2) B                   
 -0.1748       2 (A2) A                  ->    7 (B2) B                   
 -0.1649       3 (B2) A                  ->    4 (A2) B                   
  0.1473       4 (B2) A                  ->    5 (A2) B                   
 -0.1456       3 (B2) A                  ->    5 (A2) B                   

              Summary of significant orbitals:

               Number  Type             Irrep      Energy
               45      Occ  Alpha       2 (A2)     -0.2954
               47      Occ  Alpha       3 (A2)     -0.2123
               44      Occ  Alpha       3 (B2)     -0.3305
               46      Occ  Alpha       4 (B2)     -0.2814
               50      Vir  Beta        4 (A2)      0.2661
               51      Vir  Beta        5 (A2)      0.3182
               48      Vir  Beta        5 (B2)      0.1389
               49      Vir  Beta        6 (B2)      0.2266
               52      Vir  Beta        7 (B2)      0.3699


Running a double precision version
      EOM-CCSD/MP2 left amplitudes will be solved using Davidson.
        Amplitudes will be solved using MOM  algorithm.
     Hard-coded thresholds: 
     LinDepThresh=1.00e-15  NormThresh=1.00e-06  ReorthogonThresh=1.00e-02

      Roots     MaxVec    MaxIter   Precond   Conv      Shift    
      3         120       60        1         1.00e-05  0.00e+00  
 ------------------------------------------------------------------------------
      Iter ConvRoots NVecs ResNorm^2 Current eigenvalues (eV)
 ------------------------------------------------------------------------------
      0    0      3     1.69e-03   2.4093   4.5733   5.0885   
      1    0      6     1.37e-04   2.4092   4.5732   5.0885   
      2    0      9     1.79e-05   2.4092   4.5732   5.0884   
      3    3      12    2.92e-06   2.4092*  4.5732*  5.0884*  

     Davidson procedure converged

 EOMSF-CCSD transition 1/B1
S^2 calculation will be performed in  double precision
 EOMSF-CCSD transition 2/B1
S^2 calculation will be performed in  double precision
 EOMSF-CCSD transition 3/B1
S^2 calculation will be performed in  double precision
[...]
 <Sz=0.00|(-0.000000,0.000000)(-0.000000,0.000000)(0.000000,0.000000)
 <Sz=1.00|(0.000000,0.000000)(-0.000000,0.000000)(-0.000000,8.049814)
 Singlet part of <S|| Hso(L0) ||S'> = (-0.000000,-0.000000) (excluded from all matrix elements)
 L-/L+ Averaged reduced matrix elements:
 <S|| Hso(L-) ||S'> = (0.000000,-0.000000)
 <S|| Hso(L+) ||S'> = (0.000000,0.000000)
 ______________________________________________________________
 B(Ket)->A(Bra) transition SO matrices
Full 2e SOC is not implemented withing libqints. 
I will do mean-field SOC with libqints, which is usually as good as full 2e SOC
 Analysing Sz ans S^2 of the pair of states...
 Ket state:  Computed S^2 = 2.000763 will be treated as 2.000000 Sz = -1.000000
 Bra state:  Computed S^2 = 2.000000 will be treated as 2.000000 Sz = -1.000000
 Clebsh-Gordan coefficient: <1.000,-1.000;1.000,0.000|1.000,-1.000> = -0.707
 _________________________________________________
 One-electron SO (cm-1)
 Reduced matrix elements:
 <S|| Hso(L-) ||S'> = (-0.000000,0.000000)
 <S|| Hso(L0) ||S'> = (0.000000,-17.902989)
 <S|| Hso(L+) ||S'> = (-0.000000,-0.000000)
 SOCC = 17.902989
 Actual matrix elements:
       |Sz=-1.00>           |Sz=0.00>           |Sz=1.00>
 <Sz=-1.00|(0.000000,12.659325)(-0.000000,-0.000000)(-0.000000,-0.000000)
 <Sz=0.00|(0.000000,-0.000000)(0.000000,-0.000000)(-0.000000,-0.000000)
 <Sz=1.00|(-0.000000,-0.000000)(0.000000,-0.000000)(0.000000,-12.659325)
 _________________________________________________
 Mean-field SO (cm-1)
 Reduced matrix elements:
 <S|| Hso(L-) ||S'> = (-0.000000,0.000000)
 <S|| Hso(L0) ||S'> = (0.000000,-10.745643)
 <S|| Hso(L+) ||S'> = (-0.000000,-0.000000)
 SOCC = 10.745643
 Actual matrix elements:
       |Sz=-1.00>           |Sz=0.00>           |Sz=1.00>
 <Sz=-1.00|(0.000000,7.598317)(-0.000000,-0.000000)(-0.000000,-0.000000)
 <Sz=0.00|(0.000000,-0.000000)(0.000000,-0.000000)(-0.000000,-0.000000)
 <Sz=1.00|(-0.000000,-0.000000)(0.000000,-0.000000)(0.000000,-7.598317)
 Singlet part of <S|| Hso(L0) ||S'> = (-0.000000,-0.000000) (excluded from all matrix elements)
 L-/L+ Averaged reduced matrix elements:
 <S|| Hso(L-) ||S'> = (-0.000000,0.000000)
 <S|| Hso(L+) ||S'> = (-0.000000,-0.000000)
 ______________________________________________________________
   Arithmetically averaged transition SO matrices
   (The phases shown, Ket and Bra assingment are from A(Ket)->B(Bra))
 _________________________________________________
 One-electron SO (cm-1)
 SOCC = 18.447134
 Actual matrix elements:
       |Sz=-1.00>           |Sz=0.00>           |Sz=1.00>
 <Sz=-1.00|(-0.000000,-13.044094)(0.000000,0.000000)(0.000000,0.000000)
 <Sz=0.00|(-0.000000,0.000000)(-0.000000,0.000000)(0.000000,0.000000)
 <Sz=1.00|(-0.000000,0.000000)(-0.000000,0.000000)(-0.000000,13.044094)
 _________________________________________________
 Mean-field SO (cm-1)
 SOCC = 11.064900
 Actual matrix elements:
       |Sz=-1.00>           |Sz=0.00>           |Sz=1.00>
 <Sz=-1.00|(-0.000000,-7.824066)(0.000000,0.000000)(0.000000,0.000000)
 <Sz=0.00|(-0.000000,0.000000)(-0.000000,0.000000)(0.000000,0.000000)
 <Sz=1.00|(-0.000000,0.000000)(-0.000000,0.000000)(-0.000000,7.824066)
 ______________________________________________________________

 ------------------------------------------------------------------------------
 State A: eomsf_mp2: 1/B1
 State B: eomsf_mp2: 9/B2
 Energy GAP = 0.286057 a.u. = 7.784012 eV
 Transition dipole moment (a.u.):
   A->B: 0.000000 (X 0.000000, Y 0.000000, Z 0.000000)
   B->A: 0.000000 (X 0.000000, Y 0.000000, Z 0.000000)
 Oscillator strength (a.u.): 0.000000
 Transition angular momentum against gauge origin (a.u.):
   A->B:  (X 0.000000i, Y 0.000000i, Z -0.035453i)
   B->A:  (X 0.000000i, Y 0.000000i, Z 0.031834i)
 Norm of one-particle transition density matrix:
   A->B: 0.223872;   B->A: 0.214698
   ||gamma^AB||*||gamma^BA||: 0.048065

 ______________________________________________________________
 A(Ket)->B(Bra) transition SO matrices
Full 2e SOC is not implemented withing libqints. 
I will do mean-field SOC with libqints, which is usually as good as full 2e SOC
 Analysing Sz ans S^2 of the pair of states...
 Ket state:  Computed S^2 = 2.000000 will be treated as 2.000000 Sz = -1.000000
 Bra state:  Computed S^2 = 2.000006 will be treated as 2.000000 Sz = -1.000000
 Clebsh-Gordan coefficient: <1.000,-1.000;1.000,0.000|1.000,-1.000> = -0.707
 _________________________________________________
 One-electron SO (cm-1)
 Reduced matrix elements:
 <S|| Hso(L-) ||S'> = (-0.000000,0.000000)
 <S|| Hso(L0) ||S'> = (0.000000,-6.034113)
 <S|| Hso(L+) ||S'> = (-0.000000,-0.000000)
 SOCC = 6.034113
 Actual matrix elements:
       |Sz=-1.00>           |Sz=0.00>           |Sz=1.00>
 <Sz=-1.00|(0.000000,4.266762)(-0.000000,-0.000000)(-0.000000,-0.000000)
 <Sz=0.00|(0.000000,-0.000000)(0.000000,-0.000000)(-0.000000,-0.000000)
 <Sz=1.00|(-0.000000,-0.000000)(0.000000,-0.000000)(0.000000,-4.266762)
 _________________________________________________
 Mean-field SO (cm-1)
 Reduced matrix elements:
 <S|| Hso(L-) ||S'> = (-0.000000,0.000000)
 <S|| Hso(L0) ||S'> = (0.000000,-3.502000)
 <S|| Hso(L+) ||S'> = (-0.000000,-0.000000)
 SOCC = 3.502000
 Actual matrix elements:
       |Sz=-1.00>           |Sz=0.00>           |Sz=1.00>
 <Sz=-1.00|(0.000000,2.476288)(-0.000000,-0.000000)(-0.000000,-0.000000)
 <Sz=0.00|(0.000000,-0.000000)(0.000000,-0.000000)(-0.000000,-0.000000)
 <Sz=1.00|(-0.000000,-0.000000)(0.000000,-0.000000)(0.000000,-2.476288)
 Singlet part of <S|| Hso(L0) ||S'> = (-0.000000,-0.000000) (excluded from all matrix elements)
 L-/L+ Averaged reduced matrix elements:
 <S|| Hso(L-) ||S'> = (-0.000000,0.000000)
 <S|| Hso(L+) ||S'> = (-0.000000,-0.000000)
 ______________________________________________________________
 B(Ket)->A(Bra) transition SO matrices
Full 2e SOC is not implemented withing libqints. 
I will do mean-field SOC with libqints, which is usually as good as full 2e SOC
 Analysing Sz ans S^2 of the pair of states...
 Ket state:  Computed S^2 = 2.000006 will be treated as 2.000000 Sz = -1.000000
 Bra state:  Computed S^2 = 2.000000 will be treated as 2.000000 Sz = -1.000000
 Clebsh-Gordan coefficient: <1.000,-1.000;1.000,0.000|1.000,-1.000> = -0.707
 _________________________________________________
 One-electron SO (cm-1)
 Reduced matrix elements:
 <S|| Hso(L-) ||S'> = (0.000000,-0.000000)
 <S|| Hso(L0) ||S'> = (0.000000,6.261709)
 <S|| Hso(L+) ||S'> = (0.000000,0.000000)
 SOCC = 6.261709
 Actual matrix elements:
       |Sz=-1.00>           |Sz=0.00>           |Sz=1.00>
 <Sz=-1.00|(-0.000000,-4.427697)(0.000000,0.000000)(0.000000,0.000000)
 <Sz=0.00|(-0.000000,0.000000)(-0.000000,0.000000)(0.000000,0.000000)
 <Sz=1.00|(0.000000,0.000000)(-0.000000,0.000000)(-0.000000,4.427697)
 _________________________________________________
 Mean-field SO (cm-1)
 Reduced matrix elements:
 <S|| Hso(L-) ||S'> = (0.000000,-0.000000)
 <S|| Hso(L0) ||S'> = (0.000000,3.643627)
 <S|| Hso(L+) ||S'> = (0.000000,0.000000)
 SOCC = 3.643627
 Actual matrix elements:
       |Sz=-1.00>           |Sz=0.00>           |Sz=1.00>
 <Sz=-1.00|(-0.000000,-2.576433)(0.000000,0.000000)(0.000000,0.000000)
 <Sz=0.00|(-0.000000,0.000000)(-0.000000,0.000000)(0.000000,0.000000)
 <Sz=1.00|(0.000000,0.000000)(-0.000000,0.000000)(-0.000000,2.576433)
 Singlet part of <S|| Hso(L0) ||S'> = (-0.000000,-0.000000) (excluded from all matrix elements)
 L-/L+ Averaged reduced matrix elements:
 <S|| Hso(L-) ||S'> = (0.000000,-0.000000)
 <S|| Hso(L+) ||S'> = (0.000000,0.000000)
 ______________________________________________________________
   Arithmetically averaged transition SO matrices
   (The phases shown, Ket and Bra assingment are from A(Ket)->B(Bra))
 _________________________________________________
 One-electron SO (cm-1)
 SOCC = 6.147911
 Actual matrix elements:
       |Sz=-1.00>           |Sz=0.00>           |Sz=1.00>
 <Sz=-1.00|(0.000000,4.347230)(-0.000000,-0.000000)(-0.000000,-0.000000)
 <Sz=0.00|(0.000000,-0.000000)(0.000000,-0.000000)(-0.000000,-0.000000)
 <Sz=1.00|(0.000000,-0.000000)(0.000000,-0.000000)(0.000000,-4.347230)
 _________________________________________________
 Mean-field SO (cm-1)
 SOCC = 3.572813
 Actual matrix elements:
       |Sz=-1.00>           |Sz=0.00>           |Sz=1.00>
 <Sz=-1.00|(0.000000,2.526361)(-0.000000,-0.000000)(-0.000000,-0.000000)
 <Sz=0.00|(0.000000,-0.000000)(0.000000,-0.000000)(-0.000000,-0.000000)
 <Sz=1.00|(0.000000,-0.000000)(0.000000,-0.000000)(0.000000,-2.526361)
 ______________________________________________________________

 ------------------------------------------------------------------------------
 State A: eomsf_mp2: 1/B1
 State B: eomsf_mp2: 10/B2
 Energy GAP = 0.293798 a.u. = 7.994653 eV
 Transition dipole moment (a.u.):
   A->B: 0.000000 (X 0.000000, Y 0.000000, Z 0.000000)
   B->A: 0.000000 (X 0.000000, Y 0.000000, Z 0.000000)
 Oscillator strength (a.u.): 0.000000
 Transition angular momentum against gauge origin (a.u.):
   A->B:  (X 0.000000i, Y 0.000000i, Z -0.195080i)
   B->A:  (X 0.000000i, Y 0.000000i, Z 0.194371i)
 Norm of one-particle transition density matrix:
   A->B: 0.755748;   B->A: 0.753729
   ||gamma^AB||*||gamma^BA||: 0.569629

 ______________________________________________________________
 A(Ket)->B(Bra) transition SO matrices
Full 2e SOC is not implemented withing libqints. 
I will do mean-field SOC with libqints, which is usually as good as full 2e SOC
 Analysing Sz ans S^2 of the pair of states...
 Ket state:  Computed S^2 = 2.000000 will be treated as 2.000000 Sz = -1.000000
 Bra state:  Computed S^2 = 2.000000 will be treated as 2.000000 Sz = -1.000000
 Clebsh-Gordan coefficient: <1.000,-1.000;1.000,0.000|1.000,-1.000> = -0.707
 _________________________________________________
 One-electron SO (cm-1)
 Reduced matrix elements:
 <S|| Hso(L-) ||S'> = (0.000000,-0.000000)
 <S|| Hso(L0) ||S'> = (0.000000,4.133436)
 <S|| Hso(L+) ||S'> = (0.000000,0.000000)
 SOCC = 4.133436
 Actual matrix elements:
       |Sz=-1.00>           |Sz=0.00>           |Sz=1.00>
 <Sz=-1.00|(-0.000000,-2.922781)(0.000000,0.000000)(0.000000,0.000000)
 <Sz=0.00|(-0.000000,0.000000)(-0.000000,0.000000)(0.000000,0.000000)
 <Sz=1.00|(0.000000,0.000000)(-0.000000,0.000000)(-0.000000,2.922781)
 _________________________________________________
 Mean-field SO (cm-1)
 Reduced matrix elements:
 <S|| Hso(L-) ||S'> = (0.000000,-0.000000)
 <S|| Hso(L0) ||S'> = (0.000000,2.056825)
 <S|| Hso(L+) ||S'> = (0.000000,0.000000)
 SOCC = 2.056825
 Actual matrix elements:
       |Sz=-1.00>           |Sz=0.00>           |Sz=1.00>
 <Sz=-1.00|(-0.000000,-1.454395)(0.000000,0.000000)(0.000000,0.000000)
 <Sz=0.00|(-0.000000,0.000000)(-0.000000,0.000000)(0.000000,0.000000)
 <Sz=1.00|(0.000000,0.000000)(-0.000000,0.000000)(-0.000000,1.454395)
 Singlet part of <S|| Hso(L0) ||S'> = (-0.000000,-0.000000) (excluded from all matrix elements)
 L-/L+ Averaged reduced matrix elements:
 <S|| Hso(L-) ||S'> = (0.000000,-0.000000)
 <S|| Hso(L+) ||S'> = (0.000000,0.000000)
 ______________________________________________________________
 B(Ket)->A(Bra) transition SO matrices
Full 2e SOC is not implemented withing libqints. 
I will do mean-field SOC with libqints, which is usually as good as full 2e SOC
 Analysing Sz ans S^2 of the pair of states...
 Ket state:  Computed S^2 = 2.000000 will be treated as 2.000000 Sz = -1.000000
 Bra state:  Computed S^2 = 2.000000 will be treated as 2.000000 Sz = -1.000000
 Clebsh-Gordan coefficient: <1.000,-1.000;1.000,0.000|1.000,-1.000> = -0.707
 _________________________________________________
 One-electron SO (cm-1)
 Reduced matrix elements:
 <S|| Hso(L-) ||S'> = (-0.000000,0.000000)
 <S|| Hso(L0) ||S'> = (0.000000,-4.415710)
 <S|| Hso(L+) ||S'> = (-0.000000,-0.000000)
 SOCC = 4.415710
 Actual matrix elements:
       |Sz=-1.00>           |Sz=0.00>           |Sz=1.00>
 <Sz=-1.00|(0.000000,3.122379)(-0.000000,-0.000000)(-0.000000,-0.000000)
 <Sz=0.00|(0.000000,-0.000000)(0.000000,-0.000000)(-0.000000,-0.000000)
 <Sz=1.00|(-0.000000,-0.000000)(0.000000,-0.000000)(0.000000,-3.122379)
 _________________________________________________
 Mean-field SO (cm-1)
 Reduced matrix elements:
 <S|| Hso(L-) ||S'> = (-0.000000,0.000000)
 <S|| Hso(L0) ||S'> = (0.000000,-2.213859)
 <S|| Hso(L+) ||S'> = (-0.000000,-0.000000)
 SOCC = 2.213859
 Actual matrix elements:
       |Sz=-1.00>           |Sz=0.00>           |Sz=1.00>
 <Sz=-1.00|(0.000000,1.565435)(-0.000000,-0.000000)(-0.000000,-0.000000)
 <Sz=0.00|(0.000000,-0.000000)(0.000000,-0.000000)(-0.000000,-0.000000)
 <Sz=1.00|(-0.000000,-0.000000)(0.000000,-0.000000)(0.000000,-1.565435)
 Singlet part of <S|| Hso(L0) ||S'> = (-0.000000,-0.000000) (excluded from all matrix elements)
 L-/L+ Averaged reduced matrix elements:
 <S|| Hso(L-) ||S'> = (-0.000000,0.000000)
 <S|| Hso(L+) ||S'> = (-0.000000,-0.000000)
 ______________________________________________________________
   Arithmetically averaged transition SO matrices
   (The phases shown, Ket and Bra assingment are from A(Ket)->B(Bra))
 _________________________________________________
 One-electron SO (cm-1)
 SOCC = 4.274573
 Actual matrix elements:
       |Sz=-1.00>           |Sz=0.00>           |Sz=1.00>
 <Sz=-1.00|(-0.000000,-3.022580)(0.000000,0.000000)(0.000000,0.000000)
 <Sz=0.00|(-0.000000,0.000000)(-0.000000,0.000000)(0.000000,0.000000)
 <Sz=1.00|(-0.000000,0.000000)(-0.000000,0.000000)(-0.000000,3.022580)
 _________________________________________________
 Mean-field SO (cm-1)
 SOCC = 2.135342
 Actual matrix elements:
       |Sz=-1.00>           |Sz=0.00>           |Sz=1.00>
 <Sz=-1.00|(-0.000000,-1.509915)(0.000000,0.000000)(0.000000,0.000000)
 <Sz=0.00|(-0.000000,0.000000)(-0.000000,0.000000)(0.000000,0.000000)
 <Sz=1.00|(-0.000000,0.000000)(-0.000000,0.000000)(-0.000000,1.509915)
 ______________________________________________________________


 All requested transition properties have been computed

 Transition Properties:   CPU 128.71 s  wall 129.46 s

 Total ccman2 time:   CPU 544.41 s  wall 544.18 s

 
 --------------------------------------------------------------
             Orbital Energies (a.u.) and Symmetries
 --------------------------------------------------------------
 
 Alpha MOs, Restricted
 -- Occupied --                  
-20.293 -11.122 -11.048 -11.047 -11.043 -11.043 -11.042 -11.042
  1 A1    2 A1    3 A1    1 B1    2 B1    4 A1    3 B1    5 A1                 
-11.041 -11.041 -11.036 -11.036 -11.032 -11.032  -1.323  -1.130
  4 B1    6 A1    5 B1    7 A1    6 B1    8 A1    9 A1   10 A1                 
 -1.081  -1.019  -0.986  -0.967  -0.908  -0.855  -0.809  -0.755
  7 B1   11 A1   12 A1    8 B1    9 B1   13 A1   14 A1   10 B1                 
 -0.733  -0.710  -0.655  -0.641  -0.599  -0.577  -0.576  -0.558
 11 B1   15 A1   16 A1   12 B1   17 A1   18 A1   13 B1   14 B1                 
 -0.544  -0.523  -0.523  -0.511  -0.479  -0.465  -0.442  -0.429
 19 A1   15 B1    1 B2   20 A1   16 B1   21 A1    1 A2    2 B2                 
 -0.428  -0.425  -0.331  -0.331  -0.295  -0.281  -0.212
 22 A1   17 B1   18 B1    3 B2    2 A2    4 B2    3 A2                         
 -- Virtual --                   
  0.139   0.227   0.266   0.318   0.370   0.505   0.530   0.564
  5 B2    6 B2    4 A2    5 A2    7 B2    8 B2    6 A2   23 A1                 
  0.584   0.594   0.637   0.664   0.676   0.680   0.687   0.704
 19 B1   24 A1   20 B1   25 A1   21 B1   26 A1   27 A1   22 B1                 
  0.712   0.765   0.771   0.798   0.840   0.881   0.885   0.891
 23 B1   24 B1   28 A1   29 A1   30 A1   25 B1   31 A1   26 B1                 
  0.922   0.965   0.987   1.087   1.109   1.144   1.169
 27 B1   28 B1   32 A1   33 A1   29 B1   34 A1   30 B1                         
 
 Beta MOs, Restricted
 -- Occupied --                  
-20.293 -11.122 -11.048 -11.047 -11.043 -11.043 -11.042 -11.042
  1 A1    2 A1    3 A1    1 B1    2 B1    4 A1    3 B1    5 A1                 
-11.041 -11.041 -11.036 -11.036 -11.032 -11.032  -1.323  -1.130
  4 B1    6 A1    5 B1    7 A1    6 B1    8 A1    9 A1   10 A1                 
 -1.081  -1.019  -0.986  -0.967  -0.908  -0.855  -0.809  -0.755
  7 B1   11 A1   12 A1    8 B1    9 B1   13 A1   14 A1   10 B1                 
 -0.733  -0.710  -0.655  -0.641  -0.599  -0.577  -0.576  -0.558
 11 B1   15 A1   16 A1   12 B1   17 A1   18 A1   13 B1   14 B1                 
 -0.544  -0.523  -0.523  -0.511  -0.479  -0.465  -0.442  -0.429
 19 A1   15 B1    1 B2   20 A1   16 B1   21 A1    1 A2    2 B2                 
 -0.428  -0.425  -0.331  -0.331  -0.295  -0.281  -0.212
 22 A1   17 B1   18 B1    3 B2    2 A2    4 B2    3 A2                         
 -- Virtual --                   
  0.139   0.227   0.266   0.318   0.370   0.505   0.530   0.564
  5 B2    6 B2    4 A2    5 A2    7 B2    8 B2    6 A2   23 A1                 
  0.584   0.594   0.637   0.664   0.676   0.680   0.687   0.704
 19 B1   24 A1   20 B1   25 A1   21 B1   26 A1   27 A1   22 B1                 
  0.712   0.765   0.771   0.798   0.840   0.881   0.885   0.891
 23 B1   24 B1   28 A1   29 A1   30 A1   25 B1   31 A1   26 B1                 
  0.922   0.965   0.987   1.087   1.109   1.144   1.169
 27 B1   28 B1   32 A1   33 A1   29 B1   34 A1   30 B1                         
 --------------------------------------------------------------
 
          Ground-State Mulliken Net Atomic Charges

     Atom                 Charge (a.u.)
  ----------------------------------------
      1 C                     0.142037
      2 O                    -0.230062
      3 C                    -0.003733
      4 C                    -0.003733
      5 C                    -0.000569
      6 C                    -0.062274
      7 C                    -0.049720
      8 C                    -0.063386
      9 C                    -0.056447
     10 H                     0.078558
     11 H                     0.067515
     12 H                     0.066753
     13 H                     0.067315
     14 C                    -0.000569
     15 C                    -0.062274
     16 C                    -0.063386
     17 C                    -0.049720
     18 C                    -0.056447
     19 H                     0.067515
     20 H                     0.078558
     21 H                     0.066753
     22 H                     0.067315
  ----------------------------------------
  Sum of atomic charges =     0.000000

 -----------------------------------------------------------------
                    Cartesian Multipole Moments
 -----------------------------------------------------------------
    Charge (ESU x 10^10)
                -0.0000
    Dipole Moment (Debye)
         X      -0.0000      Y       0.0000      Z      -2.6276
       Tot       2.6276
    Quadrupole Moments (Debye-Ang)
        XX     -63.9867     XY       0.0000     YY     -75.0148
        XZ       0.0000     YZ      -0.0000     ZZ     -77.5798
    Octopole Moments (Debye-Ang^2)
       XXX      -0.0000    XXY       0.0000    XYY      -0.0000
       YYY       0.0000    XXZ       3.8026    XYZ      -0.0000
       YYZ       7.7451    XZZ      -0.0000    YZZ       0.0000
       ZZZ     -22.1884
    Hexadecapole Moments (Debye-Ang^3)
      XXXX   -2073.5558   XXXY       0.0000   XXYY    -406.5782
      XYYY      -0.0000   YYYY     -59.2156   XXXZ       0.0000
      XXYZ       0.0000   XYYZ       0.0000   YYYZ       0.0000
      XXZZ    -491.2002   XYZZ      -0.0000   YYZZ    -162.9556
      XZZZ       0.0000   YZZZ      -0.0000   ZZZZ    -960.4979
 -----------------------------------------------------------------
 Total job time:  566.03s(wall), 564.86s(cpu) 
 Fri Jan 26 13:32:17 2024

        *************************************************************
        *                                                           *
        *  Thank you very much for using Q-Chem.  Have a nice day.  *
        *                                                           *
        *************************************************************


