                  Welcome to Q-Chem
     A Quantum Leap Into The Future Of Chemistry


 Q-Chem 6.0 (devel), Q-Chem, Inc., Pleasanton, CA (2022)

 E. Epifanovsky,  A. T. B. Gilbert,  Xintian Feng,  Joonho Lee,  Yuezhi Mao,  
 N. Mardirossian,  P. Pokhilko,  A. White,  M. Wormit,  M. P. Coons,  
 A. L. Dempwolff,  Zhengting Gan,  D. Hait,  P. R. Horn,  L. D. Jacobson,  
 I. Kaliman,  J. Kussmann,  A. W. Lange,  Ka Un Lao,  D. S. Levine,  Jie Liu,  
 S. C. McKenzie,  A. F. Morrison,  K. Nanda,  F. Plasser,  D. R. Rehn,  
 M. L. Vidal,  Zhi-Qiang You,  Ying Zhu,  B. Alam,  B. Albrecht,  
 A. Aldossary,  E. Alguire,  J. H. Andersen,  V. Athavale,  D. Barton,  
 K. Begam,  A. Behn,  N. Bellonzi,  Y. A. Bernard,  E. J. Berquist,  
 H. Burton,  A. Carreras,  K. Carter-Fenk,  Romit Chakraborty,  
 Chandrima Chakravarty,  Junhan Chen,  A. D. Chien,  K. D. Closser,  
 V. Cofer-Shabica,  L. Cunha,  S. Dasgupta,  Jia Deng,  M. de Wergifosse,  
 M. Diedenhofen,  Hainam Do,  S. Ehlert,  Po-Tung Fang,  S. Fatehi,  
 Qingguo Feng,  T. Friedhoff,  B. Ganoe,  J. Gayvert,  Qinghui Ge,  
 G. Gidofalvi,  M. Goldey,  J. Gomes,  C. Gonzalez-Espinoza,  S. Gulania,  
 A. Gunina,  J. A. Gyamfi,  M. W. D. Hanson-Heine,  P. H. P. Harbach,  
 A. W. Hauser,  M. F. Herbst,  M. Hernandez Vera,  M. Hodecker,  
 Z. C. Holden,  S. Houck,  Xunkun Huang,  Kerwin Hui,  B. C. Huynh,  
 K. Ikeda,  M. Ivanov,  Hyunjun Ji,  Zuxin Jin,  Hanjie Jiang,  B. Kaduk,  
 S. Kaehler,  R. Kang,  K. Khistyaev,  Jaehoon Kim,  Yongbin Kim,  
 P. Klunzinger,  Z. Koczor-Benda,  Joong Hoon Koh,  D. Kosenkov,  
 Saikiran Kotaru,  L. Koulias,  T. Kowalczyk,  C. M. Krauter,  K. Kue,  
 A. Kunitsa,  T. Kus,  A. Landau,  K. V. Lawler,  D. Lefrancois,  S. Lehtola,  
 Rain Li,  Shaozhi Li,  Yi-Pei Li,  Jiashu Liang,  M. Liebenthal,  
 Hung-Hsuan Lin,  You-Sheng Lin,  Fenglai Liu,  Kuan-Yu Liu,  
 M. Loipersberger,  A. Luenser,  C. Malbon,  A. Manjanath,  P. Manohar,  
 E. Mansoor,  S. F. Manzer,  Shan-Ping Mao,  A. V. Marenich,  T. Markovich,  
 S. Mason,  F. Matz,  S. A. Maurer,  P. F. McLaughlin,  M. F. S. J. Menger,  
 J.-M. Mewes,  S. A. Mewes,  P. Morgante,  Mohammad Mostafanejad,  
 J. W. Mullinax,  K. J. Oosterbaan,  G. Paran,  V. Parravicini,  
 Alexander C. Paul,  Suranjan K. Paul,  F. Pavosevic,  Zheng Pei,  S. Prager,  
 E. I. Proynov,  E. Ramos,  B. Rana,  A. E. Rask,  A. Rettig,  R. M. Richard,  
 F. Rob,  E. Rossomme,  T. Scheele,  M. Scheurer,  M. Schneider,  
 P. E. Schneider,  N. Sergueev,  S. M. Sharada,  Hengyuan Shen,  
 W. Skomorowski,  D. W. Small,  C. J. Stein,  Yingli Su,  Yu-Chuan Su,  
 E. J. Sundstrom,  Zhen Tao,  J. Thirman,  Hung-Yi Tsai,  T. Tsuchimochi,  
 N. M. Tubman,  C. Utku,  S. P. Veccham,  O. Vydrov,  J. Wenzel,  
 Jonathan Wong,  J. Witte,  A. Yamada,  Chou-Hsun Yang,  Kun Yao,  
 S. Yeganeh,  S. R. Yost,  A. Zech,  F. Zeller,  Igor Ying Zhang,  
 Xing Zhang,  Yu Zhang,  D. Zuev,  A. Aspuru-Guzik,  A. T. Bell,  
 N. A. Besley,  K. B. Bravaya,  B. R. Brooks,  D. Casanova,  Jeng-Da Chai,  
 Hsing-Ta Chen,  S. Coriani,  C. J. Cramer,  A. E. DePrince, III,  
 R. A. DiStasio Jr.,  A. Dreuw,  B. D. Dunietz,  T. R. Furlani,  
 W. A. Goddard III,  S. Grimme,  S. Hammes-Schiffer,  T. Head-Gordon,  
 W. J. Hehre,  Chao-Ping Hsu,  T.-C. Jagau,  Yousung Jung,  A. Klamt,  
 Jing Kong,  D. S. Lambrecht,  Xiangyuan Li,  WanZhen Liang,  N. J. Mayhall,  
 C. W. McCurdy,  J. B. Neaton,  T. Neudecker,  C. Ochsenfeld,  
 J. A. Parkhill,  R. Peverati,  V. A. Rassolov,  Haisheng Ren,  Yihan Shao,  
 L. V. Slipchenko,  R. P. Steele,  J. E. Subotnik,  A. J. W. Thom,  
 A. Tkatchenko,  D. G. Truhlar,  T. Van Voorhis,  Fan Wang,  
 T. A. Wesolowski,  K. B. Whaley,  H. L. Woodcock III,  P. M. Zimmerman,  
 S. Faraji,  P. M. W. Gill,  M. Head-Gordon,  J. M. Herbert,  A. I. Krylov

 Contributors to earlier versions of Q-Chem not listed above: 
 R. D. Adamson,  B. Austin,  R. Baer,  J. Baker,  G. J. O. Beran,  
 K. Brandhorst,  S. T. Brown,  E. F. C. Byrd,  Arup K. Chakraborty,  
 G. K. L. Chan,  Chun-Min Chang,  Yunqing Chen,  C.-L. Cheng,  
 Siu Hung Chien,  D. M. Chipman,  D. L. Crittenden,  H. Dachsel,  
 R. J. Doerksen,  A. D. Dutoi,  R. G. Edgar,  J. Fosso-Tande,  
 L. Fusti-Molnar,  D. Ghosh,  A. Ghysels,  A. Golubeva-Zadorozhnaya,  
 J. Gonthier,  M. S. Gordon,  S. R. Gwaltney,  G. Hawkins,  J. E. Herr,  
 A. Heyden,  S. Hirata,  E. G. Hohenstein,  G. Kedziora,  F. J. Keil,  
 C. Kelley,  Jihan Kim,  R. A. King,  R. Z. Khaliullin,  P. P. Korambath,  
 W. Kurlancheek,  A. Laurent,  A. M. Lee,  M. S. Lee,  S. V. Levchenko,  
 Ching Yeh Lin,  D. Liotard,  E. Livshits,  R. C. Lochan,  I. Lotan,  
 L. A. Martinez-Martinez,  P. E. Maslen,  N. Nair,  D. P. O'Neill,  
 D. Neuhauser,  E. Neuscamman,  C. M. Oana,  R. Olivares-Amaya,  R. Olson,  
 T. M. Perrine,  B. Peters,  P. A. Pieniazek,  A. Prociuk,  Y. M. Rhee,  
 J. Ritchie,  M. A. Rohrdanz,  E. Rosta,  N. J. Russ,  H. F. Schaefer III,  
 M. W. Schmidt,  N. E. Schultz,  S. Sharma,  N. Shenvi,  C. D. Sherrill,  
 A. C. Simmonett,  A. Sodt,  T. Stein,  D. Stuck,  K. S. Thanthiriwatte,  
 V. Vanovschi,  L. Vogt,  Tao Wang,  A. Warshel,  M. A. Watson,  
 C. F. Williams,  Q. Wu,  X. Xu,  Jun Yang,  W. Zhang,  Yan Zhao

   Please cite Q-Chem as follows:
  "Software for the frontiers of quantum chemistry:
   An overview of developments in the Q-Chem 5 package"
   J. Chem. Phys. 155, 084801 (2021)
   https://doi.org/10.1063/5.0055522 (open access)

 Q-Chem 6.0.1 for Intel X86 EM64T Linux

 Parts of Q-Chem use Armadillo 9.900.5 (Nocturnal Misbehaviour).
 http://arma.sourceforge.net/

 Q-Chem begins on Fri Jan 26 12:53:33 2024  

 Host: atlas-252
0

     Scratch files written to ./qchem255195//
 Processing $rem in /scratch/abel/SOFTWARE/qchem/config/preferences:
 Processing $rem in /dipc/acebg/.qchemrc:
 Core orbitals will be frozen

 Checking the input file for inconsistencies... 	...done.

--------------------------------------------------------------
User input:
--------------------------------------------------------------
$comment
 RAS-SF CALCULATION
$end

$molecule
 READ naphthalene.molecule
$end

$rem
!**CALCULATION TYPE***     
JOBTYPE            sp    
!BASIS              def2-TZVP
BASIS             STO-3G

!***SCF REFERENCE***
INPUT_BOHR 	    TRUE
!SKIP_SCFMAN        FALSE
UNRESTRICTED       FALSE
!SCF_GUESS          core
!SCF_GUESS_MIX      FALSE
!SCF_GUESS_ALWAYS   FALSE
MAX_SCF_CYCLES     500
!SCF_CONVERGENCE    10
SCF_ALGORITHM      DIIS_GDM !DIIS,DM,DIIS_DM,GDM,DIIS_GDM,GD

!SYMMETRY           TRUE   !use of symmetry for calculating integrals
!SYM_IGNORE         FALSE  !turn off using symmetry
!SYM_TOL            5      !tolerance for determining point group
!USE_ABELIAN_SUBGROUP      !define to use abelian group

!THRESH             14
!SCF_FINAL_PRINT     1 !0,1,2,3

!****CCSD****
CORRELATION        CCSD
!CC_CONVERGENCE     6
!CC_MAX_ITER        200
CC_PRINT	   2
!CHOLESKY_TOL       3 !Toler. decomposition 2e integrals
CC_REF_PROP  	   1 !one-particle CCSD properties calculation
!CC_REF_PROP_TE	   0 !two-particle CCSD properties calculation
!CC_FNO_THRESH
!CC_BACKEND	   XM !Used to specify the computational back-end of CCMAN2.

!****EOM****
METHOD             EOM-MP2
EE_STATES	   [5,5,5,5,5,5,3,5]
CC_STATE_TO_OPT    [7,1]
CC_EOM_PROP        1
CC_EOM_PROP_TE	   1
CC_TRANS_PROP      1
CALC_SOC           TRUE   !calculate SOC for EOM-CC, RAS-CI, ADC, TDDFT/TDA and TDDFT

!****MEMORY****
MEM_TOTAL          90000 !Default 2000 MB
MEM_STATIC         7000  !Default 64 MB
CC_MEMORY          72000

!**Molecular Properties and Analysis **                                                                                          
!POP_MULLIKEN       TRUE   !Run Mulliken population analysis
!LOWDIN_POPULATION  TRUE   !Run Löwdin population analysis
GUI                0       !Checkpoints generation
!STATE_ANALYSIS     TRUE

!**Wave function analysis**
!PLOTS = 0     ! Note: This can be omitted, default is 0
!NTO_PAIRS = 2 ! Note: This can be omitted, default is 2
!GUI 0
!MOLDEN_FORMAT      TRUE
!PRINT_ORBITALS     15
$end

!$plots
!   grid_points 100 100 100
!   grid_range  (-10,10) (-10,10) (-10,10)
!$end

--------------------------------------------------------------
 ----------------------------------------------------------------
             Standard Nuclear Orientation (Bohr)
    I     Atom           X                Y                Z
 ----------------------------------------------------------------
    1      C       0.0000000000    -1.3623625091    -0.0000000000
    2      C      -0.0000000000     1.3623625091     0.0000000000
    3      C      -2.3376206850    -2.6436978817    -0.0000000000
    4      C      -4.6989437780    -1.2863193617     0.0000000000
    5      C      -4.6989437780     1.2863193617     0.0000000000
    6      C      -2.3376206850     2.6436978817     0.0000000000
    7      C       2.3376206850     2.6436978817     0.0000000000
    8      C       2.3376206850    -2.6436978817    -0.0000000000
    9      C       4.6989437780    -1.2863193617    -0.0000000000
   10      C       4.6989437780     1.2863193617    -0.0000000000
   11      H       2.3527347410    -4.6914688881    -0.0000000000
   12      H       6.4552948094    -2.3370951729    -0.0000000000
   13      H       6.4552948094     2.3370951729    -0.0000000000
   14      H       2.3527347410     4.6914688881     0.0000000000
   15      H      -2.3527347410    -4.6914688881    -0.0000000000
   16      H      -6.4552948094    -2.3370951729     0.0000000000
   17      H      -6.4552948094     2.3370951729     0.0000000000
   18      H      -2.3527347410     4.6914688881     0.0000000000
 ----------------------------------------------------------------
 Molecular Point Group                 D2h   NOp =  8
 Largest Abelian Subgroup              D2h   NOp =  8
 Nuclear Repulsion Energy =         454.42574361 hartrees
 There are       35 alpha and       33 beta electrons
 Requested basis set is STO-3G
 There are 28 shells and 58 basis functions
WARNING: MEM_STATIC is adjusted to be 2000 MB!
 Total memory of 90000 MB is distributed as follows: 
   MEM_STATIC is set to 2000 MB
   QALLOC/CCMAN JOB total memory use is  88000 MB
 Warning: actual memory use might exceed 90000 MB

 Total QAlloc Memory Limit  90000 MB
 Mega-Array Size      1956 MB
 MEM_STATIC part      2000 MB

 A cutoff of  1.0D-14 yielded    372 shell pairs
 There are      1737 function pairs
 Smallest overlap matrix eigenvalue = 1.76E-01

 Scale SEOQF with 1.000000e-01/1.000000e-01/1.000000e+00

 Standard Electronic Orientation quadrupole field applied
 Nucleus-field energy     =     0.0000000153 hartrees
 Guess from superposition of atomic densities
 Warning:  Energy on first SCF cycle will be non-variational
 SAD guess density has 68.000000 electrons

 -----------------------------------------------------------------------
  General SCF calculation program by
  Eric Jon Sundstrom, Paul Horn, Yuezhi Mao, Dmitri Zuev, Alec White,
  David Stuck, Shaama M.S., Shane Yost, Joonho Lee, David Small,
  Daniel Levine, Susi Lehtola, Hugh Burton, Evgeny Epifanovsky,
  Bang C. Huynh
 -----------------------------------------------------------------------
 Hartree-Fock
 Orthonormalizing orbitals
 A restricted open-shell SCF calculation will be
 performed using DIIS, GDM
 SCF converges when RMS gradient is below 1.0e-08
 ---------------------------------------
  Cycle       Energy         DIIS error
 ---------------------------------------
    1    -376.7299268041      1.77e-01  
    2    -378.0294471912      1.36e-01  
    3    -378.5270179393      1.81e-02  
    4    -378.5319888724      1.62e-02  
    5    -378.5628134261      2.01e-03  Done DIIS. Switching to GDM
 ---------------------------------------
  Cycle       Energy        RMS Gradient
 ---------------------------------------
    1    -378.5628134261      1.99e-02   Normal BFGS step
    2    -378.5634035988      1.03e-02   Normal BFGS step
    3    -378.5635414799      1.76e-03   Normal BFGS step
    4    -378.5635450322      5.15e-04   Normal BFGS step
    5    -378.5635454509      7.11e-05   Normal BFGS step
    6    -378.5635454616      1.31e-05   Normal BFGS step
    7    -378.5635454621      3.74e-06   Normal BFGS step
    8    -378.5635454622      4.36e-07   Normal BFGS step
    9    -378.5635454622      2.80e-08   Normal BFGS step
   10    -378.5635454622      1.17e-08   Normal BFGS step
   11    -378.5635454622      1.43e-09  Convergence criterion met
The disked orbital energies are calculated using alpha and beta Focks
 ---------------------------------------
 SCF time:   CPU 0.70s  wall 1.00s 
<S^2> =          2.000000000
 SCF   energy in the final basis set =     -378.5635454622
 Total energy in the final basis set =     -378.5635454622
 mp2 is not implemented in computing transition properties!


 ------------------------------------------------------------------------------

   CCMAN2: suite of methods based on coupled cluster
           and equation of motion theories.

   Components:
   * libvmm-1.3-trunk
     by Evgeny Epifanovsky, Ilya Kaliman.
   * libtensor-2.5-trunk
     by Evgeny Epifanovsky, Michael Wormit, Dmitry Zuev, Sam Manzer, 
        Ilya Kaliman.
   * libcc-2.5-trunk
     by Evgeny Epifanovsky, Arik Landau, Tomasz Kus, Kirill Khistyaev, 
        Dmitry Zuev, Prashant Manohar, Xintian Feng, Anna Krylov, 
        Matthew Goldey, Alec White, Thomas Jagau, Kaushik Nanda, 
        Anastasia Gunina, Alexander Kunitsa, Joonho Lee.

   CCMAN original authors:
   Anna I. Krylov, C. David Sherrill, Steven R. Gwaltney,
   Edward F. C. Byrd (2000)
   Sergey V. Levchenko, Lyudmila V. Slipchenko, Tao Wang,
   Ana-Maria C. Cristian (2003)
   Piotr A. Pieniazek, C. Melania Oana, Evgeny Epifanovsky (2007)
   Prashant Manohar (2009)

 ------------------------------------------------------------------------------


 Allocating and initializing 72000MB of RAM...
 Calculation will run on 1 core.

 
 Alpha MOs, Restricted
 -- Doubly Occupied --           
-11.038 -11.038 -11.028 -11.028 -11.028 -11.028 -11.026 -11.026
  1 B2u   1 Ag    1 B3u   2 Ag    1 B1g   2 B2u   2 B1g   3 B2u                
-11.026 -11.026  -1.116  -1.050  -0.994  -0.959  -0.914  -0.819
  2 B3u   3 Ag    4 Ag    3 B3u   4 B2u   5 Ag    3 B1g   4 B3u                
 -0.768  -0.761  -0.660  -0.647  -0.619  -0.575  -0.554  -0.524
  5 B2u   6 Ag    4 B1g   5 B3u   7 Ag    6 B2u   8 Ag    5 B1g                
 -0.519  -0.495  -0.478  -0.511  -0.416  -0.416  -0.411  -0.377
  6 B3u   7 B2u   7 B3u   1 B1u   9 Ag    6 B1g   1 B2g   1 B3g                
 -0.305
  2 B1u                                                                        
 -- Singly Occupied (Occupied) --
 -0.276  -0.118
  1 Au    2 B2g                                                                
 -- Virtual --                   
  0.258   0.239   0.363   0.501   0.586   0.604   0.607   0.651
  2 B3g   3 B1u   2 Au    3 B3g  10 Ag    8 B2u   8 B3u  11 Ag                 
  0.667   0.686   0.711   0.730   0.744   0.769   0.789   0.867
  9 B3u   9 B2u   7 B1g   8 B1g  10 B2u  10 B3u  12 Ag   11 B2u                
  0.892   0.933   0.934   0.979   1.053   1.108   1.169
  9 B1g  13 Ag   11 B3u  10 B1g  12 B2u  13 B2u  11 B1g                        
 
 Beta MOs, Restricted
 -- Doubly Occupied --           
-11.038 -11.038 -11.026 -11.026 -11.026 -11.026 -11.016 -11.016
  1 B2u   1 Ag    2 Ag    1 B3u   2 B2u   1 B1g   2 B1g   3 B2u                
-11.016 -11.016  -1.095  -1.029  -0.960  -0.949  -0.876  -0.790
  2 B3u   3 Ag    4 Ag    3 B3u   4 B2u   5 Ag    3 B1g   4 B3u                
 -0.759  -0.742  -0.644  -0.639  -0.612  -0.565  -0.548  -0.513
  5 B2u   6 Ag    4 B1g   5 B3u   7 Ag    6 B2u   8 Ag    5 B1g                
 -0.511  -0.485  -0.470  -0.436  -0.410  -0.406  -0.346  -0.236
  6 B3u   7 B2u   7 B3u   1 B1u   9 Ag    6 B1g   1 B2g   1 B3g                
 -0.269
  2 B1u                                                                        
 -- Singly Occupied (Vacant) --  
  0.097   0.258
  1 Au    2 B2g                                                                
 -- Virtual --                   
  0.294   0.383   0.433   0.580   0.591   0.610   0.619   0.681
  2 B3g   3 B1u   2 Au    3 B3g  10 Ag    8 B2u   8 B3u  11 Ag                 
  0.683   0.711   0.729   0.741   0.752   0.786   0.798   0.877
  9 B3u   9 B2u   7 B1g   8 B1g  10 B2u  10 B3u  12 Ag   11 B2u                
  0.901   0.945   0.944   0.990   1.060   1.115   1.179
  9 B1g  13 Ag   11 B3u  10 B1g  12 B2u  13 B2u  11 B1g                        

 Occupation and symmetry of molecular orbitals

 Point group: D2h (8 irreducible representations).

                           Ag   B1g  B2g  B3g  Au   B1u  B2u  B3u   All 
 ------------------------------------------------------------------------
 All molecular orbitals:
  - Alpha                  13   11   2    3    2    3    13   11    58  
  - Beta                   13   11   2    3    2    3    13   11    58  
 ------------------------------------------------------------------------
 Alpha orbitals:
  - Frozen occupied        3    2    0    0    0    0    3    2     10  
  - Active occupied        6    4    2    1    1    2    4    5     25  
  - Active virtual         4    5    0    2    1    1    6    4     23  
  - Frozen virtual         0    0    0    0    0    0    0    0     0   
 ------------------------------------------------------------------------
 Beta orbitals:
  - Frozen occupied        3    2    0    0    0    0    3    2     10  
  - Active occupied        6    4    1    1    0    2    4    5     23  
  - Active virtual         4    5    1    2    2    1    6    4     25  
  - Frozen virtual         0    0    0    0    0    0    0    0     0   
 ------------------------------------------------------------------------

 Import integrals:   CPU 0.00 s  wall 0.00 s

 Molecular orbitals will be canonicalized.
 Import integrals:   CPU 0.98 s  wall 1.30 s

 Computing CCSD intermediates for later calculations in double precision
 Finished.

 MP2 amplitudes:   CPU 3.90 s  wall 4.47 s

        Solving for EOMEE-CCSD Ag transitions.

Running a double precision version
        EOMEE-CCSD/MP2 right amplitudes will be solved using Davidson.
        Amplitudes will be solved using standard  algorithm.
     Hard-coded thresholds: 
     LinDepThresh=1.00e-15  NormThresh=1.00e-06  ReorthogonThresh=1.00e-02

      Roots     MaxVec    MaxIter   Precond   Conv      Shift    
      5         120       60        1         1.00e-05  0.00e+00  
 ------------------------------------------------------------------------------
      Iter ConvRoots NVecs ResNorm^2 Current eigenvalues (eV)
 ------------------------------------------------------------------------------
      0    0      5     1.38e-01   10.7322   12.0150   12.5896   14.0323   15.1769   
      1    0      10    1.72e-02   7.5770   8.6413   9.3051   10.5862   11.0747   
      2    0      15    8.14e-03   6.5336   7.3789   8.8478   9.5321   10.4746   
Found complex roots...
      3    0      20    5.73e-03   6.1251   6.7956   8.5264   9.0089   10.3838   
      4    0      25    1.52e-02   5.7885   6.3359   7.9011   8.8633   9.4976   
      5    0      30    3.80e-03   5.2823   6.1447   7.5553   8.1792   8.8738   
      6    0      35    1.03e-03   5.1288   6.1183   7.4690   7.8882   8.8528   
      7    0      40    3.36e-04   5.0994   6.1109   7.4403   7.8033   8.8429   
      8    1      45    1.16e-04   5.0917   6.1081   7.4271   7.7791   8.8398*  
      9    1      49    3.63e-05   5.0900   6.1067   7.4214   7.7693   8.8395*  
      10   3      53    1.30e-05   5.0901*  6.1058*  7.4198   7.7646   8.8393*  
      11   4      55    5.43e-06   5.0903*  6.1054*  7.4197*  7.7624   8.8392*  
      12   5      56    3.70e-06   5.0903*  6.1054*  7.4197*  7.7617*  8.8393*  

     Davidson procedure converged

 EOMEE transition 1/Ag
 Total energy = -378.96215787 a.u.  Excitation energy = 5.0903 eV.
 R0^2 = 0.0459  R1^2 = 0.2282  R2^2 = 0.7718  Res^2 = 1.01e-06
 Conv-d = yes

 Amplitude    Transitions between orbitals
 -0.5446       2 (B2g) A     2 (B1u) B   ->    2 (B3g) A     1 (Au) B     
  0.5446       2 (B2g) A     2 (B1u) B   ->    1 (Au) B      2 (B3g) A    
  0.5446       2 (B1u) B     2 (B2g) A   ->    2 (B3g) A     1 (Au) B     
 -0.5446       2 (B1u) B     2 (B2g) A   ->    1 (Au) B      2 (B3g) A    
 -0.3739       2 (B2g) A     1 (B3g) B   ->    3 (B1u) A     1 (Au) B     
  0.3739       2 (B2g) A     1 (B3g) B   ->    1 (Au) B      3 (B1u) A    
  0.3739       1 (B3g) B     2 (B2g) A   ->    3 (B1u) A     1 (Au) B     
 -0.3739       1 (B3g) B     2 (B2g) A   ->    1 (Au) B      3 (B1u) A    
 -0.2965       2 (B2g) A     1 (B2g) B   ->    2 (Au) A      1 (Au) B     
  0.2965       2 (B2g) A     1 (B2g) B   ->    1 (Au) B      2 (Au) A     
  0.2965       1 (B2g) B     2 (B2g) A   ->    2 (Au) A      1 (Au) B     
 -0.2965       1 (B2g) B     2 (B2g) A   ->    1 (Au) B      2 (Au) A     
 -0.2112       1 (Au) A      2 (B1u) B   ->    2 (B3g) A     2 (B2g) B    
  0.2112       1 (Au) A      2 (B1u) B   ->    2 (B2g) B     2 (B3g) A    
  0.2112       2 (B1u) B     1 (Au) A    ->    2 (B3g) A     2 (B2g) B    
 -0.2112       2 (B1u) B     1 (Au) A    ->    2 (B2g) B     2 (B3g) A    
  0.1691       2 (B2g) A     1 (B1u) B   ->    3 (B3g) A     1 (Au) B     
 -0.1691       2 (B2g) A     1 (B1u) B   ->    1 (Au) B      3 (B3g) A    
 -0.1691       1 (B1u) B     2 (B2g) A   ->    3 (B3g) A     1 (Au) B     
  0.1691       1 (B1u) B     2 (B2g) A   ->    1 (Au) B      3 (B3g) A    
 -0.1400       1 (Au) A      1 (B2g) B   ->    2 (Au) A      2 (B2g) B    
  0.1400       1 (Au) A      1 (B2g) B   ->    2 (B2g) B     2 (Au) A     
  0.1400       1 (B2g) B     1 (Au) A    ->    2 (Au) A      2 (B2g) B    
 -0.1400       1 (B2g) B     1 (Au) A    ->    2 (B2g) B     2 (Au) A     
 -0.1146       1 (B3g) A     2 (B1u) B   ->    2 (B3g) A     3 (B1u) B    
  0.1146       1 (B3g) A     2 (B1u) B   ->    3 (B1u) B     2 (B3g) A    
  0.1146       2 (B1u) B     1 (B3g) A   ->    2 (B3g) A     3 (B1u) B    
 -0.1146       2 (B1u) B     1 (B3g) A   ->    3 (B1u) B     2 (B3g) A    
 -0.1116       1 (Au) A      1 (B3g) B   ->    3 (B1u) A     2 (B2g) B    
  0.1116       1 (Au) A      1 (B3g) B   ->    2 (B2g) B     3 (B1u) A    
  0.1116       1 (B3g) B     1 (Au) A    ->    3 (B1u) A     2 (B2g) B    
 -0.1116       1 (B3g) B     1 (Au) A    ->    2 (B2g) B     3 (B1u) A    

              Summary of significant orbitals:

               Number  Type             Irrep      Energy
               27      Occ  Alpha       2 (B2g)     -0.1020
               16      Occ  Alpha       1 (B3g)     -0.3773
               25      Occ  Alpha       1 (Au)     -0.2762
               20      Occ  Beta        1 (B2g)     -0.3463
               27      Occ  Beta        1 (B3g)     -0.2360
               26      Occ  Beta        1 (B1u)     -0.4364
               25      Occ  Beta        2 (B1u)     -0.2692
               43      Vir  Alpha       2 (B3g)      0.2585
               53      Vir  Alpha       3 (B3g)      0.5008
               50      Vir  Alpha       2 (Au)      0.3627
               40      Vir  Alpha       3 (B1u)      0.2393
               43      Vir  Beta        2 (B2g)      0.2578
               40      Vir  Beta        1 (Au)      0.0805
               53      Vir  Beta        3 (B1u)      0.3827


 EOMEE transition 2/Ag
 Total energy = -378.92485474 a.u.  Excitation energy = 6.1054 eV.
 R0^2 = 0.0093  R1^2 = 0.5963  R2^2 = 0.4037  Res^2 = 1.51e-06
 Conv-d = yes

 Amplitude    Transitions between orbitals
 -0.4468       1 (B3g) B                 ->    2 (B3g) B                  
  0.4093       2 (B1u) A                 ->    3 (B1u) A                  
 -0.2476       1 (B2g) B                 ->    2 (B2g) B                  
  0.2322       1 (B3g) A                 ->    2 (B3g) A                  
 -0.2082       2 (B1u) B                 ->    3 (B1u) B                  
  0.2080       1 (Au) A                  ->    2 (Au) A                   
 -0.1137       1 (B1u) A                 ->    3 (B1u) A                  
 -0.1003       1 (B3g) B                 ->    3 (B3g) B                  
  0.2702       2 (B2g) A     1 (B3g) B   ->    3 (B1u) A     1 (Au) B     
 -0.2702       2 (B2g) A     1 (B3g) B   ->    1 (Au) B      3 (B1u) A    
 -0.2702       1 (B3g) B     2 (B2g) A   ->    3 (B1u) A     1 (Au) B     
  0.2702       1 (B3g) B     2 (B2g) A   ->    1 (Au) B      3 (B1u) A    
 -0.2174       2 (B2g) A     1 (B2g) B   ->    2 (Au) A      1 (Au) B     
  0.2174       2 (B2g) A     1 (B2g) B   ->    1 (Au) B      2 (Au) A     
  0.2174       1 (B2g) B     2 (B2g) A   ->    2 (Au) A      1 (Au) B     
 -0.2174       1 (B2g) B     2 (B2g) A   ->    1 (Au) B      2 (Au) A     
 -0.2120       2 (B2g) A     2 (B1u) B   ->    2 (B3g) A     1 (Au) B     
  0.2120       2 (B2g) A     2 (B1u) B   ->    1 (Au) B      2 (B3g) A    
  0.2120       2 (B1u) B     2 (B2g) A   ->    2 (B3g) A     1 (Au) B     
 -0.2120       2 (B1u) B     2 (B2g) A   ->    1 (Au) B      2 (B3g) A    
 -0.1774       2 (B2g) A     1 (B1u) B   ->    2 (B3g) A     1 (Au) B     
  0.1774       2 (B2g) A     1 (B1u) B   ->    1 (Au) B      2 (B3g) A    
  0.1774       1 (B1u) B     2 (B2g) A   ->    2 (B3g) A     1 (Au) B     
 -0.1774       1 (B1u) B     2 (B2g) A   ->    1 (Au) B      2 (B3g) A    
  0.1454       2 (B2g) A     2 (B1u) B   ->    3 (B3g) A     1 (Au) B     
 -0.1454       2 (B2g) A     2 (B1u) B   ->    1 (Au) B      3 (B3g) A    
 -0.1454       2 (B1u) B     2 (B2g) A   ->    3 (B3g) A     1 (Au) B     
  0.1454       2 (B1u) B     2 (B2g) A   ->    1 (Au) B      3 (B3g) A    
 -0.1258       1 (Au) A      1 (B2g) B   ->    2 (Au) A      2 (B2g) B    
  0.1258       1 (Au) A      1 (B2g) B   ->    2 (B2g) B     2 (Au) A     
  0.1258       1 (B2g) B     1 (Au) A    ->    2 (Au) A      2 (B2g) B    
 -0.1258       1 (B2g) B     1 (Au) A    ->    2 (B2g) B     2 (Au) A     
 -0.1163       1 (Au) A      2 (B1u) B   ->    2 (B3g) A     2 (B2g) B    
  0.1163       1 (Au) A      2 (B1u) B   ->    2 (B2g) B     2 (B3g) A    
  0.1163       2 (B1u) B     1 (Au) A    ->    2 (B3g) A     2 (B2g) B    
 -0.1163       2 (B1u) B     1 (Au) A    ->    2 (B2g) B     2 (B3g) A    

              Summary of significant orbitals:

               Number  Type             Irrep      Energy
               27      Occ  Alpha       2 (B2g)     -0.1020
               16      Occ  Alpha       1 (B3g)     -0.3773
               25      Occ  Alpha       1 (Au)     -0.2762
               33      Occ  Alpha       1 (B1u)     -0.5110
               20      Occ  Alpha       2 (B1u)     -0.3053
               20      Occ  Beta        1 (B2g)     -0.3463
               27      Occ  Beta        1 (B3g)     -0.2360
               26      Occ  Beta        1 (B1u)     -0.4364
               25      Occ  Beta        2 (B1u)     -0.2692
               43      Vir  Alpha       2 (B3g)      0.2585
               53      Vir  Alpha       3 (B3g)      0.5008
               50      Vir  Alpha       2 (Au)      0.3627
               40      Vir  Alpha       3 (B1u)      0.2393
               43      Vir  Beta        2 (B2g)      0.2578
               50      Vir  Beta        2 (B3g)      0.2942
               47      Vir  Beta        3 (B3g)      0.5800
               40      Vir  Beta        1 (Au)      0.0805
               53      Vir  Beta        3 (B1u)      0.3827


 EOMEE transition 3/Ag
 Total energy = -378.87655645 a.u.  Excitation energy = 7.4197 eV.
 R0^2 = 0.0093  R1^2 = 0.5830  R2^2 = 0.4170  Res^2 = 7.22e-06
 Conv-d = yes

 Amplitude    Transitions between orbitals
  0.4354       1 (B3g) A                 ->    2 (B3g) A                  
 -0.3930       2 (B1u) B                 ->    3 (B1u) B                  
  0.2742       1 (B3g) B                 ->    2 (B3g) B                  
 -0.2586       1 (B2g) B                 ->    2 (B2g) B                  
 -0.2349       2 (B1u) A                 ->    3 (B1u) A                  
  0.1956       1 (Au) A                  ->    2 (Au) A                   
  0.3958       2 (B2g) A     2 (B1u) B   ->    2 (B3g) A     1 (Au) B     
 -0.3958       2 (B2g) A     2 (B1u) B   ->    1 (Au) B      2 (B3g) A    
 -0.3958       2 (B1u) B     2 (B2g) A   ->    2 (B3g) A     1 (Au) B     
  0.3958       2 (B1u) B     2 (B2g) A   ->    1 (Au) B      2 (B3g) A    
 -0.1393       2 (B2g) A     1 (B3g) B   ->    2 (B3g) A     2 (B2g) B    
  0.1393       2 (B2g) A     1 (B3g) B   ->    2 (B2g) B     2 (B3g) A    
  0.1393       1 (B3g) B     2 (B2g) A   ->    2 (B3g) A     2 (B2g) B    
 -0.1393       1 (B3g) B     2 (B2g) A   ->    2 (B2g) B     2 (B3g) A    
 -0.1293       1 (Au) A      2 (B1u) B   ->    3 (B1u) A     1 (Au) B     
  0.1293       1 (Au) A      2 (B1u) B   ->    1 (Au) B      3 (B1u) A    
  0.1293       2 (B1u) B     1 (Au) A    ->    3 (B1u) A     1 (Au) B     
 -0.1293       2 (B1u) B     1 (Au) A    ->    1 (Au) B      3 (B1u) A    
 -0.1007       1 (Au) A      1 (B3g) B   ->    2 (B3g) A     1 (Au) B     
  0.1007       1 (Au) A      1 (B3g) B   ->    1 (Au) B      2 (B3g) A    
  0.1007       1 (B3g) B     1 (Au) A    ->    2 (B3g) A     1 (Au) B     
 -0.1007       1 (B3g) B     1 (Au) A    ->    1 (Au) B      2 (B3g) A    

              Summary of significant orbitals:

               Number  Type             Irrep      Energy
               27      Occ  Alpha       2 (B2g)     -0.1020
               16      Occ  Alpha       1 (B3g)     -0.3773
               25      Occ  Alpha       1 (Au)     -0.2762
               20      Occ  Alpha       2 (B1u)     -0.3053
               20      Occ  Beta        1 (B2g)     -0.3463
               27      Occ  Beta        1 (B3g)     -0.2360
               25      Occ  Beta        2 (B1u)     -0.2692
               43      Vir  Alpha       2 (B3g)      0.2585
               50      Vir  Alpha       2 (Au)      0.3627
               40      Vir  Alpha       3 (B1u)      0.2393
               43      Vir  Beta        2 (B2g)      0.2578
               50      Vir  Beta        2 (B3g)      0.2942
               40      Vir  Beta        1 (Au)      0.0805
               53      Vir  Beta        3 (B1u)      0.3827


 EOMEE transition 4/Ag
 Total energy = -378.86398859 a.u.  Excitation energy = 7.7617 eV.
 R0^2 = 0.0237  R1^2 = 0.4777  R2^2 = 0.5223  Res^2 = 2.74e-06
 Conv-d = yes

 Amplitude    Transitions between orbitals
 -0.4180       1 (B2g) B                 ->    2 (B2g) B                  
  0.3227       1 (B3g) B                 ->    2 (B3g) B                  
  0.2968       1 (Au) A                  ->    2 (Au) A                   
 -0.2264       2 (B1u) A                 ->    3 (B1u) A                  
 -0.1428       1 (B1u) B                 ->    3 (B1u) B                  
 -0.1186       1 (B3g) A                 ->    3 (B3g) A                  
 -0.1047       1 (B3g) A                 ->    2 (B3g) A                  
  0.3756       2 (B2g) A     1 (B3g) B   ->    3 (B1u) A     1 (Au) B     
 -0.3756       2 (B2g) A     1 (B3g) B   ->    1 (Au) B      3 (B1u) A    
 -0.3756       1 (B3g) B     2 (B2g) A   ->    3 (B1u) A     1 (Au) B     
  0.3756       1 (B3g) B     2 (B2g) A   ->    1 (Au) B      3 (B1u) A    
  0.1911       2 (B2g) A     2 (B1u) B   ->    2 (B3g) A     1 (Au) B     
 -0.1911       2 (B2g) A     2 (B1u) B   ->    1 (Au) B      2 (B3g) A    
 -0.1911       2 (B1u) B     2 (B2g) A   ->    2 (B3g) A     1 (Au) B     
  0.1911       2 (B1u) B     2 (B2g) A   ->    1 (Au) B      2 (B3g) A    
  0.1817       2 (B2g) A     1 (B3g) B   ->    2 (B3g) A     2 (B2g) B    
 -0.1817       2 (B2g) A     1 (B3g) B   ->    2 (B2g) B     2 (B3g) A    
 -0.1817       1 (B3g) B     2 (B2g) A   ->    2 (B3g) A     2 (B2g) B    
  0.1817       1 (B3g) B     2 (B2g) A   ->    2 (B2g) B     2 (B3g) A    
  0.1738       1 (Au) A      1 (B3g) B   ->    2 (B3g) A     1 (Au) B     
 -0.1738       1 (Au) A      1 (B3g) B   ->    1 (Au) B      2 (B3g) A    
 -0.1738       1 (B3g) B     1 (Au) A    ->    2 (B3g) A     1 (Au) B     
  0.1738       1 (B3g) B     1 (Au) A    ->    1 (Au) B      2 (B3g) A    
  0.1708       1 (Au) A      1 (B3g) B   ->    3 (B1u) A     2 (B2g) B    
 -0.1708       1 (Au) A      1 (B3g) B   ->    2 (B2g) B     3 (B1u) A    
 -0.1708       1 (B3g) B     1 (Au) A    ->    3 (B1u) A     2 (B2g) B    
  0.1708       1 (B3g) B     1 (Au) A    ->    2 (B2g) B     3 (B1u) A    
  0.1669       1 (Au) A      2 (B1u) B   ->    3 (B1u) A     1 (Au) B     
 -0.1669       1 (Au) A      2 (B1u) B   ->    1 (Au) B      3 (B1u) A    
 -0.1669       2 (B1u) B     1 (Au) A    ->    3 (B1u) A     1 (Au) B     
  0.1669       2 (B1u) B     1 (Au) A    ->    1 (Au) B      3 (B1u) A    
  0.1584       2 (B2g) A     2 (B1u) B   ->    3 (B1u) A     2 (B2g) B    
 -0.1584       2 (B2g) A     2 (B1u) B   ->    2 (B2g) B     3 (B1u) A    
 -0.1584       2 (B1u) B     2 (B2g) A   ->    3 (B1u) A     2 (B2g) B    
  0.1584       2 (B1u) B     2 (B2g) A   ->    2 (B2g) B     3 (B1u) A    
 -0.1134       2 (B2g) A     1 (B1u) B   ->    3 (B3g) A     1 (Au) B     
  0.1134       2 (B2g) A     1 (B1u) B   ->    1 (Au) B      3 (B3g) A    
  0.1134       1 (B1u) B     2 (B2g) A   ->    3 (B3g) A     1 (Au) B     
 -0.1134       1 (B1u) B     2 (B2g) A   ->    1 (Au) B      3 (B3g) A    
 -0.1032       2 (B2g) A     1 (B1u) B   ->    2 (B3g) A     1 (Au) B     
  0.1032       2 (B2g) A     1 (B1u) B   ->    1 (Au) B      2 (B3g) A    
  0.1032       1 (B1u) B     2 (B2g) A   ->    2 (B3g) A     1 (Au) B     
 -0.1032       1 (B1u) B     2 (B2g) A   ->    1 (Au) B      2 (B3g) A    

              Summary of significant orbitals:

               Number  Type             Irrep      Energy
               27      Occ  Alpha       2 (B2g)     -0.1020
               16      Occ  Alpha       1 (B3g)     -0.3773
               25      Occ  Alpha       1 (Au)     -0.2762
               20      Occ  Alpha       2 (B1u)     -0.3053
               20      Occ  Beta        1 (B2g)     -0.3463
               27      Occ  Beta        1 (B3g)     -0.2360
               26      Occ  Beta        1 (B1u)     -0.4364
               25      Occ  Beta        2 (B1u)     -0.2692
               43      Vir  Alpha       2 (B3g)      0.2585
               53      Vir  Alpha       3 (B3g)      0.5008
               50      Vir  Alpha       2 (Au)      0.3627
               40      Vir  Alpha       3 (B1u)      0.2393
               43      Vir  Beta        2 (B2g)      0.2578
               50      Vir  Beta        2 (B3g)      0.2942
               40      Vir  Beta        1 (Au)      0.0805
               53      Vir  Beta        3 (B1u)      0.3827


 EOMEE transition 5/Ag
 Total energy = -378.82438775 a.u.  Excitation energy = 8.8393 eV.
 R0^2 = 0.0001  R1^2 = 0.8902  R2^2 = 0.1098  Res^2 = 6.01e-06
 Conv-d = yes

 Amplitude    Transitions between orbitals
 -0.6210       2 (B1u) A                 ->    3 (B1u) A                  
 -0.5537       1 (B3g) B                 ->    2 (B3g) B                  
  0.2745       2 (B1u) B                 ->    3 (B1u) B                  
  0.2740       1 (B3g) A                 ->    2 (B3g) A                  
  0.1572       1 (Au) A                  ->    2 (Au) A                   
  0.1150       1 (B2g) B                 ->    2 (B2g) B                  

              Summary of significant orbitals:

               Number  Type             Irrep      Energy
               16      Occ  Alpha       1 (B3g)     -0.3773
               25      Occ  Alpha       1 (Au)     -0.2762
               20      Occ  Alpha       2 (B1u)     -0.3053
               20      Occ  Beta        1 (B2g)     -0.3463
               27      Occ  Beta        1 (B3g)     -0.2360
               25      Occ  Beta        2 (B1u)     -0.2692
               43      Vir  Alpha       2 (B3g)      0.2585
               50      Vir  Alpha       2 (Au)      0.3627
               40      Vir  Alpha       3 (B1u)      0.2393
               43      Vir  Beta        2 (B2g)      0.2578
               50      Vir  Beta        2 (B3g)      0.2942
               53      Vir  Beta        3 (B1u)      0.3827


Running a double precision version
      EOM-CCSD/MP2 left amplitudes will be solved using Davidson.
        Amplitudes will be solved using MOM  algorithm.
     Hard-coded thresholds: 
     LinDepThresh=1.00e-15  NormThresh=1.00e-06  ReorthogonThresh=1.00e-02

      Roots     MaxVec    MaxIter   Precond   Conv      Shift    
      5         120       60        1         1.00e-05  0.00e+00  
 ------------------------------------------------------------------------------
      Iter ConvRoots NVecs ResNorm^2 Current eigenvalues (eV)
 ------------------------------------------------------------------------------
      0    0      5     9.21e-03   5.0903   6.1054   7.4197   7.7617   8.8393   
      1    0      10    1.85e-03   5.0902   6.1055   7.4196   7.7618   8.8395   
      2    0      15    2.05e-04   5.0902   6.1056   7.4196   7.7619   8.8397   
      3    0      20    6.70e-05   5.0902   6.1055   7.4195   7.7618   8.8395   
      4    2      25    2.03e-05   5.0902*  6.1056*  7.4194   7.7618   8.8395   
      5    3      28    1.00e-05   5.0902*  6.1056*  7.4194*  7.7618   8.8394   
      6    4      30    6.77e-06   5.0902*  6.1056*  7.4194*  7.7617   8.8394*  
      7    5      31    5.39e-06   5.0902*  6.1056*  7.4194*  7.7617*  8.8393*  

     Davidson procedure converged

 EOMEE-CCSD transition 1/Ag
S^2 calculation will be performed in  double precision
 EOMEE-CCSD transition 2/Ag
S^2 calculation will be performed in  double precision
 EOMEE-CCSD transition 3/Ag
S^2 calculation will be performed in  double precision
 EOMEE-CCSD transition 4/Ag
S^2 calculation will be performed in  double precision
 EOMEE-CCSD transition 5/Ag
S^2 calculation will be performed in  double precision
 Excited state properties for  EOMEE-CCSD transition 1/Ag
 Dipole moment (a.u.): 0.000000 (X 0.000000, Y 0.000000, Z 0.000000)
 R-squared (a.u.): 1307.136863 (XX 887.757062, YY 377.600863, ZZ 41.778938)
 Gauge origin (a.u.): (0.000000, 0.000000, 0.000000)
 Angular momentum (a.u.) against gauge origin: 
 (X 0.000000i, Y 0.000000i, Z 0.000000i)
 Traces of the OPDMs: Tr(AA) 35.000000, Tr(BB) 33.000000
 <S^2> = 2.249854

 Excited state properties for  EOMEE-CCSD transition 2/Ag
 Dipole moment (a.u.): 0.000000 (X 0.000000, Y 0.000000, Z 0.000000)
 R-squared (a.u.): 1307.244820 (XX 888.068390, YY 377.438420, ZZ 41.738009)
 Gauge origin (a.u.): (0.000000, 0.000000, 0.000000)
 Angular momentum (a.u.) against gauge origin: 
 (X 0.000000i, Y 0.000000i, Z 0.000000i)
 Traces of the OPDMs: Tr(AA) 35.000000, Tr(BB) 33.000000
 <S^2> = 3.261200

 Excited state properties for  EOMEE-CCSD transition 3/Ag
 Dipole moment (a.u.): 0.000000 (X 0.000000, Y 0.000000, Z 0.000000)
 R-squared (a.u.): 1307.523906 (XX 888.340241, YY 377.425036, ZZ 41.758630)
 Gauge origin (a.u.): (0.000000, 0.000000, 0.000000)
 Angular momentum (a.u.) against gauge origin: 
 (X 0.000000i, Y 0.000000i, Z 0.000000i)
 Traces of the OPDMs: Tr(AA) 35.000000, Tr(BB) 33.000000
 <S^2> = 2.786153

 Excited state properties for  EOMEE-CCSD transition 4/Ag
 Dipole moment (a.u.): 0.000000 (X 0.000000, Y 0.000000, Z 0.000000)
 R-squared (a.u.): 1307.225725 (XX 888.000891, YY 377.482344, ZZ 41.742489)
 Gauge origin (a.u.): (0.000000, 0.000000, 0.000000)
 Angular momentum (a.u.) against gauge origin: 
 (X 0.000000i, Y 0.000000i, Z 0.000000i)
 Traces of the OPDMs: Tr(AA) 35.000000, Tr(BB) 33.000000
 <S^2> = 3.727690

 Excited state properties for  EOMEE-CCSD transition 5/Ag
 Dipole moment (a.u.): 0.000000 (X 0.000000, Y 0.000000, Z 0.000000)
 R-squared (a.u.): 1307.327226 (XX 888.084036, YY 377.484025, ZZ 41.759165)
 Gauge origin (a.u.): (0.000000, 0.000000, 0.000000)
 Angular momentum (a.u.) against gauge origin: 
 (X 0.000000i, Y 0.000000i, Z 0.000000i)
 Traces of the OPDMs: Tr(AA) 35.000000, Tr(BB) 33.000000
 <S^2> = 4.362747

        Solving for EOMEE-CCSD B1g transitions.

Running a double precision version
        EOMEE-CCSD/MP2 right amplitudes will be solved using Davidson.
        Amplitudes will be solved using standard  algorithm.
     Hard-coded thresholds: 
     LinDepThresh=1.00e-15  NormThresh=1.00e-06  ReorthogonThresh=1.00e-02

      Roots     MaxVec    MaxIter   Precond   Conv      Shift    
      5         120       60        1         1.00e-05  0.00e+00  
 ------------------------------------------------------------------------------
      Iter ConvRoots NVecs ResNorm^2 Current eigenvalues (eV)
 ------------------------------------------------------------------------------
      0    0      5     1.39e-01   6.0436   7.0647   8.6177   11.5006   11.8417   
      1    0      10    1.62e-02   2.7651   4.2347   5.6419   7.9134   8.7896   
      2    0      15    5.34e-03   2.0563   3.9883   4.7570   7.0075   8.3485   
      3    0      20    1.46e-03   1.9803   3.9819   4.5284   6.6470   8.2008   
      4    0      25    4.56e-04   1.9664   3.9904   4.4750   6.5175   8.1650   
      5    1      30    1.60e-04   1.9568   3.9934*  4.4646   6.4612   8.1438   
      6    1      34    3.18e-04   1.9530   3.9935*  4.4616   6.4459   8.1024   
      7    3      38    1.99e-03   1.9534*  3.9935*  4.4606*  6.4435   7.6801   
      8    3      40    5.42e-04   1.9539*  3.9935*  4.4606*  6.4427   7.3907   
      9    4      42    1.04e-04   1.9541*  3.9935*  4.4606*  6.4418*  7.3258   
      10   4      43    2.54e-05   1.9543*  3.9935*  4.4606*  6.4409*  7.3081   
      11   4      44    7.80e-06   1.9545*  3.9935*  4.4606*  6.4404*  7.2988   
      12   5      45    2.92e-06   1.9546*  3.9934*  4.4606*  6.4401*  7.2928*  

     Davidson procedure converged

 EOMEE transition 1/B1g
 Total energy = -379.07739261 a.u.  Excitation energy = 1.9546 eV.
 R0^2 = 0.0000  R1^2 = 0.8614  R2^2 = 0.1386  Res^2 = 9.35e-07
 Conv-d = yes

 Amplitude    Transitions between orbitals
 -0.6459       2 (B1u) B                 ->    1 (Au) B                   
  0.6037       2 (B2g) A                 ->    2 (B3g) A                  
  0.1370       1 (B2g) B                 ->    2 (B3g) B                  
  0.1360       1 (B3g) B                 ->    2 (B2g) B                  
 -0.1305       2 (B1u) A                 ->    2 (Au) A                   
 -0.1262       1 (Au) A                  ->    3 (B1u) A                  

              Summary of significant orbitals:

               Number  Type             Irrep      Energy
               27      Occ  Alpha       2 (B2g)     -0.1020
               25      Occ  Alpha       1 (Au)     -0.2762
               20      Occ  Alpha       2 (B1u)     -0.3053
               20      Occ  Beta        1 (B2g)     -0.3463
               27      Occ  Beta        1 (B3g)     -0.2360
               25      Occ  Beta        2 (B1u)     -0.2692
               43      Vir  Alpha       2 (B3g)      0.2585
               50      Vir  Alpha       2 (Au)      0.3627
               40      Vir  Alpha       3 (B1u)      0.2393
               43      Vir  Beta        2 (B2g)      0.2578
               50      Vir  Beta        2 (B3g)      0.2942
               40      Vir  Beta        1 (Au)      0.0805


 EOMEE transition 2/B1g
 Total energy = -379.00246846 a.u.  Excitation energy = 3.9934 eV.
 R0^2 = 0.0000  R1^2 = 0.9023  R2^2 = 0.0977  Res^2 = 2.42e-06
 Conv-d = yes

 Amplitude    Transitions between orbitals
 -0.6808       2 (B2g) A                 ->    2 (B3g) A                  
 -0.6487       2 (B1u) B                 ->    1 (Au) B                   
  0.0739       1 (B1u) B                 ->    1 (Au) B                   
 -0.0636       2 (B1u) B                 ->    2 (Au) B                   

              Summary of significant orbitals:

               Number  Type             Irrep      Energy
               27      Occ  Alpha       2 (B2g)     -0.1020
               26      Occ  Beta        1 (B1u)     -0.4364
               25      Occ  Beta        2 (B1u)     -0.2692
               43      Vir  Alpha       2 (B3g)      0.2585
               40      Vir  Beta        1 (Au)      0.0805
               46      Vir  Beta        2 (Au)      0.4489


 EOMEE transition 3/B1g
 Total energy = -378.98530067 a.u.  Excitation energy = 4.4606 eV.
 R0^2 = 0.0000  R1^2 = 0.8308  R2^2 = 0.1692  Res^2 = 2.07e-06
 Conv-d = yes

 Amplitude    Transitions between orbitals
 -0.5450       1 (B3g) B                 ->    2 (B2g) B                  
  0.4934       1 (Au) A                  ->    3 (B1u) A                  
 -0.4043       1 (B1u) B                 ->    1 (Au) B                   
 -0.2859       2 (B2g) A                 ->    3 (B3g) A                  
 -0.1072       2 (B1u) B                 ->    1 (Au) B                   

              Summary of significant orbitals:

               Number  Type             Irrep      Energy
               27      Occ  Alpha       2 (B2g)     -0.1020
               25      Occ  Alpha       1 (Au)     -0.2762
               27      Occ  Beta        1 (B3g)     -0.2360
               26      Occ  Beta        1 (B1u)     -0.4364
               25      Occ  Beta        2 (B1u)     -0.2692
               53      Vir  Alpha       3 (B3g)      0.5008
               40      Vir  Alpha       3 (B1u)      0.2393
               43      Vir  Beta        2 (B2g)      0.2578
               40      Vir  Beta        1 (Au)      0.0805


 EOMEE transition 4/B1g
 Total energy = -378.91255448 a.u.  Excitation energy = 6.4401 eV.
 R0^2 = 0.0000  R1^2 = 0.8101  R2^2 = 0.1899  Res^2 = 1.43e-06
 Conv-d = yes

 Amplitude    Transitions between orbitals
  0.5950       1 (B1u) B                 ->    1 (Au) B                   
 -0.3613       1 (B3g) B                 ->    2 (B2g) B                  
  0.2946       2 (B2g) A                 ->    3 (B3g) A                  
  0.2234       1 (Au) A                  ->    3 (B1u) A                  
 -0.2207       1 (B2g) B                 ->    2 (B3g) B                  
  0.1969       2 (B1u) A                 ->    2 (Au) A                   
 -0.1725       1 (B2g) A                 ->    2 (B3g) A                  
  0.1624       2 (B2g) A                 ->    2 (B3g) A                  
 -0.1363       2 (B1u) B                 ->    2 (Au) B                   
 -0.1145       2 (B1u) B                 ->    1 (Au) B                   

              Summary of significant orbitals:

               Number  Type             Irrep      Energy
               22      Occ  Alpha       1 (B2g)     -0.4274
               27      Occ  Alpha       2 (B2g)     -0.1020
               25      Occ  Alpha       1 (Au)     -0.2762
               20      Occ  Alpha       2 (B1u)     -0.3053
               20      Occ  Beta        1 (B2g)     -0.3463
               27      Occ  Beta        1 (B3g)     -0.2360
               26      Occ  Beta        1 (B1u)     -0.4364
               25      Occ  Beta        2 (B1u)     -0.2692
               43      Vir  Alpha       2 (B3g)      0.2585
               53      Vir  Alpha       3 (B3g)      0.5008
               50      Vir  Alpha       2 (Au)      0.3627
               40      Vir  Alpha       3 (B1u)      0.2393
               43      Vir  Beta        2 (B2g)      0.2578
               50      Vir  Beta        2 (B3g)      0.2942
               40      Vir  Beta        1 (Au)      0.0805
               46      Vir  Beta        2 (Au)      0.4489


 EOMEE transition 5/B1g
 Total energy = -378.88121888 a.u.  Excitation energy = 7.2928 eV.
 R0^2 = 0.0000  R1^2 = 0.6479  R2^2 = 0.3521  Res^2 = 7.76e-06
 Conv-d = yes

 Amplitude    Transitions between orbitals
  0.3797       1 (B2g) A                 ->    2 (B3g) A                  
  0.3639       1 (B2g) B                 ->    2 (B3g) B                  
  0.3408       2 (B1u) B                 ->    2 (Au) B                   
 -0.3118       2 (B1u) A                 ->    2 (Au) A                   
  0.2811       1 (B1u) B                 ->    1 (Au) B                   
 -0.1374       1 (B3g) B                 ->    2 (B2g) B                  
  0.1196       1 (B1u) B                 ->    2 (Au) B                   
 -0.1189       1 (B1u) A                 ->    2 (Au) A                   
 -0.1066       1 (B2g) B                 ->    3 (B3g) B                  

              Summary of significant orbitals:

               Number  Type             Irrep      Energy
               22      Occ  Alpha       1 (B2g)     -0.4274
               33      Occ  Alpha       1 (B1u)     -0.5110
               20      Occ  Alpha       2 (B1u)     -0.3053
               20      Occ  Beta        1 (B2g)     -0.3463
               27      Occ  Beta        1 (B3g)     -0.2360
               26      Occ  Beta        1 (B1u)     -0.4364
               25      Occ  Beta        2 (B1u)     -0.2692
               43      Vir  Alpha       2 (B3g)      0.2585
               50      Vir  Alpha       2 (Au)      0.3627
               43      Vir  Beta        2 (B2g)      0.2578
               50      Vir  Beta        2 (B3g)      0.2942
               47      Vir  Beta        3 (B3g)      0.5800
               40      Vir  Beta        1 (Au)      0.0805
               46      Vir  Beta        2 (Au)      0.4489


Running a double precision version
      EOM-CCSD/MP2 left amplitudes will be solved using Davidson.
        Amplitudes will be solved using MOM  algorithm.
     Hard-coded thresholds: 
     LinDepThresh=1.00e-15  NormThresh=1.00e-06  ReorthogonThresh=1.00e-02

      Roots     MaxVec    MaxIter   Precond   Conv      Shift    
      5         120       60        1         1.00e-05  0.00e+00  
 ------------------------------------------------------------------------------
      Iter ConvRoots NVecs ResNorm^2 Current eigenvalues (eV)
 ------------------------------------------------------------------------------
      0    0      5     1.12e-02   1.9546   3.9934   4.4606   6.4401   7.2928   
      1    0      10    2.69e-03   1.9543   3.9932   4.4608   6.4401   7.2912   
      2    0      15    3.82e-04   1.9543   3.9935   4.4609   6.4402   7.2906   
      3    0      20    6.27e-05   1.9542   3.9936   4.4609   6.4403   7.2903   
      4    3      25    1.50e-05   1.9542*  3.9936*  4.4609*  6.4403   7.2903   
      5    4      27    7.98e-06   1.9542*  3.9936*  4.4609*  6.4403*  7.2902   
      6    5      28    5.68e-06   1.9542*  3.9936*  4.4609*  6.4404*  7.2902*  

     Davidson procedure converged

 EOMEE-CCSD transition 1/B1g
S^2 calculation will be performed in  double precision
 EOMEE-CCSD transition 2/B1g
S^2 calculation will be performed in  double precision
 EOMEE-CCSD transition 3/B1g
S^2 calculation will be performed in  double precision
 EOMEE-CCSD transition 4/B1g
S^2 calculation will be performed in  double precision
 EOMEE-CCSD transition 5/B1g
S^2 calculation will be performed in  double precision
 Excited state properties for  EOMEE-CCSD transition 1/B1g
 Dipole moment (a.u.): 0.000000 (X 0.000000, Y 0.000000, Z 0.000000)
 R-squared (a.u.): 1306.869099 (XX 887.313271, YY 377.618102, ZZ 41.937726)
 Gauge origin (a.u.): (0.000000, 0.000000, 0.000000)
 Angular momentum (a.u.) against gauge origin: 
 (X 0.000000i, Y 0.000000i, Z 0.000000i)
 Traces of the OPDMs: Tr(AA) 35.000000, Tr(BB) 33.000000
 <S^2> = 2.051141

 Excited state properties for  EOMEE-CCSD transition 2/B1g
 Dipole moment (a.u.): 0.000000 (X 0.000000, Y 0.000000, Z 0.000000)
 R-squared (a.u.): 1307.198851 (XX 887.947483, YY 377.267644, ZZ 41.983724)
 Gauge origin (a.u.): (0.000000, 0.000000, 0.000000)
 Angular momentum (a.u.) against gauge origin: 
 (X 0.000000i, Y 0.000000i, Z 0.000000i)
 Traces of the OPDMs: Tr(AA) 35.000000, Tr(BB) 33.000000
 <S^2> = 2.014186

 Excited state properties for  EOMEE-CCSD transition 3/B1g
 Dipole moment (a.u.): 0.000000 (X 0.000000, Y 0.000000, Z 0.000000)
 R-squared (a.u.): 1307.187794 (XX 887.966862, YY 377.437767, ZZ 41.783165)
 Gauge origin (a.u.): (0.000000, 0.000000, 0.000000)
 Angular momentum (a.u.) against gauge origin: 
 (X 0.000000i, Y 0.000000i, Z 0.000000i)
 Traces of the OPDMs: Tr(AA) 35.000000, Tr(BB) 33.000000
 <S^2> = 2.042691

 Excited state properties for  EOMEE-CCSD transition 4/B1g
 Dipole moment (a.u.): 0.000000 (X 0.000000, Y 0.000000, Z 0.000000)
 R-squared (a.u.): 1308.476390 (XX 889.117594, YY 377.577136, ZZ 41.781660)
 Gauge origin (a.u.): (0.000000, 0.000000, 0.000000)
 Angular momentum (a.u.) against gauge origin: 
 (X 0.000000i, Y 0.000000i, Z 0.000000i)
 Traces of the OPDMs: Tr(AA) 35.000000, Tr(BB) 33.000000
 <S^2> = 2.368087

 Excited state properties for  EOMEE-CCSD transition 5/B1g
 Dipole moment (a.u.): 0.000000 (X 0.000000, Y 0.000000, Z 0.000000)
 R-squared (a.u.): 1306.996493 (XX 887.544651, YY 377.748769, ZZ 41.703073)
 Gauge origin (a.u.): (0.000000, 0.000000, 0.000000)
 Angular momentum (a.u.) against gauge origin: 
 (X 0.000000i, Y 0.000000i, Z 0.000000i)
 Traces of the OPDMs: Tr(AA) 35.000000, Tr(BB) 33.000000
 <S^2> = 5.268935

        Solving for EOMEE-CCSD B2g transitions.

Running a double precision version
        EOMEE-CCSD/MP2 right amplitudes will be solved using Davidson.
        Amplitudes will be solved using standard  algorithm.
     Hard-coded thresholds: 
     LinDepThresh=1.00e-15  NormThresh=1.00e-06  ReorthogonThresh=1.00e-02

      Roots     MaxVec    MaxIter   Precond   Conv      Shift    
      5         120       60        1         1.00e-05  0.00e+00  
 ------------------------------------------------------------------------------
      Iter ConvRoots NVecs ResNorm^2 Current eigenvalues (eV)
 ------------------------------------------------------------------------------
      0    0      5     1.53e-01   11.4423   12.4817   14.1280   14.8926   15.2576   
      1    0      10    1.66e-02   8.1732   9.3018   10.7876   10.9405   11.8862   
Found complex roots...
      2    0      15    4.29e-03   7.5484   8.7234   10.2307   10.2307   11.3459   
      3    0      19    1.80e-03   7.4369   8.6346   10.1124   10.2302   11.2783   
      4    0      24    5.33e-04   7.4122   8.6109   10.0666   10.1334   11.2657   
      5    0      29    2.04e-04   7.3985   8.5970   10.0157   10.1137   11.2543   
      6    0      34    1.19e-04   7.3918   8.5903   9.9792   10.0981   11.2412   
      7    1      39    9.30e-05   7.3905*  8.5892   9.9646   10.0849   11.2299   
      8    2      43    2.95e-03   7.3904*  8.5895*  9.9616   10.0725   10.9478   
      9    2      46    1.19e-03   7.3904*  8.5898*  9.9581   10.0533   10.3616   
      10   2      49    3.75e-04   7.3904*  8.5900*  9.9450   10.0135   10.1663   
      11   2      52    1.17e-04   7.3905*  8.5899*  9.9264   9.9926   10.1323   
      12   2      55    3.80e-05   7.3906*  8.5898*  9.9152   9.9861   10.1272   
      13   3      58    1.23e-05   7.3906*  8.5897*  9.9097   9.9840*  10.1261   
      14   5      60    4.38e-06   7.3906*  8.5897*  9.9088*  9.9835*  10.1262*  

     Davidson procedure converged

 EOMEE transition 1/B2g
 Total energy = -378.87762636 a.u.  Excitation energy = 7.3906 eV.
 R0^2 = 0.0000  R1^2 = 0.8746  R2^2 = 0.1254  Res^2 = 1.95e-06
 Conv-d = yes

 Amplitude    Transitions between orbitals
  0.8916       7 (B2u) B                 ->    1 (Au) B                   
 -0.1933       6 (B1g) B                 ->    2 (B3g) B                  
 -0.0938       5 (B2u) B                 ->    1 (Au) B                   
  0.0808       9 (Ag) B                  ->    2 (B2g) B                  

              Summary of significant orbitals:

               Number  Type             Irrep      Energy
               12      Occ  Beta        9 (Ag)     -0.4098
               16      Occ  Beta        6 (B1g)     -0.4061
               15      Occ  Beta        5 (B2u)     -0.7586
               17      Occ  Beta        7 (B2u)     -0.4853
               43      Vir  Beta        2 (B2g)      0.2578
               50      Vir  Beta        2 (B3g)      0.2942
               40      Vir  Beta        1 (Au)      0.0805


 EOMEE transition 2/B2g
 Total energy = -378.83355809 a.u.  Excitation energy = 8.5897 eV.
 R0^2 = 0.0000  R1^2 = 0.8705  R2^2 = 0.1295  Res^2 = 3.13e-06
 Conv-d = yes

 Amplitude    Transitions between orbitals
  0.7553       9 (Ag) B                  ->    2 (B2g) B                  
  0.4930       6 (B2u) B                 ->    1 (Au) B                   
  0.0996       7 (B3u) B                 ->    3 (B1u) B                  
  0.0825       6 (B2u) B                 ->    2 (Au) B                   

              Summary of significant orbitals:

               Number  Type             Irrep      Energy
               12      Occ  Beta        9 (Ag)     -0.4098
               32      Occ  Beta        6 (B2u)     -0.5647
               22      Occ  Beta        7 (B3u)     -0.4704
               43      Vir  Beta        2 (B2g)      0.2578
               40      Vir  Beta        1 (Au)      0.0805
               46      Vir  Beta        2 (Au)      0.4489
               53      Vir  Beta        3 (B1u)      0.3827


 EOMEE transition 3/B2g
 Total energy = -378.78508421 a.u.  Excitation energy = 9.9088 eV.
 R0^2 = 0.0000  R1^2 = 0.8066  R2^2 = 0.1934  Res^2 = 8.21e-06
 Conv-d = yes

 Amplitude    Transitions between orbitals
  0.6380       6 (B1g) B                 ->    2 (B3g) B                  
  0.4453       6 (B2u) B                 ->    1 (Au) B                   
 -0.3192       9 (Ag) B                  ->    2 (B2g) B                  
 -0.2054       6 (B1g) A                 ->    2 (B3g) A                  
  0.1141       7 (B2u) B                 ->    2 (Au) B                   
  0.1076       7 (B2u) B                 ->    1 (Au) B                   

              Summary of significant orbitals:

               Number  Type             Irrep      Energy
               12      Occ  Alpha       6 (B1g)     -0.4155
               12      Occ  Beta        9 (Ag)     -0.4098
               16      Occ  Beta        6 (B1g)     -0.4061
               32      Occ  Beta        6 (B2u)     -0.5647
               17      Occ  Beta        7 (B2u)     -0.4853
               43      Vir  Alpha       2 (B3g)      0.2585
               43      Vir  Beta        2 (B2g)      0.2578
               50      Vir  Beta        2 (B3g)      0.2942
               40      Vir  Beta        1 (Au)      0.0805
               46      Vir  Beta        2 (Au)      0.4489


 EOMEE transition 4/B2g
 Total energy = -378.78233671 a.u.  Excitation energy = 9.9835 eV.
 R0^2 = 0.0000  R1^2 = 0.7396  R2^2 = 0.2604  Res^2 = 2.88e-06
 Conv-d = yes

 Amplitude    Transitions between orbitals
 -0.6823       6 (B2u) B                 ->    1 (Au) B                   
  0.4014       9 (Ag) B                  ->    2 (B2g) B                  
 -0.2262       6 (B1g) A                 ->    2 (B3g) A                  
  0.1510       6 (B1g) B                 ->    2 (B3g) B                  

              Summary of significant orbitals:

               Number  Type             Irrep      Energy
               12      Occ  Alpha       6 (B1g)     -0.4155
               12      Occ  Beta        9 (Ag)     -0.4098
               16      Occ  Beta        6 (B1g)     -0.4061
               32      Occ  Beta        6 (B2u)     -0.5647
               43      Vir  Alpha       2 (B3g)      0.2585
               43      Vir  Beta        2 (B2g)      0.2578
               50      Vir  Beta        2 (B3g)      0.2942
               40      Vir  Beta        1 (Au)      0.0805


 EOMEE transition 5/B2g
 Total energy = -378.77709417 a.u.  Excitation energy = 10.1262 eV.
 R0^2 = 0.0000  R1^2 = 0.8409  R2^2 = 0.1591  Res^2 = 5.74e-06
 Conv-d = yes

 Amplitude    Transitions between orbitals
 -0.8029       6 (B1g) A                 ->    2 (B3g) A                  
 -0.2932       6 (B1g) B                 ->    2 (B3g) B                  
 -0.1901       7 (B2u) A                 ->    2 (Au) A                   
  0.1672       6 (B2u) B                 ->    1 (Au) B                   
 -0.1245       9 (Ag) B                  ->    2 (B2g) B                  

              Summary of significant orbitals:

               Number  Type             Irrep      Energy
               12      Occ  Alpha       6 (B1g)     -0.4155
               13      Occ  Alpha       7 (B2u)     -0.4944
               12      Occ  Beta        9 (Ag)     -0.4098
               16      Occ  Beta        6 (B1g)     -0.4061
               32      Occ  Beta        6 (B2u)     -0.5647
               43      Vir  Alpha       2 (B3g)      0.2585
               50      Vir  Alpha       2 (Au)      0.3627
               43      Vir  Beta        2 (B2g)      0.2578
               50      Vir  Beta        2 (B3g)      0.2942
               40      Vir  Beta        1 (Au)      0.0805


Running a double precision version
      EOM-CCSD/MP2 left amplitudes will be solved using Davidson.
        Amplitudes will be solved using MOM  algorithm.
     Hard-coded thresholds: 
     LinDepThresh=1.00e-15  NormThresh=1.00e-06  ReorthogonThresh=1.00e-02

      Roots     MaxVec    MaxIter   Precond   Conv      Shift    
      5         120       60        1         1.00e-05  0.00e+00  
 ------------------------------------------------------------------------------
      Iter ConvRoots NVecs ResNorm^2 Current eigenvalues (eV)
 ------------------------------------------------------------------------------
      0    0      5     1.49e-02   7.3906   8.5897   9.9088   9.9835   10.1262   
      1    0      10    3.68e-03   7.3905   8.5900   9.9087   9.9834   10.1261   
      2    0      15    4.06e-04   7.3906   8.5902   9.9090   9.9834   10.1260   
      3    0      20    7.81e-05   7.3905   8.5902   9.9089   9.9833   10.1260   
      4    0      25    2.21e-05   7.3906   8.5903   9.9089   9.9833   10.1260   
      5    3      30    8.02e-06   7.3905*  8.5902*  9.9089   9.9833   10.1260*  
      6    5      32    4.44e-06   7.3905*  8.5902*  9.9088*  9.9833*  10.1259*  

     Davidson procedure converged

 EOMEE-CCSD transition 1/B2g
S^2 calculation will be performed in  double precision
 EOMEE-CCSD transition 2/B2g
S^2 calculation will be performed in  double precision
 EOMEE-CCSD transition 3/B2g
S^2 calculation will be performed in  double precision
 EOMEE-CCSD transition 4/B2g
S^2 calculation will be performed in  double precision
 EOMEE-CCSD transition 5/B2g
S^2 calculation will be performed in  double precision
 Excited state properties for  EOMEE-CCSD transition 1/B2g
 Dipole moment (a.u.): 0.000000 (X 0.000000, Y 0.000000, Z 0.000000)
 R-squared (a.u.): 1301.476765 (XX 881.262303, YY 377.212237, ZZ 43.002225)
 Gauge origin (a.u.): (0.000000, 0.000000, 0.000000)
 Angular momentum (a.u.) against gauge origin: 
 (X 0.000000i, Y 0.000000i, Z 0.000000i)
 Traces of the OPDMs: Tr(AA) 35.000000, Tr(BB) 33.000000
 <S^2> = 2.054604

 Excited state properties for  EOMEE-CCSD transition 2/B2g
 Dipole moment (a.u.): 0.000000 (X 0.000000, Y 0.000000, Z 0.000000)
 R-squared (a.u.): 1305.255263 (XX 888.391180, YY 373.945461, ZZ 42.918622)
 Gauge origin (a.u.): (0.000000, 0.000000, 0.000000)
 Angular momentum (a.u.) against gauge origin: 
 (X 0.000000i, Y 0.000000i, Z 0.000000i)
 Traces of the OPDMs: Tr(AA) 35.000000, Tr(BB) 33.000000
 <S^2> = 2.039970

 Excited state properties for  EOMEE-CCSD transition 3/B2g
 Dipole moment (a.u.): 0.000000 (X 0.000000, Y 0.000000, Z 0.000000)
 R-squared (a.u.): 1304.614053 (XX 886.573106, YY 375.144032, ZZ 42.896916)
 Gauge origin (a.u.): (0.000000, 0.000000, 0.000000)
 Angular momentum (a.u.) against gauge origin: 
 (X 0.000000i, Y 0.000000i, Z 0.000000i)
 Traces of the OPDMs: Tr(AA) 35.000000, Tr(BB) 33.000000
 <S^2> = 3.229229

 Excited state properties for  EOMEE-CCSD transition 4/B2g
 Dipole moment (a.u.): 0.000000 (X 0.000000, Y 0.000000, Z 0.000000)
 R-squared (a.u.): 1304.572673 (XX 887.631343, YY 374.028847, ZZ 42.912483)
 Gauge origin (a.u.): (0.000000, 0.000000, 0.000000)
 Angular momentum (a.u.) against gauge origin: 
 (X 0.000000i, Y 0.000000i, Z 0.000000i)
 Traces of the OPDMs: Tr(AA) 35.000000, Tr(BB) 33.000000
 <S^2> = 2.464267

 Excited state properties for  EOMEE-CCSD transition 5/B2g
 Dipole moment (a.u.): 0.000000 (X 0.000000, Y 0.000000, Z 0.000000)
 R-squared (a.u.): 1304.636486 (XX 886.053631, YY 375.710122, ZZ 42.872733)
 Gauge origin (a.u.): (0.000000, 0.000000, 0.000000)
 Angular momentum (a.u.) against gauge origin: 
 (X 0.000000i, Y 0.000000i, Z 0.000000i)
 Traces of the OPDMs: Tr(AA) 35.000000, Tr(BB) 33.000000
 <S^2> = 2.393750

        Solving for EOMEE-CCSD B3g transitions.

Running a double precision version
        EOMEE-CCSD/MP2 right amplitudes will be solved using Davidson.
        Amplitudes will be solved using standard  algorithm.
     Hard-coded thresholds: 
     LinDepThresh=1.00e-15  NormThresh=1.00e-06  ReorthogonThresh=1.00e-02

      Roots     MaxVec    MaxIter   Precond   Conv      Shift    
      5         120       60        1         1.00e-05  0.00e+00  
 ------------------------------------------------------------------------------
      Iter ConvRoots NVecs ResNorm^2 Current eigenvalues (eV)
 ------------------------------------------------------------------------------
      0    0      5     1.54e-01   10.5906   11.3985   14.0883   14.0960   14.9388   
      1    0      10    1.55e-02   7.5315   8.2770   9.9265   10.8259   11.2707   
      2    0      15    4.09e-03   7.0322   7.7516   9.2268   10.2653   10.6122   
      3    0      20    1.35e-03   6.9793   7.6762   9.1068   10.1533   10.4310   
      4    0      25    5.82e-04   6.9728   7.6628   9.0712   10.1010   10.3580   
      5    0      30    3.07e-04   6.9674   7.6514   9.0389   10.0380   10.3081   
      6    1      35    1.26e-04   6.9642*  7.6465   9.0239   9.9989   10.2862   
      7    2      39    4.67e-05   6.9640*  7.6453*  9.0218   9.9840   10.2774   
      8    3      42    2.03e-05   6.9640*  7.6452*  9.0232*  9.9805   10.2745   
      9    3      44    8.57e-06   6.9640*  7.6453*  9.0232*  9.9784   10.2735   
      10   5      46    4.93e-06   6.9639*  7.6453*  9.0232*  9.9780*  10.2735*  

     Davidson procedure converged

 EOMEE transition 1/B3g
 Total energy = -378.89330414 a.u.  Excitation energy = 6.9639 eV.
 R0^2 = 0.0000  R1^2 = 0.8903  R2^2 = 0.1097  Res^2 = 5.04e-06
 Conv-d = yes

 Amplitude    Transitions between orbitals
 -0.8434       7 (B3u) B                 ->    1 (Au) B                   
  0.3179       6 (B3u) B                 ->    1 (Au) B                   
 -0.1757       6 (B1g) B                 ->    2 (B2g) B                  
  0.1227       9 (Ag) B                  ->    2 (B3g) B                  
 -0.1019       8 (Ag) B                  ->    2 (B3g) B                  

              Summary of significant orbitals:

               Number  Type             Irrep      Energy
               28      Occ  Beta        8 (Ag)     -0.5484
               12      Occ  Beta        9 (Ag)     -0.4098
               16      Occ  Beta        6 (B1g)     -0.4061
               13      Occ  Beta        6 (B3u)     -0.5109
               22      Occ  Beta        7 (B3u)     -0.4704
               43      Vir  Beta        2 (B2g)      0.2578
               50      Vir  Beta        2 (B3g)      0.2942
               40      Vir  Beta        1 (Au)      0.0805


 EOMEE transition 2/B3g
 Total energy = -378.86826620 a.u.  Excitation energy = 7.6453 eV.
 R0^2 = 0.0000  R1^2 = 0.8845  R2^2 = 0.1155  Res^2 = 1.53e-06
 Conv-d = yes

 Amplitude    Transitions between orbitals
  0.7728       6 (B3u) B                 ->    1 (Au) B                   
  0.3433       7 (B3u) B                 ->    1 (Au) B                   
 -0.3376       6 (B1g) B                 ->    2 (B2g) B                  
  0.1238       5 (B1g) B                 ->    2 (B2g) B                  

              Summary of significant orbitals:

               Number  Type             Irrep      Energy
               33      Occ  Beta        5 (B1g)     -0.5131
               16      Occ  Beta        6 (B1g)     -0.4061
               13      Occ  Beta        6 (B3u)     -0.5109
               22      Occ  Beta        7 (B3u)     -0.4704
               43      Vir  Beta        2 (B2g)      0.2578
               40      Vir  Beta        1 (Au)      0.0805


 EOMEE transition 3/B3g
 Total energy = -378.81762841 a.u.  Excitation energy = 9.0232 eV.
 R0^2 = 0.0000  R1^2 = 0.8219  R2^2 = 0.1781  Res^2 = 4.79e-06
 Conv-d = yes

 Amplitude    Transitions between orbitals
 -0.8045       6 (B1g) B                 ->    2 (B2g) B                  
 -0.3789       6 (B3u) B                 ->    1 (Au) B                   
 -0.0968       7 (B2u) B                 ->    3 (B1u) B                  
  0.0679       6 (B3u) B                 ->    2 (Au) B                   

              Summary of significant orbitals:

               Number  Type             Irrep      Energy
               16      Occ  Beta        6 (B1g)     -0.4061
               17      Occ  Beta        7 (B2u)     -0.4853
               13      Occ  Beta        6 (B3u)     -0.5109
               43      Vir  Beta        2 (B2g)      0.2578
               40      Vir  Beta        1 (Au)      0.0805
               46      Vir  Beta        2 (Au)      0.4489
               53      Vir  Beta        3 (B1u)      0.3827


 EOMEE transition 4/B3g
 Total energy = -378.78253944 a.u.  Excitation energy = 9.9780 eV.
 R0^2 = 0.0000  R1^2 = 0.7527  R2^2 = 0.2473  Res^2 = 9.54e-06
 Conv-d = yes

 Amplitude    Transitions between orbitals
  0.6980       9 (Ag) B                  ->    2 (B3g) B                  
 -0.4099       9 (Ag) A                  ->    2 (B3g) A                  
  0.1440       5 (B3u) B                 ->    1 (Au) B                   
  0.1199       7 (B3u) B                 ->    2 (Au) B                   
  0.1031       9 (Ag) B                  ->    3 (B3g) B                  
 -0.1024       7 (B3u) A                 ->    2 (Au) A                   

              Summary of significant orbitals:

               Number  Type             Irrep      Energy
               26      Occ  Alpha       9 (Ag)     -0.4159
               17      Occ  Alpha       7 (B3u)     -0.4777
               12      Occ  Beta        9 (Ag)     -0.4098
               30      Occ  Beta        5 (B3u)     -0.6386
               22      Occ  Beta        7 (B3u)     -0.4704
               43      Vir  Alpha       2 (B3g)      0.2585
               50      Vir  Alpha       2 (Au)      0.3627
               50      Vir  Beta        2 (B3g)      0.2942
               47      Vir  Beta        3 (B3g)      0.5800
               40      Vir  Beta        1 (Au)      0.0805
               46      Vir  Beta        2 (Au)      0.4489


 EOMEE transition 5/B3g
 Total energy = -378.77168145 a.u.  Excitation energy = 10.2735 eV.
 R0^2 = 0.0000  R1^2 = 0.8520  R2^2 = 0.1480  Res^2 = 3.74e-06
 Conv-d = yes

 Amplitude    Transitions between orbitals
  0.8069       9 (Ag) A                  ->    2 (B3g) A                  
  0.3703       9 (Ag) B                  ->    2 (B3g) B                  
  0.1747       7 (B3u) A                 ->    2 (Au) A                   
  0.0791       6 (Ag) A                  ->    2 (B3g) A                  

              Summary of significant orbitals:

               Number  Type             Irrep      Energy
               19      Occ  Alpha       6 (Ag)     -0.7604
               26      Occ  Alpha       9 (Ag)     -0.4159
               17      Occ  Alpha       7 (B3u)     -0.4777
               12      Occ  Beta        9 (Ag)     -0.4098
               43      Vir  Alpha       2 (B3g)      0.2585
               50      Vir  Alpha       2 (Au)      0.3627
               50      Vir  Beta        2 (B3g)      0.2942


Running a double precision version
      EOM-CCSD/MP2 left amplitudes will be solved using Davidson.
        Amplitudes will be solved using MOM  algorithm.
     Hard-coded thresholds: 
     LinDepThresh=1.00e-15  NormThresh=1.00e-06  ReorthogonThresh=1.00e-02

      Roots     MaxVec    MaxIter   Precond   Conv      Shift    
      5         120       60        1         1.00e-05  0.00e+00  
 ------------------------------------------------------------------------------
      Iter ConvRoots NVecs ResNorm^2 Current eigenvalues (eV)
 ------------------------------------------------------------------------------
      0    0      5     1.48e-02   6.9639   7.6453   9.0232   9.9780   10.2735   
      1    0      10    3.79e-03   6.9637   7.6451   9.0236   9.9773   10.2734   
      2    0      15    4.23e-04   6.9633   7.6452   9.0242   9.9772   10.2734   
      3    0      20    7.68e-05   6.9632   7.6451   9.0243   9.9770   10.2734   
      4    0      25    1.98e-05   6.9633   7.6451   9.0243   9.9770   10.2734   
      5    3      30    7.67e-06   6.9633*  7.6451*  9.0243*  9.9770   10.2734   
      6    5      32    4.47e-06   6.9633*  7.6451*  9.0243*  9.9769*  10.2733*  

     Davidson procedure converged

 EOMEE-CCSD transition 1/B3g
S^2 calculation will be performed in  double precision
 EOMEE-CCSD transition 2/B3g
S^2 calculation will be performed in  double precision
 EOMEE-CCSD transition 3/B3g
S^2 calculation will be performed in  double precision
 EOMEE-CCSD transition 4/B3g
S^2 calculation will be performed in  double precision
 EOMEE-CCSD transition 5/B3g
S^2 calculation will be performed in  double precision
 Excited state properties for  EOMEE-CCSD transition 1/B3g
 Dipole moment (a.u.): 0.000000 (X 0.000000, Y 0.000000, Z 0.000000)
 R-squared (a.u.): 1303.883740 (XX 885.115088, YY 375.715150, ZZ 43.053502)
 Gauge origin (a.u.): (0.000000, 0.000000, 0.000000)
 Angular momentum (a.u.) against gauge origin: 
 (X 0.000000i, Y 0.000000i, Z 0.000000i)
 Traces of the OPDMs: Tr(AA) 35.000000, Tr(BB) 33.000000
 <S^2> = 2.036620

 Excited state properties for  EOMEE-CCSD transition 2/B3g
 Dipole moment (a.u.): 0.000000 (X 0.000000, Y 0.000000, Z 0.000000)
 R-squared (a.u.): 1304.665174 (XX 884.313169, YY 377.331182, ZZ 43.020824)
 Gauge origin (a.u.): (0.000000, 0.000000, 0.000000)
 Angular momentum (a.u.) against gauge origin: 
 (X 0.000000i, Y 0.000000i, Z 0.000000i)
 Traces of the OPDMs: Tr(AA) 35.000000, Tr(BB) 33.000000
 <S^2> = 2.032299

 Excited state properties for  EOMEE-CCSD transition 3/B3g
 Dipole moment (a.u.): 0.000000 (X 0.000000, Y 0.000000, Z 0.000000)
 R-squared (a.u.): 1303.978471 (XX 883.404491, YY 377.605042, ZZ 42.968938)
 Gauge origin (a.u.): (0.000000, 0.000000, 0.000000)
 Angular momentum (a.u.) against gauge origin: 
 (X 0.000000i, Y 0.000000i, Z 0.000000i)
 Traces of the OPDMs: Tr(AA) 35.000000, Tr(BB) 33.000000
 <S^2> = 2.034874

 Excited state properties for  EOMEE-CCSD transition 4/B3g
 Dipole moment (a.u.): 0.000000 (X 0.000000, Y 0.000000, Z 0.000000)
 R-squared (a.u.): 1306.346494 (XX 890.077119, YY 373.385766, ZZ 42.883608)
 Gauge origin (a.u.): (0.000000, 0.000000, 0.000000)
 Angular momentum (a.u.) against gauge origin: 
 (X 0.000000i, Y 0.000000i, Z 0.000000i)
 Traces of the OPDMs: Tr(AA) 35.000000, Tr(BB) 33.000000
 <S^2> = 3.590923

 Excited state properties for  EOMEE-CCSD transition 5/B3g
 Dipole moment (a.u.): 0.000000 (X 0.000000, Y 0.000000, Z 0.000000)
 R-squared (a.u.): 1306.788267 (XX 890.877918, YY 373.030217, ZZ 42.880132)
 Gauge origin (a.u.): (0.000000, 0.000000, 0.000000)
 Angular momentum (a.u.) against gauge origin: 
 (X 0.000000i, Y 0.000000i, Z 0.000000i)
 Traces of the OPDMs: Tr(AA) 35.000000, Tr(BB) 33.000000
 <S^2> = 2.292185

        Solving for EOMEE-CCSD Au transitions.

Running a double precision version
        EOMEE-CCSD/MP2 right amplitudes will be solved using Davidson.
        Amplitudes will be solved using standard  algorithm.
     Hard-coded thresholds: 
     LinDepThresh=1.00e-15  NormThresh=1.00e-06  ReorthogonThresh=1.00e-02

      Roots     MaxVec    MaxIter   Precond   Conv      Shift    
      5         120       60        1         1.00e-05  0.00e+00  
 ------------------------------------------------------------------------------
      Iter ConvRoots NVecs ResNorm^2 Current eigenvalues (eV)
 ------------------------------------------------------------------------------
      0    0      5     1.54e-01   9.3674   13.0757   13.7097   15.0384   15.1962   
      1    0      10    1.57e-02   6.0345   9.4903   10.6237   11.4934   11.7530   
      2    0      15    4.38e-03   5.5847   8.7948   10.1049   10.6550   11.2398   
      3    0      20    1.19e-03   5.5389   8.6714   10.0014   10.4471   11.1673   
      4    0      25    4.34e-04   5.5394   8.6432   9.9810   10.3529   11.1582   
      5    0      30    2.14e-04   5.5379   8.6284   9.9657   10.2809   11.1487   
      6    1      35    1.39e-04   5.5369*  8.6208   9.9535   10.2336   11.1395   
      7    2      39    1.05e-04   5.5369*  8.6187*  9.9451   10.2143   11.1309   
      8    2      42    7.55e-04   5.5369*  8.6187*  9.9385   10.2051   11.0699   
      9    2      45    8.44e-04   5.5369*  8.6188*  9.9368   10.2002   10.8394   
      10   3      48    3.78e-04   5.5369*  8.6189*  9.9364*  10.1973   10.6614   
      11   3      50    1.60e-04   5.5369*  8.6190*  9.9363*  10.1945   10.6051   
      12   3      52    6.39e-05   5.5369*  8.6190*  9.9361*  10.1926   10.5773   
      13   4      54    2.90e-05   5.5369*  8.6191*  9.9360*  10.1917*  10.5664   
      14   4      55    1.31e-05   5.5369*  8.6191*  9.9360*  10.1917*  10.5631   
      15   4      56    6.93e-06   5.5369*  8.6192*  9.9361*  10.1916*  10.5602   
      16   4      57    4.12e-06   5.5369*  8.6192*  9.9361*  10.1917*  10.5603   
      17   5      58    2.77e-06   5.5369*  8.6192*  9.9360*  10.1916*  10.5600*  

     Davidson procedure converged

 EOMEE transition 1/Au
 Total energy = -378.94574550 a.u.  Excitation energy = 5.5369 eV.
 R0^2 = 0.0000  R1^2 = 0.8955  R2^2 = 0.1045  Res^2 = 2.01e-06
 Conv-d = yes

 Amplitude    Transitions between orbitals
 -0.9298       9 (Ag) B                  ->    1 (Au) B                   
 -0.0910       6 (B2u) B                 ->    2 (B2g) B                  
  0.0810       7 (B3u) B                 ->    2 (B3g) B                  
 -0.0611       9 (Ag) B                  ->    2 (Au) B                   

              Summary of significant orbitals:

               Number  Type             Irrep      Energy
               12      Occ  Beta        9 (Ag)     -0.4098
               32      Occ  Beta        6 (B2u)     -0.5647
               22      Occ  Beta        7 (B3u)     -0.4704
               43      Vir  Beta        2 (B2g)      0.2578
               50      Vir  Beta        2 (B3g)      0.2942
               40      Vir  Beta        1 (Au)      0.0805
               46      Vir  Beta        2 (Au)      0.4489


 EOMEE transition 2/Au
 Total energy = -378.83247504 a.u.  Excitation energy = 8.6192 eV.
 R0^2 = 0.0000  R1^2 = 0.8758  R2^2 = 0.1242  Res^2 = 4.40e-06
 Conv-d = yes

 Amplitude    Transitions between orbitals
  0.8637       8 (Ag) B                  ->    1 (Au) B                   
  0.2087       7 (B3u) B                 ->    2 (B3g) B                  
 -0.1987       7 (Ag) B                  ->    1 (Au) B                   
 -0.1071       7 (B2u) B                 ->    2 (B2g) B                  

              Summary of significant orbitals:

               Number  Type             Irrep      Energy
               31      Occ  Beta        7 (Ag)     -0.6115
               28      Occ  Beta        8 (Ag)     -0.5484
               17      Occ  Beta        7 (B2u)     -0.4853
               22      Occ  Beta        7 (B3u)     -0.4704
[...]
 <Sz=0.00|(0.000000,0.000000)(0.000000,-0.000000)(-0.000000,0.000000)
 <Sz=1.00|(-0.000000,-0.000000)(0.000000,0.000000)(0.000000,-0.611964)
 _________________________________________________
 Mean-field SO (cm-1)
 Reduced matrix elements:
 <S|| Hso(L-) ||S'> = (-0.000000,-0.000000)
 <S|| Hso(L0) ||S'> = (0.000000,0.065209)
 <S|| Hso(L+) ||S'> = (-0.000000,0.000000)
 SOCC = 0.065209
 Actual matrix elements:
       |Sz=-1.00>           |Sz=0.00>           |Sz=1.00>
 <Sz=-1.00|(0.000000,-0.046110)(-0.000000,0.000000)(-0.000000,0.000000)
 <Sz=0.00|(0.000000,0.000000)(0.000000,0.000000)(-0.000000,0.000000)
 <Sz=1.00|(-0.000000,0.000000)(0.000000,0.000000)(0.000000,0.046110)
 Singlet part of <S|| Hso(L0) ||S'> = (-0.000000,0.031148) (excluded from all matrix elements)
 L-/L+ Averaged reduced matrix elements:
 <S|| Hso(L-) ||S'> = (-0.000000,-0.000000)
 <S|| Hso(L+) ||S'> = (-0.000000,0.000000)
 ______________________________________________________________
 B(Ket)->A(Bra) transition SO matrices
Full 2e SOC is not implemented withing libqints. 
I will do mean-field SOC with libqints, which is usually as good as full 2e SOC
 Analysing Sz ans S^2 of the pair of states...
 Ket state:  Computed S^2 = 2.058737 will be treated as 2.000000 Sz = 1.000000
 Bra state:  Computed S^2 = 2.147995 will be treated as 2.000000 Sz = 1.000000
 Clebsh-Gordan coefficient: <1.000,1.000;1.000,0.000|1.000,1.000> = 0.707
 _________________________________________________
 One-electron SO (cm-1)
 Reduced matrix elements:
 <S|| Hso(L-) ||S'> = (0.000000,0.000000)
 <S|| Hso(L0) ||S'> = (0.000000,0.875807)
 <S|| Hso(L+) ||S'> = (0.000000,-0.000000)
 SOCC = 0.875807
 Actual matrix elements:
       |Sz=-1.00>           |Sz=0.00>           |Sz=1.00>
 <Sz=-1.00|(-0.000000,-0.619289)(0.000000,-0.000000)(0.000000,0.000000)
 <Sz=0.00|(-0.000000,-0.000000)(-0.000000,0.000000)(0.000000,-0.000000)
 <Sz=1.00|(0.000000,0.000000)(-0.000000,-0.000000)(-0.000000,0.619289)
 _________________________________________________
 Mean-field SO (cm-1)
 Reduced matrix elements:
 <S|| Hso(L-) ||S'> = (0.000000,0.000000)
 <S|| Hso(L0) ||S'> = (0.000000,-0.071419)
 <S|| Hso(L+) ||S'> = (0.000000,-0.000000)
 SOCC = 0.071419
 Actual matrix elements:
       |Sz=-1.00>           |Sz=0.00>           |Sz=1.00>
 <Sz=-1.00|(-0.000000,0.050501)(0.000000,-0.000000)(0.000000,-0.000000)
 <Sz=0.00|(-0.000000,-0.000000)(-0.000000,-0.000000)(0.000000,-0.000000)
 <Sz=1.00|(0.000000,-0.000000)(-0.000000,-0.000000)(-0.000000,-0.050501)
 Singlet part of <S|| Hso(L0) ||S'> = (-0.000000,-0.038075) (excluded from all matrix elements)
 L-/L+ Averaged reduced matrix elements:
 <S|| Hso(L-) ||S'> = (0.000000,0.000000)
 <S|| Hso(L+) ||S'> = (0.000000,-0.000000)
 ______________________________________________________________
   Arithmetically averaged transition SO matrices
   (The phases shown, Ket and Bra assingment are from A(Ket)->B(Bra))
 _________________________________________________
 One-electron SO (cm-1)
 SOCC = 0.870627
 Actual matrix elements:
       |Sz=-1.00>           |Sz=0.00>           |Sz=1.00>
 <Sz=-1.00|(-0.000000,0.615626)(-0.000000,0.000000)(-0.000000,-0.000000)
 <Sz=0.00|(0.000000,0.000000)(-0.000000,-0.000000)(-0.000000,0.000000)
 <Sz=1.00|(0.000000,-0.000000)(0.000000,0.000000)(-0.000000,-0.615626)
 _________________________________________________
 Mean-field SO (cm-1)
 SOCC = 0.068314
 Actual matrix elements:
       |Sz=-1.00>           |Sz=0.00>           |Sz=1.00>
 <Sz=-1.00|(-0.000000,-0.048305)(-0.000000,0.000000)(-0.000000,0.000000)
 <Sz=0.00|(0.000000,0.000000)(-0.000000,0.000000)(-0.000000,0.000000)
 <Sz=1.00|(0.000000,0.000000)(0.000000,0.000000)(-0.000000,0.048305)
 ______________________________________________________________

 ------------------------------------------------------------------------------
 State A: eomee_mp2/uhfref: 1/B2u
 State B: eomee_mp2/uhfref: 4/B3u
 Energy GAP = 0.151733 a.u. = 4.128877 eV
 Transition dipole moment (a.u.):
   A->B: 0.000000 (X 0.000000, Y 0.000000, Z 0.000000)
   B->A: 0.000000 (X 0.000000, Y 0.000000, Z 0.000000)
 Oscillator strength (a.u.): 0.000000
 Transition angular momentum against gauge origin (a.u.):
   A->B:  (X 0.000000i, Y 0.000000i, Z 0.165854i)
   B->A:  (X 0.000000i, Y 0.000000i, Z -0.172241i)
 Norm of one-particle transition density matrix:
   A->B: 0.363785;   B->A: 0.368842
   ||gamma^AB||*||gamma^BA||: 0.134179

 ______________________________________________________________
 A(Ket)->B(Bra) transition SO matrices
Full 2e SOC is not implemented withing libqints. 
I will do mean-field SOC with libqints, which is usually as good as full 2e SOC
 Analysing Sz ans S^2 of the pair of states...
 Ket state:  Computed S^2 = 2.147995 will be treated as 2.000000 Sz = 1.000000
 Bra state:  Computed S^2 = 2.235134 will be treated as 2.000000 Sz = 1.000000
 Clebsh-Gordan coefficient: <1.000,1.000;1.000,0.000|1.000,1.000> = 0.707
 _________________________________________________
 One-electron SO (cm-1)
 Reduced matrix elements:
 <S|| Hso(L-) ||S'> = (0.000000,0.000000)
 <S|| Hso(L0) ||S'> = (0.000000,0.724145)
 <S|| Hso(L+) ||S'> = (0.000000,-0.000000)
 SOCC = 0.724145
 Actual matrix elements:
       |Sz=-1.00>           |Sz=0.00>           |Sz=1.00>
 <Sz=-1.00|(-0.000000,-0.512048)(0.000000,-0.000000)(0.000000,0.000000)
 <Sz=0.00|(-0.000000,-0.000000)(-0.000000,0.000000)(0.000000,-0.000000)
 <Sz=1.00|(0.000000,0.000000)(-0.000000,-0.000000)(-0.000000,0.512048)
 _________________________________________________
 Mean-field SO (cm-1)
 Reduced matrix elements:
 <S|| Hso(L-) ||S'> = (-0.000000,0.000000)
 <S|| Hso(L0) ||S'> = (0.000000,-0.026260)
 <S|| Hso(L+) ||S'> = (-0.000000,-0.000000)
 SOCC = 0.026260
 Actual matrix elements:
       |Sz=-1.00>           |Sz=0.00>           |Sz=1.00>
 <Sz=-1.00|(0.000000,0.018569)(-0.000000,-0.000000)(-0.000000,-0.000000)
 <Sz=0.00|(0.000000,-0.000000)(0.000000,-0.000000)(-0.000000,-0.000000)
 <Sz=1.00|(-0.000000,-0.000000)(0.000000,-0.000000)(0.000000,-0.018569)
 Singlet part of <S|| Hso(L0) ||S'> = (-0.000000,-0.008746) (excluded from all matrix elements)
 L-/L+ Averaged reduced matrix elements:
 <S|| Hso(L-) ||S'> = (-0.000000,0.000000)
 <S|| Hso(L+) ||S'> = (-0.000000,-0.000000)
 ______________________________________________________________
 B(Ket)->A(Bra) transition SO matrices
Full 2e SOC is not implemented withing libqints. 
I will do mean-field SOC with libqints, which is usually as good as full 2e SOC
 Analysing Sz ans S^2 of the pair of states...
 Ket state:  Computed S^2 = 2.235134 will be treated as 2.000000 Sz = 1.000000
 Bra state:  Computed S^2 = 2.147995 will be treated as 2.000000 Sz = 1.000000
 Clebsh-Gordan coefficient: <1.000,1.000;1.000,0.000|1.000,1.000> = 0.707
 _________________________________________________
 One-electron SO (cm-1)
 Reduced matrix elements:
 <S|| Hso(L-) ||S'> = (0.000000,-0.000000)
 <S|| Hso(L0) ||S'> = (0.000000,-0.765082)
 <S|| Hso(L+) ||S'> = (0.000000,0.000000)
 SOCC = 0.765082
 Actual matrix elements:
       |Sz=-1.00>           |Sz=0.00>           |Sz=1.00>
 <Sz=-1.00|(-0.000000,0.540995)(0.000000,0.000000)(0.000000,-0.000000)
 <Sz=0.00|(-0.000000,0.000000)(-0.000000,-0.000000)(0.000000,0.000000)
 <Sz=1.00|(0.000000,-0.000000)(-0.000000,0.000000)(-0.000000,-0.540995)
 _________________________________________________
 Mean-field SO (cm-1)
 Reduced matrix elements:
 <S|| Hso(L-) ||S'> = (0.000000,-0.000000)
 <S|| Hso(L0) ||S'> = (0.000000,0.030824)
 <S|| Hso(L+) ||S'> = (0.000000,0.000000)
 SOCC = 0.030824
 Actual matrix elements:
       |Sz=-1.00>           |Sz=0.00>           |Sz=1.00>
 <Sz=-1.00|(-0.000000,-0.021796)(0.000000,0.000000)(0.000000,0.000000)
 <Sz=0.00|(-0.000000,0.000000)(-0.000000,0.000000)(0.000000,0.000000)
 <Sz=1.00|(0.000000,0.000000)(-0.000000,0.000000)(-0.000000,0.021796)
 Singlet part of <S|| Hso(L0) ||S'> = (-0.000000,0.009105) (excluded from all matrix elements)
 L-/L+ Averaged reduced matrix elements:
 <S|| Hso(L-) ||S'> = (0.000000,-0.000000)
 <S|| Hso(L+) ||S'> = (0.000000,0.000000)
 ______________________________________________________________
   Arithmetically averaged transition SO matrices
   (The phases shown, Ket and Bra assingment are from A(Ket)->B(Bra))
 _________________________________________________
 One-electron SO (cm-1)
 SOCC = 0.744613
 Actual matrix elements:
       |Sz=-1.00>           |Sz=0.00>           |Sz=1.00>
 <Sz=-1.00|(-0.000000,-0.526521)(-0.000000,-0.000000)(0.000000,0.000000)
 <Sz=0.00|(0.000000,-0.000000)(-0.000000,0.000000)(-0.000000,-0.000000)
 <Sz=1.00|(0.000000,0.000000)(0.000000,-0.000000)(-0.000000,0.526521)
 _________________________________________________
 Mean-field SO (cm-1)
 SOCC = 0.028542
 Actual matrix elements:
       |Sz=-1.00>           |Sz=0.00>           |Sz=1.00>
 <Sz=-1.00|(-0.000000,0.020182)(-0.000000,-0.000000)(0.000000,-0.000000)
 <Sz=0.00|(0.000000,-0.000000)(-0.000000,-0.000000)(-0.000000,-0.000000)
 <Sz=1.00|(0.000000,-0.000000)(0.000000,-0.000000)(-0.000000,-0.020182)
 ______________________________________________________________

 ------------------------------------------------------------------------------
 State A: eomee_mp2/uhfref: 1/B2u
 State B: eomee_mp2/uhfref: 5/B3u
 Energy GAP = 0.174241 a.u. = 4.741334 eV
 Transition dipole moment (a.u.):
   A->B: 0.000000 (X 0.000000, Y 0.000000, Z 0.000000)
   B->A: 0.000000 (X 0.000000, Y 0.000000, Z 0.000000)
 Oscillator strength (a.u.): 0.000000
 Transition angular momentum against gauge origin (a.u.):
   A->B:  (X 0.000000i, Y 0.000000i, Z -0.483456i)
   B->A:  (X 0.000000i, Y 0.000000i, Z 0.471760i)
 Norm of one-particle transition density matrix:
   A->B: 0.314565;   B->A: 0.317607
   ||gamma^AB||*||gamma^BA||: 0.099908

 ______________________________________________________________
 A(Ket)->B(Bra) transition SO matrices
Full 2e SOC is not implemented withing libqints. 
I will do mean-field SOC with libqints, which is usually as good as full 2e SOC
 Analysing Sz ans S^2 of the pair of states...
 Ket state:  Computed S^2 = 2.147995 will be treated as 2.000000 Sz = 1.000000
 Bra state:  Computed S^2 = 2.025783 will be treated as 2.000000 Sz = 1.000000
 Clebsh-Gordan coefficient: <1.000,1.000;1.000,0.000|1.000,1.000> = 0.707
 _________________________________________________
 One-electron SO (cm-1)
 Reduced matrix elements:
 <S|| Hso(L-) ||S'> = (0.000000,0.000000)
 <S|| Hso(L0) ||S'> = (0.000000,0.043475)
 <S|| Hso(L+) ||S'> = (0.000000,-0.000000)
 SOCC = 0.043475
 Actual matrix elements:
       |Sz=-1.00>           |Sz=0.00>           |Sz=1.00>
 <Sz=-1.00|(-0.000000,-0.030741)(0.000000,-0.000000)(0.000000,0.000000)
 <Sz=0.00|(-0.000000,-0.000000)(-0.000000,0.000000)(0.000000,-0.000000)
 <Sz=1.00|(0.000000,0.000000)(-0.000000,-0.000000)(-0.000000,0.030741)
 _________________________________________________
 Mean-field SO (cm-1)
 Reduced matrix elements:
 <S|| Hso(L-) ||S'> = (0.000000,0.000000)
 <S|| Hso(L0) ||S'> = (0.000000,-0.056248)
 <S|| Hso(L+) ||S'> = (0.000000,-0.000000)
 SOCC = 0.056248
 Actual matrix elements:
       |Sz=-1.00>           |Sz=0.00>           |Sz=1.00>
 <Sz=-1.00|(-0.000000,0.039773)(0.000000,-0.000000)(0.000000,-0.000000)
 <Sz=0.00|(-0.000000,-0.000000)(-0.000000,-0.000000)(0.000000,-0.000000)
 <Sz=1.00|(0.000000,-0.000000)(-0.000000,-0.000000)(-0.000000,-0.039773)
 Singlet part of <S|| Hso(L0) ||S'> = (-0.000000,0.020923) (excluded from all matrix elements)
 L-/L+ Averaged reduced matrix elements:
 <S|| Hso(L-) ||S'> = (0.000000,0.000000)
 <S|| Hso(L+) ||S'> = (0.000000,-0.000000)
 ______________________________________________________________
 B(Ket)->A(Bra) transition SO matrices
Full 2e SOC is not implemented withing libqints. 
I will do mean-field SOC with libqints, which is usually as good as full 2e SOC
 Analysing Sz ans S^2 of the pair of states...
 Ket state:  Computed S^2 = 2.025783 will be treated as 2.000000 Sz = 1.000000
 Bra state:  Computed S^2 = 2.147995 will be treated as 2.000000 Sz = 1.000000
 Clebsh-Gordan coefficient: <1.000,1.000;1.000,0.000|1.000,1.000> = 0.707
 _________________________________________________
 One-electron SO (cm-1)
 Reduced matrix elements:
 <S|| Hso(L-) ||S'> = (0.000000,-0.000000)
 <S|| Hso(L0) ||S'> = (0.000000,-0.046080)
 <S|| Hso(L+) ||S'> = (0.000000,0.000000)
 SOCC = 0.046080
 Actual matrix elements:
       |Sz=-1.00>           |Sz=0.00>           |Sz=1.00>
 <Sz=-1.00|(-0.000000,0.032584)(0.000000,0.000000)(0.000000,-0.000000)
 <Sz=0.00|(-0.000000,0.000000)(-0.000000,-0.000000)(0.000000,0.000000)
 <Sz=1.00|(0.000000,-0.000000)(-0.000000,0.000000)(-0.000000,-0.032584)
 _________________________________________________
 Mean-field SO (cm-1)
 Reduced matrix elements:
 <S|| Hso(L-) ||S'> = (-0.000000,-0.000000)
 <S|| Hso(L0) ||S'> = (0.000000,0.053172)
 <S|| Hso(L+) ||S'> = (-0.000000,0.000000)
 SOCC = 0.053172
 Actual matrix elements:
       |Sz=-1.00>           |Sz=0.00>           |Sz=1.00>
 <Sz=-1.00|(0.000000,-0.037598)(-0.000000,0.000000)(-0.000000,0.000000)
 <Sz=0.00|(0.000000,0.000000)(0.000000,0.000000)(-0.000000,0.000000)
 <Sz=1.00|(-0.000000,0.000000)(0.000000,0.000000)(0.000000,0.037598)
 Singlet part of <S|| Hso(L0) ||S'> = (-0.000000,-0.019312) (excluded from all matrix elements)
 L-/L+ Averaged reduced matrix elements:
 <S|| Hso(L-) ||S'> = (-0.000000,-0.000000)
 <S|| Hso(L+) ||S'> = (-0.000000,0.000000)
 ______________________________________________________________
   Arithmetically averaged transition SO matrices
   (The phases shown, Ket and Bra assingment are from A(Ket)->B(Bra))
 _________________________________________________
 One-electron SO (cm-1)
 SOCC = 0.044777
 Actual matrix elements:
       |Sz=-1.00>           |Sz=0.00>           |Sz=1.00>
 <Sz=-1.00|(-0.000000,-0.031662)(-0.000000,-0.000000)(0.000000,0.000000)
 <Sz=0.00|(0.000000,-0.000000)(-0.000000,0.000000)(-0.000000,-0.000000)
 <Sz=1.00|(0.000000,0.000000)(0.000000,-0.000000)(-0.000000,0.031662)
 _________________________________________________
 Mean-field SO (cm-1)
 SOCC = 0.054710
 Actual matrix elements:
       |Sz=-1.00>           |Sz=0.00>           |Sz=1.00>
 <Sz=-1.00|(-0.000000,0.038686)(0.000000,-0.000000)(0.000000,-0.000000)
 <Sz=0.00|(-0.000000,-0.000000)(-0.000000,-0.000000)(0.000000,-0.000000)
 <Sz=1.00|(-0.000000,-0.000000)(-0.000000,-0.000000)(-0.000000,-0.038686)
 ______________________________________________________________


 All requested transition properties have been computed

 Transition Properties:   CPU 545.17 s  wall 556.38 s

 Total ccman2 time:   CPU 2795.49 s  wall 2813.03 s

 
 --------------------------------------------------------------
             Orbital Energies (a.u.) and Symmetries
 --------------------------------------------------------------
 
 Alpha MOs, Restricted
 -- Doubly Occupied --           
-11.038 -11.038 -11.028 -11.028 -11.028 -11.028 -11.026 -11.026
  1 B2u   1 Ag    1 B3u   2 Ag    1 B1g   2 B2u   2 B1g   3 B2u                
-11.026 -11.026  -1.116  -1.050  -0.994  -0.959  -0.914  -0.819
  2 B3u   3 Ag    4 Ag    3 B3u   4 B2u   5 Ag    3 B1g   4 B3u                
 -0.768  -0.761  -0.660  -0.647  -0.619  -0.575  -0.554  -0.524
  5 B2u   6 Ag    4 B1g   5 B3u   7 Ag    6 B2u   8 Ag    5 B1g                
 -0.519  -0.495  -0.478  -0.511  -0.416  -0.416  -0.411  -0.377
  6 B3u   7 B2u   7 B3u   1 B1u   9 Ag    6 B1g   1 B2g   1 B3g                
 -0.305
  2 B1u                                                                        
 -- Singly Occupied (Occupied) --
 -0.276  -0.118
  1 Au    2 B2g                                                                
 -- Virtual --                   
  0.258   0.239   0.363   0.501   0.586   0.604   0.607   0.651
  2 B3g   3 B1u   2 Au    3 B3g  10 Ag    8 B2u   8 B3u  11 Ag                 
  0.667   0.686   0.711   0.730   0.744   0.769   0.789   0.867
  9 B3u   9 B2u   7 B1g   8 B1g  10 B2u  10 B3u  12 Ag   11 B2u                
  0.892   0.933   0.934   0.979   1.053   1.108   1.169
  9 B1g  13 Ag   11 B3u  10 B1g  12 B2u  13 B2u  11 B1g                        
 
 Beta MOs, Restricted
 -- Doubly Occupied --           
-11.038 -11.038 -11.026 -11.026 -11.026 -11.026 -11.016 -11.016
  1 B2u   1 Ag    1 B3u   2 Ag    1 B1g   2 B2u   2 B1g   3 B2u                
-11.016 -11.016  -1.095  -1.029  -0.960  -0.949  -0.876  -0.790
  2 B3u   3 Ag    4 Ag    3 B3u   4 B2u   5 Ag    3 B1g   4 B3u                
 -0.759  -0.742  -0.644  -0.639  -0.612  -0.565  -0.548  -0.513
  5 B2u   6 Ag    4 B1g   5 B3u   7 Ag    6 B2u   8 Ag    5 B1g                
 -0.511  -0.485  -0.470  -0.436  -0.410  -0.406  -0.346  -0.236
  6 B3u   7 B2u   7 B3u   1 B1u   9 Ag    6 B1g   1 B2g   1 B3g                
 -0.269
  2 B1u                                                                        
 -- Singly Occupied (Vacant) --  
  0.097   0.258
  1 Au    2 B2g                                                                
 -- Virtual --                   
  0.294   0.383   0.433   0.580   0.591   0.610   0.619   0.681
  2 B3g   3 B1u   2 Au    3 B3g  10 Ag    8 B2u   8 B3u  11 Ag                 
  0.683   0.711   0.729   0.741   0.752   0.786   0.798   0.877
  9 B3u   9 B2u   7 B1g   8 B1g  10 B2u  10 B3u  12 Ag   11 B2u                
  0.901   0.945   0.944   0.990   1.060   1.115   1.179
  9 B1g  13 Ag   11 B3u  10 B1g  12 B2u  13 B2u  11 B1g                        
 --------------------------------------------------------------
 
          Ground-State Mulliken Net Atomic Charges

     Atom                 Charge (a.u.)
  ----------------------------------------
      1 C                    -0.008662
      2 C                    -0.008662
      3 C                    -0.060232
      4 C                    -0.055341
      5 C                    -0.055341
      6 C                    -0.060232
      7 C                    -0.060232
      8 C                    -0.060232
      9 C                    -0.055341
     10 C                    -0.055341
     11 H                     0.056528
     12 H                     0.063376
     13 H                     0.063376
     14 H                     0.056528
     15 H                     0.056528
     16 H                     0.063376
     17 H                     0.063376
     18 H                     0.056528
  ----------------------------------------
  Sum of atomic charges =     0.000000

 -----------------------------------------------------------------
                    Cartesian Multipole Moments
 -----------------------------------------------------------------
    Charge (ESU x 10^10)
                -0.0000
    Dipole Moment (Debye)
         X       0.0000      Y      -0.0000      Z       0.0000
       Tot       0.0000
    Quadrupole Moments (Debye-Ang)
        XX     -49.5975     XY       0.0000     YY     -51.4410
        XZ      -0.0000     YZ      -0.0000     ZZ     -56.2961
    Octopole Moments (Debye-Ang^2)
       XXX       0.0000    XXY      -0.0000    XYY       0.0000
       YYY      -0.0000    XXZ       0.0000    XYZ       0.0000
       YYZ      -0.0000    XZZ       0.0000    YZZ      -0.0000
       ZZZ       0.0000
    Hexadecapole Moments (Debye-Ang^3)
      XXXX   -1087.7004   XXXY       0.0000   XXYY    -262.3852
      XYYY       0.0000   YYYY    -460.9654   XXXZ      -0.0000
      XXYZ      -0.0000   XYYZ       0.0000   YYYZ      -0.0000
      XXZZ    -211.3202   XYZZ      -0.0000   YYZZ     -94.1856
      XZZZ       0.0000   YZZZ      -0.0000   ZZZZ     -45.3316
 -----------------------------------------------------------------
 Total job time:  2833.64s(wall), 2815.32s(cpu) 
 Fri Jan 26 13:40:47 2024

        *************************************************************
        *                                                           *
        *  Thank you very much for using Q-Chem.  Have a nice day.  *
        *                                                           *
        *************************************************************


