                  Welcome to Q-Chem
     A Quantum Leap Into The Future Of Chemistry


 Q-Chem 6.0 (devel), Q-Chem, Inc., Pleasanton, CA (2022)

 E. Epifanovsky,  A. T. B. Gilbert,  Xintian Feng,  Joonho Lee,  Yuezhi Mao,  
 N. Mardirossian,  P. Pokhilko,  A. White,  M. Wormit,  M. P. Coons,  
 A. L. Dempwolff,  Zhengting Gan,  D. Hait,  P. R. Horn,  L. D. Jacobson,  
 I. Kaliman,  J. Kussmann,  A. W. Lange,  Ka Un Lao,  D. S. Levine,  Jie Liu,  
 S. C. McKenzie,  A. F. Morrison,  K. Nanda,  F. Plasser,  D. R. Rehn,  
 M. L. Vidal,  Zhi-Qiang You,  Ying Zhu,  B. Alam,  B. Albrecht,  
 A. Aldossary,  E. Alguire,  J. H. Andersen,  V. Athavale,  D. Barton,  
 K. Begam,  A. Behn,  N. Bellonzi,  Y. A. Bernard,  E. J. Berquist,  
 H. Burton,  A. Carreras,  K. Carter-Fenk,  Romit Chakraborty,  
 Chandrima Chakravarty,  Junhan Chen,  A. D. Chien,  K. D. Closser,  
 V. Cofer-Shabica,  L. Cunha,  S. Dasgupta,  Jia Deng,  M. de Wergifosse,  
 M. Diedenhofen,  Hainam Do,  S. Ehlert,  Po-Tung Fang,  S. Fatehi,  
 Qingguo Feng,  T. Friedhoff,  B. Ganoe,  J. Gayvert,  Qinghui Ge,  
 G. Gidofalvi,  M. Goldey,  J. Gomes,  C. Gonzalez-Espinoza,  S. Gulania,  
 A. Gunina,  J. A. Gyamfi,  M. W. D. Hanson-Heine,  P. H. P. Harbach,  
 A. W. Hauser,  M. F. Herbst,  M. Hernandez Vera,  M. Hodecker,  
 Z. C. Holden,  S. Houck,  Xunkun Huang,  Kerwin Hui,  B. C. Huynh,  
 K. Ikeda,  M. Ivanov,  Hyunjun Ji,  Zuxin Jin,  Hanjie Jiang,  B. Kaduk,  
 S. Kaehler,  R. Kang,  K. Khistyaev,  Jaehoon Kim,  Yongbin Kim,  
 P. Klunzinger,  Z. Koczor-Benda,  Joong Hoon Koh,  D. Kosenkov,  
 Saikiran Kotaru,  L. Koulias,  T. Kowalczyk,  C. M. Krauter,  K. Kue,  
 A. Kunitsa,  T. Kus,  A. Landau,  K. V. Lawler,  D. Lefrancois,  S. Lehtola,  
 Rain Li,  Shaozhi Li,  Yi-Pei Li,  Jiashu Liang,  M. Liebenthal,  
 Hung-Hsuan Lin,  You-Sheng Lin,  Fenglai Liu,  Kuan-Yu Liu,  
 M. Loipersberger,  A. Luenser,  C. Malbon,  A. Manjanath,  P. Manohar,  
 E. Mansoor,  S. F. Manzer,  Shan-Ping Mao,  A. V. Marenich,  T. Markovich,  
 S. Mason,  F. Matz,  S. A. Maurer,  P. F. McLaughlin,  M. F. S. J. Menger,  
 J.-M. Mewes,  S. A. Mewes,  P. Morgante,  Mohammad Mostafanejad,  
 J. W. Mullinax,  K. J. Oosterbaan,  G. Paran,  V. Parravicini,  
 Alexander C. Paul,  Suranjan K. Paul,  F. Pavosevic,  Zheng Pei,  S. Prager,  
 E. I. Proynov,  E. Ramos,  B. Rana,  A. E. Rask,  A. Rettig,  R. M. Richard,  
 F. Rob,  E. Rossomme,  T. Scheele,  M. Scheurer,  M. Schneider,  
 P. E. Schneider,  N. Sergueev,  S. M. Sharada,  Hengyuan Shen,  
 W. Skomorowski,  D. W. Small,  C. J. Stein,  Yingli Su,  Yu-Chuan Su,  
 E. J. Sundstrom,  Zhen Tao,  J. Thirman,  Hung-Yi Tsai,  T. Tsuchimochi,  
 N. M. Tubman,  C. Utku,  S. P. Veccham,  O. Vydrov,  J. Wenzel,  
 Jonathan Wong,  J. Witte,  A. Yamada,  Chou-Hsun Yang,  Kun Yao,  
 S. Yeganeh,  S. R. Yost,  A. Zech,  F. Zeller,  Igor Ying Zhang,  
 Xing Zhang,  Yu Zhang,  D. Zuev,  A. Aspuru-Guzik,  A. T. Bell,  
 N. A. Besley,  K. B. Bravaya,  B. R. Brooks,  D. Casanova,  Jeng-Da Chai,  
 Hsing-Ta Chen,  S. Coriani,  C. J. Cramer,  A. E. DePrince, III,  
 R. A. DiStasio Jr.,  A. Dreuw,  B. D. Dunietz,  T. R. Furlani,  
 W. A. Goddard III,  S. Grimme,  S. Hammes-Schiffer,  T. Head-Gordon,  
 W. J. Hehre,  Chao-Ping Hsu,  T.-C. Jagau,  Yousung Jung,  A. Klamt,  
 Jing Kong,  D. S. Lambrecht,  Xiangyuan Li,  WanZhen Liang,  N. J. Mayhall,  
 C. W. McCurdy,  J. B. Neaton,  T. Neudecker,  C. Ochsenfeld,  
 J. A. Parkhill,  R. Peverati,  V. A. Rassolov,  Haisheng Ren,  Yihan Shao,  
 L. V. Slipchenko,  R. P. Steele,  J. E. Subotnik,  A. J. W. Thom,  
 A. Tkatchenko,  D. G. Truhlar,  T. Van Voorhis,  Fan Wang,  
 T. A. Wesolowski,  K. B. Whaley,  H. L. Woodcock III,  P. M. Zimmerman,  
 S. Faraji,  P. M. W. Gill,  M. Head-Gordon,  J. M. Herbert,  A. I. Krylov

 Contributors to earlier versions of Q-Chem not listed above: 
 R. D. Adamson,  B. Austin,  R. Baer,  J. Baker,  G. J. O. Beran,  
 K. Brandhorst,  S. T. Brown,  E. F. C. Byrd,  Arup K. Chakraborty,  
 G. K. L. Chan,  Chun-Min Chang,  Yunqing Chen,  C.-L. Cheng,  
 Siu Hung Chien,  D. M. Chipman,  D. L. Crittenden,  H. Dachsel,  
 R. J. Doerksen,  A. D. Dutoi,  R. G. Edgar,  J. Fosso-Tande,  
 L. Fusti-Molnar,  D. Ghosh,  A. Ghysels,  A. Golubeva-Zadorozhnaya,  
 J. Gonthier,  M. S. Gordon,  S. R. Gwaltney,  G. Hawkins,  J. E. Herr,  
 A. Heyden,  S. Hirata,  E. G. Hohenstein,  G. Kedziora,  F. J. Keil,  
 C. Kelley,  Jihan Kim,  R. A. King,  R. Z. Khaliullin,  P. P. Korambath,  
 W. Kurlancheek,  A. Laurent,  A. M. Lee,  M. S. Lee,  S. V. Levchenko,  
 Ching Yeh Lin,  D. Liotard,  E. Livshits,  R. C. Lochan,  I. Lotan,  
 L. A. Martinez-Martinez,  P. E. Maslen,  N. Nair,  D. P. O'Neill,  
 D. Neuhauser,  E. Neuscamman,  C. M. Oana,  R. Olivares-Amaya,  R. Olson,  
 T. M. Perrine,  B. Peters,  P. A. Pieniazek,  A. Prociuk,  Y. M. Rhee,  
 J. Ritchie,  M. A. Rohrdanz,  E. Rosta,  N. J. Russ,  H. F. Schaefer III,  
 M. W. Schmidt,  N. E. Schultz,  S. Sharma,  N. Shenvi,  C. D. Sherrill,  
 A. C. Simmonett,  A. Sodt,  T. Stein,  D. Stuck,  K. S. Thanthiriwatte,  
 V. Vanovschi,  L. Vogt,  Tao Wang,  A. Warshel,  M. A. Watson,  
 C. F. Williams,  Q. Wu,  X. Xu,  Jun Yang,  W. Zhang,  Yan Zhao

   Please cite Q-Chem as follows:
  "Software for the frontiers of quantum chemistry:
   An overview of developments in the Q-Chem 5 package"
   J. Chem. Phys. 155, 084801 (2021)
   https://doi.org/10.1063/5.0055522 (open access)

 Q-Chem 6.0.1 for Intel X86 EM64T Linux

 Parts of Q-Chem use Armadillo 9.900.5 (Nocturnal Misbehaviour).
 http://arma.sourceforge.net/

 Q-Chem begins on Fri Jan 26 13:28:24 2024  

 Host: atlas-254
0

     Scratch files written to ./qchem70759//
 Processing $rem in /scratch/abel/SOFTWARE/qchem/config/preferences:
 Processing $rem in /dipc/acebg/.qchemrc:
 Core orbitals will be frozen

 Checking the input file for inconsistencies... 	...done.

--------------------------------------------------------------
User input:
--------------------------------------------------------------
$comment
 RAS-SF CALCULATION
$end

$molecule
 READ naphthalene_singlet.molecule
$end

$rem
!**CALCULATION TYPE***     
JOBTYPE            sp    
!BASIS              def2-TZVP
BASIS             STO-3G

!***SCF REFERENCE***
INPUT_BOHR 	    TRUE
!SKIP_SCFMAN        FALSE
UNRESTRICTED       FALSE
!SCF_GUESS          core
!SCF_GUESS_MIX      FALSE
!SCF_GUESS_ALWAYS   FALSE
MAX_SCF_CYCLES     500
!SCF_CONVERGENCE    10
SCF_ALGORITHM      DIIS_GDM !DIIS,DM,DIIS_DM,GDM,DIIS_GDM,GD

!SYMMETRY           TRUE   !use of symmetry for calculating integrals
!SYM_IGNORE         FALSE  !turn off using symmetry
!SYM_TOL            5      !tolerance for determining point group
!USE_ABELIAN_SUBGROUP      !define to use abelian group

!THRESH             14
!SCF_FINAL_PRINT     1 !0,1,2,3

!****CCSD****
CORRELATION        CCSD
!CC_CONVERGENCE     6
!CC_MAX_ITER        200
CC_PRINT	   2
!CHOLESKY_TOL       3 !Toler. decomposition 2e integrals
CC_REF_PROP  	   1 !one-particle CCSD properties calculation
!CC_REF_PROP_TE	   0 !two-particle CCSD properties calculation
!CC_FNO_THRESH
!CC_BACKEND	   XM !Used to specify the computational back-end of CCMAN2.

!****EOM****
METHOD             EOM-MP2
SF_STATES	   [5,5,5,5,5,5,3,5]
CC_STATE_TO_OPT    [7,1]
CC_EOM_PROP        1
CC_EOM_PROP_TE	   1
CC_TRANS_PROP      1
CALC_SOC           TRUE   !calculate SOC for EOM-CC, RAS-CI, ADC, TDDFT/TDA and TDDFT

!****MEMORY****
MEM_TOTAL          90000 !Default 2000 MB
MEM_STATIC         7000  !Default 64 MB
CC_MEMORY          72000

!**Molecular Properties and Analysis **                                                                                          
!POP_MULLIKEN       TRUE   !Run Mulliken population analysis
!LOWDIN_POPULATION  TRUE   !Run Löwdin population analysis
GUI                0       !Checkpoints generation
!STATE_ANALYSIS     TRUE

!**Wave function analysis**
!PLOTS = 0     ! Note: This can be omitted, default is 0
!NTO_PAIRS = 2 ! Note: This can be omitted, default is 2
!GUI 0
!MOLDEN_FORMAT      TRUE
!PRINT_ORBITALS     15
$end

!$plots
!   grid_points 100 100 100
!   grid_range  (-10,10) (-10,10) (-10,10)
!$end

--------------------------------------------------------------
 ----------------------------------------------------------------
             Standard Nuclear Orientation (Bohr)
    I     Atom           X                Y                Z
 ----------------------------------------------------------------
    1      C       0.0000000000    -1.3623625091    -0.0000000000
    2      C      -0.0000000000     1.3623625091     0.0000000000
    3      C      -2.3376206850    -2.6436978817    -0.0000000000
    4      C      -4.6989437780    -1.2863193617     0.0000000000
    5      C      -4.6989437780     1.2863193617     0.0000000000
    6      C      -2.3376206850     2.6436978817     0.0000000000
    7      C       2.3376206850     2.6436978817     0.0000000000
    8      C       2.3376206850    -2.6436978817    -0.0000000000
    9      C       4.6989437780    -1.2863193617    -0.0000000000
   10      C       4.6989437780     1.2863193617    -0.0000000000
   11      H       2.3527347410    -4.6914688881    -0.0000000000
   12      H       6.4552948094    -2.3370951729    -0.0000000000
   13      H       6.4552948094     2.3370951729    -0.0000000000
   14      H       2.3527347410     4.6914688881     0.0000000000
   15      H      -2.3527347410    -4.6914688881    -0.0000000000
   16      H      -6.4552948094    -2.3370951729     0.0000000000
   17      H      -6.4552948094     2.3370951729     0.0000000000
   18      H      -2.3527347410     4.6914688881     0.0000000000
 ----------------------------------------------------------------
 Molecular Point Group                 D2h   NOp =  8
 Largest Abelian Subgroup              D2h   NOp =  8
 Nuclear Repulsion Energy =         454.42574361 hartrees
 There are       34 alpha and       34 beta electrons
 Requested basis set is STO-3G
 There are 28 shells and 58 basis functions
WARNING: MEM_STATIC is adjusted to be 2000 MB!
 Total memory of 90000 MB is distributed as follows: 
   MEM_STATIC is set to 2000 MB
   QALLOC/CCMAN JOB total memory use is  88000 MB
 Warning: actual memory use might exceed 90000 MB

 Total QAlloc Memory Limit  90000 MB
 Mega-Array Size      1956 MB
 MEM_STATIC part      2000 MB

 A cutoff of  1.0D-14 yielded    372 shell pairs
 There are      1737 function pairs
 Smallest overlap matrix eigenvalue = 1.76E-01

 Scale SEOQF with 1.000000e-01/1.000000e-01/1.000000e+00

 Standard Electronic Orientation quadrupole field applied
 Nucleus-field energy     =     0.0000000153 hartrees
 Guess from superposition of atomic densities
 Warning:  Energy on first SCF cycle will be non-variational
 SAD guess density has 68.000000 electrons

 -----------------------------------------------------------------------
  General SCF calculation program by
  Eric Jon Sundstrom, Paul Horn, Yuezhi Mao, Dmitri Zuev, Alec White,
  David Stuck, Shaama M.S., Shane Yost, Joonho Lee, David Small,
  Daniel Levine, Susi Lehtola, Hugh Burton, Evgeny Epifanovsky,
  Bang C. Huynh
 -----------------------------------------------------------------------
 Hartree-Fock
 A restricted SCF calculation will be
 performed using DIIS, GDM
 SCF converges when RMS gradient is below 1.0e-08
 ---------------------------------------
  Cycle       Energy         DIIS error
 ---------------------------------------
    1    -378.9587388932      1.51e-01  
    2    -378.5924422434      9.09e-03  Done DIIS. Switching to GDM
 ---------------------------------------
  Cycle       Energy        RMS Gradient
 ---------------------------------------
    1    -378.5924422434      5.82e-02   Normal BFGS step
    2    -378.6502030903      1.82e-02   Normal BFGS step
    3    -378.6541022490      7.65e-03   Normal BFGS step
    4    -378.6542535025      2.66e-03   Normal BFGS step
    5    -378.6542703835      5.46e-04   Normal BFGS step
    6    -378.6542718865      2.97e-04   Normal BFGS step
    7    -378.6542721888      3.13e-05   Normal BFGS step
    8    -378.6542721927      2.91e-06   Normal BFGS step
    9    -378.6542721927      9.70e-07   Normal BFGS step
   10    -378.6542721928      2.04e-07   Normal BFGS step
   11    -378.6542721928      5.19e-08   Normal BFGS step
   12    -378.6542721928      1.44e-08   Normal BFGS step
   13    -378.6542721928      3.93e-09  Convergence criterion met
 ---------------------------------------
 SCF time:   CPU 0.62s  wall 1.00s 
 SCF   energy in the final basis set =     -378.6542721928
 Total energy in the final basis set =     -378.6542721928
 mp2 is not implemented in computing transition properties!


 ------------------------------------------------------------------------------

   CCMAN2: suite of methods based on coupled cluster
           and equation of motion theories.

   Components:
   * libvmm-1.3-trunk
     by Evgeny Epifanovsky, Ilya Kaliman.
   * libtensor-2.5-trunk
     by Evgeny Epifanovsky, Michael Wormit, Dmitry Zuev, Sam Manzer, 
        Ilya Kaliman.
   * libcc-2.5-trunk
     by Evgeny Epifanovsky, Arik Landau, Tomasz Kus, Kirill Khistyaev, 
        Dmitry Zuev, Prashant Manohar, Xintian Feng, Anna Krylov, 
        Matthew Goldey, Alec White, Thomas Jagau, Kaushik Nanda, 
        Anastasia Gunina, Alexander Kunitsa, Joonho Lee.

   CCMAN original authors:
   Anna I. Krylov, C. David Sherrill, Steven R. Gwaltney,
   Edward F. C. Byrd (2000)
   Sergey V. Levchenko, Lyudmila V. Slipchenko, Tao Wang,
   Ana-Maria C. Cristian (2003)
   Piotr A. Pieniazek, C. Melania Oana, Evgeny Epifanovsky (2007)
   Prashant Manohar (2009)

 ------------------------------------------------------------------------------


 Allocating and initializing 72000MB of RAM...
 Calculation will run on 1 core.

 
 Alpha MOs, Restricted
 -- Occupied --                  
-11.040 -11.040 -11.030 -11.030 -11.030 -11.030 -11.028 -11.028
  1 Ag    1 B2u   2 Ag    1 B3u   1 B1g   2 B2u   2 B1g   3 B2u                
-11.028 -11.027  -1.107  -1.041  -0.980  -0.956  -0.898  -0.806
  2 B3u   3 Ag    4 Ag    3 B3u   4 B2u   5 Ag    3 B1g   4 B3u                
 -0.764  -0.753  -0.653  -0.644  -0.617  -0.571  -0.553  -0.520
  5 B2u   6 Ag    4 B1g   5 B3u   7 Ag    6 B2u   8 Ag    5 B1g                
 -0.516  -0.491  -0.481  -0.476  -0.415  -0.412  -0.391  -0.323
  6 B3u   7 B2u   1 B1u   7 B3u   9 Ag    6 B1g   1 B2g   1 B3g                
 -0.272  -0.196
  2 B1u   1 Au                                                                 
 -- Virtual --                   
  0.174   0.258   0.324   0.408   0.546   0.587   0.606   0.611
  2 B2g   2 B3g   3 B1u   2 Au    3 B3g  10 Ag    8 B2u   8 B3u                
  0.668   0.672   0.699   0.718   0.735   0.745   0.781   0.791
 11 Ag    9 B3u   9 B2u   7 B1g   8 B1g  10 B2u  10 B3u  12 Ag                 
  0.868   0.893   0.936   0.938   0.983   1.053   1.110   1.172
 11 B2u   9 B1g  13 Ag   11 B3u  10 B1g  12 B2u  13 B2u  11 B1g                
 
 Beta MOs, Restricted
 -- Occupied --                  
-11.040 -11.040 -11.030 -11.030 -11.030 -11.030 -11.028 -11.028
  1 Ag    1 B2u   2 Ag    1 B3u   1 B1g   2 B2u   2 B1g   3 B2u                
-11.028 -11.027  -1.107  -1.041  -0.980  -0.956  -0.898  -0.806
  2 B3u   3 Ag    4 Ag    3 B3u   4 B2u   5 Ag    3 B1g   4 B3u                
 -0.764  -0.753  -0.653  -0.644  -0.617  -0.571  -0.553  -0.520
  5 B2u   6 Ag    4 B1g   5 B3u   7 Ag    6 B2u   8 Ag    5 B1g                
 -0.516  -0.491  -0.481  -0.476  -0.415  -0.412  -0.391  -0.323
  6 B3u   7 B2u   1 B1u   7 B3u   9 Ag    6 B1g   1 B2g   1 B3g                
 -0.272  -0.196
  2 B1u   1 Au                                                                 
 -- Virtual --                   
  0.174   0.258   0.324   0.408   0.546   0.587   0.606   0.611
  2 B2g   2 B3g   3 B1u   2 Au    3 B3g  10 Ag    8 B2u   8 B3u                
  0.668   0.672   0.699   0.718   0.735   0.745   0.781   0.791
 11 Ag    9 B3u   9 B2u   7 B1g   8 B1g  10 B2u  10 B3u  12 Ag                 
  0.868   0.893   0.936   0.938   0.983   1.053   1.110   1.172
 11 B2u   9 B1g  13 Ag   11 B3u  10 B1g  12 B2u  13 B2u  11 B1g                

 Occupation and symmetry of molecular orbitals

 Point group: D2h (8 irreducible representations).

                           Ag   B1g  B2g  B3g  Au   B1u  B2u  B3u   All 
 ------------------------------------------------------------------------
 All molecular orbitals:
  - Alpha                  13   11   2    3    2    3    13   11    58  
  - Beta                   13   11   2    3    2    3    13   11    58  
 ------------------------------------------------------------------------
 Alpha orbitals:
  - Frozen occupied        3    2    0    0    0    0    3    2     10  
  - Active occupied        6    4    1    1    1    2    4    5     24  
  - Active virtual         4    5    1    2    1    1    6    4     24  
  - Frozen virtual         0    0    0    0    0    0    0    0     0   
 ------------------------------------------------------------------------
 Beta orbitals:
  - Frozen occupied        3    2    0    0    0    0    3    2     10  
  - Active occupied        6    4    1    1    1    2    4    5     24  
  - Active virtual         4    5    1    2    1    1    6    4     24  
  - Frozen virtual         0    0    0    0    0    0    0    0     0   
 ------------------------------------------------------------------------

 Import integrals:   CPU 0.00 s  wall 0.00 s

 Import integrals:   CPU 1.14 s  wall 1.34 s

 Computing CCSD intermediates for later calculations in double precision
 Finished.

 MP2 amplitudes:   CPU 8.15 s  wall 8.53 s

        Solving for EOMSF-CCSD Ag transitions.

Running a double precision version
       EOMSF-CCSD/MP2 right amplitudes will be solved using Davidson.
        Amplitudes will be solved using standard  algorithm.
     Hard-coded thresholds: 
     LinDepThresh=1.00e-15  NormThresh=1.00e-06  ReorthogonThresh=1.00e-02

      Roots     MaxVec    MaxIter   Precond   Conv      Shift    
      5         120       60        1         1.00e-05  0.00e+00  
 ------------------------------------------------------------------------------
      Iter ConvRoots NVecs ResNorm^2 Current eigenvalues (eV)
 ------------------------------------------------------------------------------
      0    0      10    1.15e-01   8.5204   10.5815   11.6748   14.1197   17.1315   
      1    0      15    1.29e-02   6.5364   8.2443   9.1949   10.5062   13.2145   
      2    0      20    2.99e-03   6.0500   7.6115   8.9472   9.9790   12.1732   
      3    0      25    5.58e-04   5.9896   7.4824   8.9256   9.9373   11.9654   
      4    0      30    1.31e-04   5.9830   7.4646   8.9217   9.9262   11.9162   
      5    2      35    3.72e-05   5.9820*  7.4618   8.9204*  9.9229   11.8972   
      6    4      38    9.32e-06   5.9820*  7.4617*  8.9205*  9.9223*  11.8933   
      7    5      39    3.92e-06   5.9820*  7.4617*  8.9205*  9.9223*  11.8925*  

     Davidson procedure converged

 EOMSF transition 1/Ag
 Total energy = -379.03032920 a.u.  Excitation energy = 5.9820 eV.
 R1^2 = 0.8824  R2^2 = 0.1176  Res^2 = 2.36e-06
 Conv-d = yes

 Amplitude    Transitions between orbitals
  0.6179       1 (B2g) A                 ->    2 (B2g) B                  
  0.5008       1 (Au) A                  ->    2 (Au) B                   
  0.3435       1 (B3g) A                 ->    2 (B3g) B                  
 -0.3189       2 (B1u) A                 ->    3 (B1u) B                  
 -0.1241       1 (B1u) A                 ->    3 (B1u) B                  
  0.1014       1 (B3g) A                 ->    3 (B3g) B                  

              Summary of significant orbitals:

               Number  Type             Irrep      Energy
               31      Occ  Alpha       1 (B2g)     -0.3906
               32      Occ  Alpha       1 (B3g)     -0.3226
               34      Occ  Alpha       1 (Au)     -0.1957
               27      Occ  Alpha       1 (B1u)     -0.4809
               33      Occ  Alpha       2 (B1u)     -0.2724
               35      Vir  Beta        2 (B2g)      0.1743
               36      Vir  Beta        2 (B3g)      0.2583
               39      Vir  Beta        3 (B3g)      0.5458
               38      Vir  Beta        2 (Au)      0.4079
               37      Vir  Beta        3 (B1u)      0.3236


 EOMSF transition 2/Ag
 Total energy = -378.97595257 a.u.  Excitation energy = 7.4617 eV.
 R1^2 = 0.8254  R2^2 = 0.1746  Res^2 = 1.16e-06
 Conv-d = yes

 Amplitude    Transitions between orbitals
 -0.5897       1 (B3g) A                 ->    2 (B3g) B                  
  0.4659       2 (B1u) A                 ->    3 (B1u) B                  
  0.3326       1 (B2g) A                 ->    2 (B2g) B                  
 -0.2459       1 (B1u) A                 ->    3 (B1u) B                  
  0.2110       1 (B3g) A                 ->    3 (B3g) B                  
  0.2022       1 (Au) A                  ->    2 (Au) B                   

              Summary of significant orbitals:

               Number  Type             Irrep      Energy
               31      Occ  Alpha       1 (B2g)     -0.3906
               32      Occ  Alpha       1 (B3g)     -0.3226
               34      Occ  Alpha       1 (Au)     -0.1957
               27      Occ  Alpha       1 (B1u)     -0.4809
               33      Occ  Alpha       2 (B1u)     -0.2724
               35      Vir  Beta        2 (B2g)      0.1743
               36      Vir  Beta        2 (B3g)      0.2583
               39      Vir  Beta        3 (B3g)      0.5458
               38      Vir  Beta        2 (Au)      0.4079
               37      Vir  Beta        3 (B1u)      0.3236


 EOMSF transition 3/Ag
 Total energy = -378.92234294 a.u.  Excitation energy = 8.9205 eV.
 R1^2 = 0.9099  R2^2 = 0.0901  Res^2 = 4.57e-06
 Conv-d = yes

 Amplitude    Transitions between orbitals
  0.6465       2 (B1u) A                 ->    3 (B1u) B                  
  0.5441       1 (B3g) A                 ->    2 (B3g) B                  
  0.3413       1 (Au) A                  ->    2 (Au) B                   
 -0.2704       1 (B2g) A                 ->    2 (B2g) B                  

              Summary of significant orbitals:

               Number  Type             Irrep      Energy
               31      Occ  Alpha       1 (B2g)     -0.3906
               32      Occ  Alpha       1 (B3g)     -0.3226
               34      Occ  Alpha       1 (Au)     -0.1957
               33      Occ  Alpha       2 (B1u)     -0.2724
               35      Vir  Beta        2 (B2g)      0.1743
               36      Vir  Beta        2 (B3g)      0.2583
               38      Vir  Beta        2 (Au)      0.4079
               37      Vir  Beta        3 (B1u)      0.3236


 EOMSF transition 4/Ag
 Total energy = -378.88552538 a.u.  Excitation energy = 9.9223 eV.
 R1^2 = 0.8580  R2^2 = 0.1420  Res^2 = 3.72e-06
 Conv-d = yes

 Amplitude    Transitions between orbitals
 -0.6285       1 (Au) A                  ->    2 (Au) B                   
  0.5316       1 (B2g) A                 ->    2 (B2g) B                  
  0.3048       2 (B1u) A                 ->    3 (B1u) B                  
  0.2816       1 (B3g) A                 ->    2 (B3g) B                  

              Summary of significant orbitals:

               Number  Type             Irrep      Energy
               31      Occ  Alpha       1 (B2g)     -0.3906
               32      Occ  Alpha       1 (B3g)     -0.3226
               34      Occ  Alpha       1 (Au)     -0.1957
               33      Occ  Alpha       2 (B1u)     -0.2724
               35      Vir  Beta        2 (B2g)      0.1743
               36      Vir  Beta        2 (B3g)      0.2583
               38      Vir  Beta        2 (Au)      0.4079
               37      Vir  Beta        3 (B1u)      0.3236


 EOMSF transition 5/Ag
 Total energy = -378.81312403 a.u.  Excitation energy = 11.8925 eV.
 R1^2 = 0.7356  R2^2 = 0.2644  Res^2 = 7.77e-06
 Conv-d = yes

 Amplitude    Transitions between orbitals
 -0.6770       1 (B1u) A                 ->    3 (B1u) B                  
  0.4101       1 (B3g) A                 ->    3 (B3g) B                  
 -0.2081       1 (Au) A                  ->    2 (Au) B                   
 -0.1561       1 (B2g) A                 ->    2 (B2g) B                  
 -0.1551       2 (B1u) A                 ->    3 (B1u) B                  
  0.1152       1 (B3g) A                 ->    2 (B3g) B                  

              Summary of significant orbitals:

               Number  Type             Irrep      Energy
               31      Occ  Alpha       1 (B2g)     -0.3906
               32      Occ  Alpha       1 (B3g)     -0.3226
               34      Occ  Alpha       1 (Au)     -0.1957
               27      Occ  Alpha       1 (B1u)     -0.4809
               33      Occ  Alpha       2 (B1u)     -0.2724
               35      Vir  Beta        2 (B2g)      0.1743
               36      Vir  Beta        2 (B3g)      0.2583
               39      Vir  Beta        3 (B3g)      0.5458
               38      Vir  Beta        2 (Au)      0.4079
               37      Vir  Beta        3 (B1u)      0.3236


Running a double precision version
      EOM-CCSD/MP2 left amplitudes will be solved using Davidson.
        Amplitudes will be solved using MOM  algorithm.
     Hard-coded thresholds: 
     LinDepThresh=1.00e-15  NormThresh=1.00e-06  ReorthogonThresh=1.00e-02

      Roots     MaxVec    MaxIter   Precond   Conv      Shift    
      5         120       60        1         1.00e-05  0.00e+00  
 ------------------------------------------------------------------------------
      Iter ConvRoots NVecs ResNorm^2 Current eigenvalues (eV)
 ------------------------------------------------------------------------------
      0    0      5     2.60e-03   5.9820   7.4617   8.9205   9.9223   11.8925   
      1    0      10    2.16e-04   5.9820   7.4617   8.9204   9.9223   11.8921   
      2    1      15    3.88e-05   5.9820*  7.4617   8.9202   9.9223   11.8921   
      3    3      19    9.99e-06   5.9820*  7.4617*  8.9201*  9.9222   11.8919   
      4    4      21    6.84e-06   5.9820*  7.4617*  8.9201*  9.9222*  11.8919   
      5    4      22    5.26e-06   5.9820*  7.4617*  8.9201*  9.9222*  11.8919   
      6    5      23    3.57e-06   5.9820*  7.4617*  8.9201*  9.9222*  11.8919*  

     Davidson procedure converged

 EOMSF-CCSD transition 1/Ag
S^2 calculation will be performed in  double precision
 EOMSF-CCSD transition 2/Ag
S^2 calculation will be performed in  double precision
 EOMSF-CCSD transition 3/Ag
S^2 calculation will be performed in  double precision
 EOMSF-CCSD transition 4/Ag
S^2 calculation will be performed in  double precision
 EOMSF-CCSD transition 5/Ag
S^2 calculation will be performed in  double precision
 Excited state properties for  EOMSF-CCSD transition 1/Ag
 Dipole moment (a.u.): 0.000000 (X 0.000000, Y 0.000000, Z 0.000000)
 R-squared (a.u.): 1306.598502 (XX 886.937102, YY 377.770291, ZZ 41.891109)
 Gauge origin (a.u.): (0.000000, 0.000000, 0.000000)
 Angular momentum (a.u.) against gauge origin: 
 (X 0.000000i, Y 0.000000i, Z 0.000000i)
 Traces of the OPDMs: Tr(AA) 33.000000, Tr(BB) 35.000000
 <S^2> = 2.000000

 Excited state properties for  EOMSF-CCSD transition 2/Ag
 Dipole moment (a.u.): 0.000000 (X 0.000000, Y 0.000000, Z 0.000000)
 R-squared (a.u.): 1307.303631 (XX 888.013407, YY 377.423892, ZZ 41.866332)
 Gauge origin (a.u.): (0.000000, 0.000000, 0.000000)
 Angular momentum (a.u.) against gauge origin: 
 (X 0.000000i, Y 0.000000i, Z 0.000000i)
 Traces of the OPDMs: Tr(AA) 33.000000, Tr(BB) 35.000000
 <S^2> = 2.000000

 Excited state properties for  EOMSF-CCSD transition 3/Ag
 Dipole moment (a.u.): 0.000000 (X 0.000000, Y 0.000000, Z 0.000000)
 R-squared (a.u.): 1307.224228 (XX 887.686456, YY 377.626305, ZZ 41.911467)
 Gauge origin (a.u.): (0.000000, 0.000000, 0.000000)
 Angular momentum (a.u.) against gauge origin: 
 (X 0.000000i, Y 0.000000i, Z 0.000000i)
 Traces of the OPDMs: Tr(AA) 33.000000, Tr(BB) 35.000000
 <S^2> = 2.000000

 Excited state properties for  EOMSF-CCSD transition 4/Ag
 Dipole moment (a.u.): 0.000000 (X 0.000000, Y 0.000000, Z 0.000000)
 R-squared (a.u.): 1306.990115 (XX 887.772655, YY 377.320578, ZZ 41.896882)
 Gauge origin (a.u.): (0.000000, 0.000000, 0.000000)
 Angular momentum (a.u.) against gauge origin: 
 (X 0.000000i, Y 0.000000i, Z 0.000000i)
 Traces of the OPDMs: Tr(AA) 33.000000, Tr(BB) 35.000000
 <S^2> = 2.000000

 Excited state properties for  EOMSF-CCSD transition 5/Ag
 Dipole moment (a.u.): 0.000000 (X 0.000000, Y 0.000000, Z 0.000000)
 R-squared (a.u.): 1306.597726 (XX 886.979251, YY 377.877567, ZZ 41.740909)
 Gauge origin (a.u.): (0.000000, 0.000000, 0.000000)
 Angular momentum (a.u.) against gauge origin: 
 (X 0.000000i, Y 0.000000i, Z 0.000000i)
 Traces of the OPDMs: Tr(AA) 33.000000, Tr(BB) 35.000000
 <S^2> = 2.000000

        Solving for EOMSF-CCSD B1g transitions.

Running a double precision version
       EOMSF-CCSD/MP2 right amplitudes will be solved using Davidson.
        Amplitudes will be solved using standard  algorithm.
     Hard-coded thresholds: 
     LinDepThresh=1.00e-15  NormThresh=1.00e-06  ReorthogonThresh=1.00e-02

      Roots     MaxVec    MaxIter   Precond   Conv      Shift    
      5         120       60        1         1.00e-05  0.00e+00  
 ------------------------------------------------------------------------------
      Iter ConvRoots NVecs ResNorm^2 Current eigenvalues (eV)
 ------------------------------------------------------------------------------
      0    0      10    1.18e-01   5.9913   10.2666   11.7648   15.9268   19.6451   
      1    0      15    1.43e-02   4.5506   8.1799   8.3728   12.1276   15.3293   
      2    0      20    3.69e-03   4.2483   7.5643   7.9366   11.5321   13.6383   
      3    0      25    9.98e-04   4.2222   7.4361   7.9048   11.4665   13.2690   
      4    0      30    6.19e-04   4.2190   7.4132   7.8968   11.4382   13.0833   
      5    1      35    8.95e-04   4.2185*  7.4061   7.8937   11.4258   12.9196   
      6    2      39    1.35e-03   4.2185*  7.4047   7.8933*  11.4196   12.5609   
      7    3      42    3.77e-04   4.2184*  7.4046*  7.8932*  11.4168   12.3380   
      8    4      44    9.19e-05   4.2184*  7.4046*  7.8932*  11.4161*  12.2883   
      9    4      45    2.20e-05   4.2184*  7.4046*  7.8932*  11.4159*  12.2758   
      10   4      46    5.52e-06   4.2184*  7.4046*  7.8932*  11.4159*  12.2727   
      11   5      47    2.07e-06   4.2184*  7.4046*  7.8932*  11.4159*  12.2720*  

     Davidson procedure converged

 EOMSF transition 1/B1g
 Total energy = -379.09513934 a.u.  Excitation energy = 4.2184 eV.
 R1^2 = 0.9284  R2^2 = 0.0716  Res^2 = 9.44e-07
 Conv-d = yes

 Amplitude    Transitions between orbitals
  0.7060       1 (B3g) A                 ->    2 (B2g) B                  
  0.6220       1 (Au) A                  ->    3 (B1u) B                  
 -0.1103       1 (B1u) A                 ->    2 (Au) B                   
  0.1003       1 (B2g) A                 ->    3 (B3g) B                  

              Summary of significant orbitals:

               Number  Type             Irrep      Energy
               31      Occ  Alpha       1 (B2g)     -0.3906
               32      Occ  Alpha       1 (B3g)     -0.3226
               34      Occ  Alpha       1 (Au)     -0.1957
               27      Occ  Alpha       1 (B1u)     -0.4809
               35      Vir  Beta        2 (B2g)      0.1743
               39      Vir  Beta        3 (B3g)      0.5458
               38      Vir  Beta        2 (Au)      0.4079
               37      Vir  Beta        3 (B1u)      0.3236


 EOMSF transition 2/B1g
 Total energy = -378.97804838 a.u.  Excitation energy = 7.4046 eV.
 R1^2 = 0.8258  R2^2 = 0.1742  Res^2 = 3.91e-07
 Conv-d = yes

 Amplitude    Transitions between orbitals
 -0.6646       1 (B2g) A                 ->    2 (B3g) B                  
  0.5654       2 (B1u) A                 ->    2 (Au) B                   
  0.1542       1 (B1u) A                 ->    2 (Au) B                   
 -0.1317       1 (B2g) A                 ->    3 (B3g) B                  
  0.1269       1 (B3g) A                 ->    2 (B2g) B                  

              Summary of significant orbitals:

               Number  Type             Irrep      Energy
               31      Occ  Alpha       1 (B2g)     -0.3906
               32      Occ  Alpha       1 (B3g)     -0.3226
               27      Occ  Alpha       1 (B1u)     -0.4809
               33      Occ  Alpha       2 (B1u)     -0.2724
               35      Vir  Beta        2 (B2g)      0.1743
               36      Vir  Beta        2 (B3g)      0.2583
               39      Vir  Beta        3 (B3g)      0.5458
               38      Vir  Beta        2 (Au)      0.4079


 EOMSF transition 3/B1g
 Total energy = -378.96009462 a.u.  Excitation energy = 7.8932 eV.
 R1^2 = 0.8755  R2^2 = 0.1245  Res^2 = 1.18e-06
 Conv-d = yes

 Amplitude    Transitions between orbitals
 -0.7037       1 (Au) A                  ->    3 (B1u) B                  
  0.6138       1 (B3g) A                 ->    2 (B2g) B                  
  0.0531       1 (B2g) A                 ->    2 (B3g) B                  
 -0.0180       1 (B1u) A                 ->    2 (Au) B                   

              Summary of significant orbitals:

               Number  Type             Irrep      Energy
               31      Occ  Alpha       1 (B2g)     -0.3906
               32      Occ  Alpha       1 (B3g)     -0.3226
               34      Occ  Alpha       1 (Au)     -0.1957
               27      Occ  Alpha       1 (B1u)     -0.4809
               35      Vir  Beta        2 (B2g)      0.1743
               36      Vir  Beta        2 (B3g)      0.2583
               38      Vir  Beta        2 (Au)      0.4079
               37      Vir  Beta        3 (B1u)      0.3236


 EOMSF transition 4/B1g
 Total energy = -378.83063791 a.u.  Excitation energy = 11.4159 eV.
 R1^2 = 0.8163  R2^2 = 0.1837  Res^2 = 8.98e-07
 Conv-d = yes

 Amplitude    Transitions between orbitals
  0.6523       2 (B1u) A                 ->    2 (Au) B                   
  0.6134       1 (B2g) A                 ->    2 (B3g) B                  
 -0.1030       1 (B2g) A                 ->    3 (B3g) B                  
 -0.0589       1 (B1u) A                 ->    2 (Au) B                   

              Summary of significant orbitals:

               Number  Type             Irrep      Energy
               31      Occ  Alpha       1 (B2g)     -0.3906
               27      Occ  Alpha       1 (B1u)     -0.4809
               33      Occ  Alpha       2 (B1u)     -0.2724
               36      Vir  Beta        2 (B3g)      0.2583
               39      Vir  Beta        3 (B3g)      0.5458
               38      Vir  Beta        2 (Au)      0.4079


 EOMSF transition 5/B1g
 Total energy = -378.79917633 a.u.  Excitation energy = 12.2720 eV.
 R1^2 = 0.0841  R2^2 = 0.9159  Res^2 = 6.94e-06
 Conv-d = yes

 Amplitude    Transitions between orbitals
 -0.5703       1 (Au) A      2 (B1u) A   ->    2 (B2g) A     2 (B2g) B    
  0.5703       1 (Au) A      2 (B1u) A   ->    2 (B2g) B     2 (B2g) A    
  0.5703       2 (B1u) A     1 (Au) A    ->    2 (B2g) A     2 (B2g) B    
 -0.5703       2 (B1u) A     1 (Au) A    ->    2 (B2g) B     2 (B2g) A    
  0.5547       1 (Au) A      1 (Au) B    ->    2 (B2g) B     2 (B3g) B    
 -0.5547       1 (Au) A      1 (Au) B    ->    2 (B3g) B     2 (B2g) B    
 -0.5547       1 (Au) B      1 (Au) A    ->    2 (B2g) B     2 (B3g) B    
  0.5547       1 (Au) B      1 (Au) A    ->    2 (B3g) B     2 (B2g) B    
  0.1482       1 (Au) A      2 (B1u) A   ->    3 (B1u) A     3 (B1u) B    
 -0.1482       1 (Au) A      2 (B1u) A   ->    3 (B1u) B     3 (B1u) A    
 -0.1482       2 (B1u) A     1 (Au) A    ->    3 (B1u) A     3 (B1u) B    
  0.1482       2 (B1u) A     1 (Au) A    ->    3 (B1u) B     3 (B1u) A    
 -0.1416       1 (B3g) A     1 (B3g) B   ->    2 (B2g) B     2 (B3g) B    
  0.1416       1 (B3g) A     1 (B3g) B   ->    2 (B3g) B     2 (B2g) B    
  0.1416       1 (B3g) B     1 (B3g) A   ->    2 (B2g) B     2 (B3g) B    
 -0.1416       1 (B3g) B     1 (B3g) A   ->    2 (B3g) B     2 (B2g) B    
 -0.1387       1 (B2g) A     2 (B1u) A   ->    2 (B2g) A     2 (Au) B     
  0.1387       1 (B2g) A     2 (B1u) A   ->    2 (Au) B      2 (B2g) A    
  0.1387       2 (B1u) A     1 (B2g) A   ->    2 (B2g) A     2 (Au) B     
 -0.1387       2 (B1u) A     1 (B2g) A   ->    2 (Au) B      2 (B2g) A    
  0.1324       2 (B1u) A     1 (B3g) B   ->    2 (B2g) B     3 (B1u) B    
 -0.1324       2 (B1u) A     1 (B3g) B   ->    3 (B1u) B     2 (B2g) B    
 -0.1324       1 (B3g) B     2 (B1u) A   ->    2 (B2g) B     3 (B1u) B    
  0.1324       1 (B3g) B     2 (B1u) A   ->    3 (B1u) B     2 (B2g) B    
 -0.1229       1 (B3g) A     1 (Au) B    ->    2 (B3g) B     3 (B1u) B    
  0.1229       1 (B3g) A     1 (Au) B    ->    3 (B1u) B     2 (B3g) B    
  0.1229       1 (Au) B      1 (B3g) A   ->    2 (B3g) B     3 (B1u) B    
 -0.1229       1 (Au) B      1 (B3g) A   ->    3 (B1u) B     2 (B3g) B    
 -0.1219       1 (B3g) A     2 (B1u) A   ->    2 (B2g) A     3 (B1u) B    
  0.1219       1 (B3g) A     2 (B1u) A   ->    3 (B1u) B     2 (B2g) A    
  0.1219       2 (B1u) A     1 (B3g) A   ->    2 (B2g) A     3 (B1u) B    
 -0.1219       2 (B1u) A     1 (B3g) A   ->    3 (B1u) B     2 (B2g) A    
  0.1191       1 (B3g) A     1 (Au) A    ->    3 (B1u) A     2 (B3g) B    
 -0.1191       1 (B3g) A     1 (Au) A    ->    2 (B3g) B     3 (B1u) A    
 -0.1191       1 (Au) A      1 (B3g) A   ->    3 (B1u) A     2 (B3g) B    
  0.1191       1 (Au) A      1 (B3g) A   ->    2 (B3g) B     3 (B1u) A    
 -0.1057       1 (B2g) A     1 (Au) B    ->    2 (B3g) B     2 (Au) B     
  0.1057       1 (B2g) A     1 (Au) B    ->    2 (Au) B      2 (B3g) B    
  0.1057       1 (Au) B      1 (B2g) A   ->    2 (B3g) B     2 (Au) B     
 -0.1057       1 (Au) B      1 (B2g) A   ->    2 (Au) B      2 (B3g) B    

              Summary of significant orbitals:

               Number  Type             Irrep      Energy
               31      Occ  Alpha       1 (B2g)     -0.3906
               32      Occ  Alpha       1 (B3g)     -0.3226
               34      Occ  Alpha       1 (Au)     -0.1957
               33      Occ  Alpha       2 (B1u)     -0.2724
               32      Occ  Beta        1 (B3g)     -0.3226
               34      Occ  Beta        1 (Au)     -0.1957
               35      Vir  Alpha       2 (B2g)      0.1743
               37      Vir  Alpha       3 (B1u)      0.3236
               35      Vir  Beta        2 (B2g)      0.1743
               36      Vir  Beta        2 (B3g)      0.2583
               38      Vir  Beta        2 (Au)      0.4079
               37      Vir  Beta        3 (B1u)      0.3236


Running a double precision version
      EOM-CCSD/MP2 left amplitudes will be solved using Davidson.
        Amplitudes will be solved using MOM  algorithm.
     Hard-coded thresholds: 
     LinDepThresh=1.00e-15  NormThresh=1.00e-06  ReorthogonThresh=1.00e-02

      Roots     MaxVec    MaxIter   Precond   Conv      Shift    
      5         120       60        1         1.00e-05  0.00e+00  
 ------------------------------------------------------------------------------
      Iter ConvRoots NVecs ResNorm^2 Current eigenvalues (eV)
 ------------------------------------------------------------------------------
      0    0      5     2.01e-03   4.2184   7.4046   7.8932   11.4159   12.2720   
      1    0      10    1.69e-04   4.2184   7.4046   7.8931   11.4158   12.2718   
      2    2      15    3.33e-05   4.2184*  7.4046*  7.8932   11.4158   12.2717   
      3    4      18    1.83e-05   4.2184*  7.4046*  7.8931*  11.4157   12.2715*  
      4    4      19    9.93e-06   4.2184*  7.4046*  7.8931*  11.4157   12.2716*  
      5    5      20    6.73e-06   4.2184*  7.4046*  7.8931*  11.4157*  12.2716*  

     Davidson procedure converged

 EOMSF-CCSD transition 1/B1g
S^2 calculation will be performed in  double precision
 EOMSF-CCSD transition 2/B1g
S^2 calculation will be performed in  double precision
 EOMSF-CCSD transition 3/B1g
S^2 calculation will be performed in  double precision
 EOMSF-CCSD transition 4/B1g
S^2 calculation will be performed in  double precision
 EOMSF-CCSD transition 5/B1g
S^2 calculation will be performed in  double precision
 Excited state properties for  EOMSF-CCSD transition 1/B1g
 Dipole moment (a.u.): 0.000000 (X 0.000000, Y 0.000000, Z 0.000000)
 R-squared (a.u.): 1307.350332 (XX 888.150471, YY 377.254064, ZZ 41.945797)
 Gauge origin (a.u.): (0.000000, 0.000000, 0.000000)
 Angular momentum (a.u.) against gauge origin: 
 (X 0.000000i, Y 0.000000i, Z 0.000000i)
 Traces of the OPDMs: Tr(AA) 33.000000, Tr(BB) 35.000000
 <S^2> = 2.000000

 Excited state properties for  EOMSF-CCSD transition 2/B1g
 Dipole moment (a.u.): 0.000000 (X 0.000000, Y 0.000000, Z 0.000000)
 R-squared (a.u.): 1306.737055 (XX 887.286930, YY 377.613686, ZZ 41.836439)
 Gauge origin (a.u.): (0.000000, 0.000000, 0.000000)
 Angular momentum (a.u.) against gauge origin: 
 (X 0.000000i, Y 0.000000i, Z 0.000000i)
 Traces of the OPDMs: Tr(AA) 33.000000, Tr(BB) 35.000000
 <S^2> = 2.000000

 Excited state properties for  EOMSF-CCSD transition 3/B1g
 Dipole moment (a.u.): 0.000000 (X 0.000000, Y 0.000000, Z 0.000000)
 R-squared (a.u.): 1306.825236 (XX 887.669077, YY 377.205468, ZZ 41.950691)
 Gauge origin (a.u.): (0.000000, 0.000000, 0.000000)
 Angular momentum (a.u.) against gauge origin: 
 (X 0.000000i, Y 0.000000i, Z 0.000000i)
 Traces of the OPDMs: Tr(AA) 33.000000, Tr(BB) 35.000000
 <S^2> = 2.000000

 Excited state properties for  EOMSF-CCSD transition 4/B1g
 Dipole moment (a.u.): 0.000000 (X 0.000000, Y 0.000000, Z 0.000000)
 R-squared (a.u.): 1306.827290 (XX 887.191086, YY 377.791515, ZZ 41.844689)
 Gauge origin (a.u.): (0.000000, 0.000000, 0.000000)
 Angular momentum (a.u.) against gauge origin: 
 (X 0.000000i, Y 0.000000i, Z 0.000000i)
 Traces of the OPDMs: Tr(AA) 33.000000, Tr(BB) 35.000000
 <S^2> = 2.000000

 Excited state properties for  EOMSF-CCSD transition 5/B1g
 Dipole moment (a.u.): 0.000000 (X 0.000000, Y 0.000000, Z 0.000000)
 R-squared (a.u.): 1306.931414 (XX 887.464003, YY 377.655927, ZZ 41.811484)
 Gauge origin (a.u.): (0.000000, 0.000000, 0.000000)
 Angular momentum (a.u.) against gauge origin: 
 (X 0.000000i, Y 0.000000i, Z 0.000000i)
 Traces of the OPDMs: Tr(AA) 33.000000, Tr(BB) 35.000000
 <S^2> = 2.000001

        Solving for EOMSF-CCSD B2g transitions.

Running a double precision version
       EOMSF-CCSD/MP2 right amplitudes will be solved using Davidson.
        Amplitudes will be solved using standard  algorithm.
     Hard-coded thresholds: 
     LinDepThresh=1.00e-15  NormThresh=1.00e-06  ReorthogonThresh=1.00e-02

      Roots     MaxVec    MaxIter   Precond   Conv      Shift    
      5         120       60        1         1.00e-05  0.00e+00  
 ------------------------------------------------------------------------------
      Iter ConvRoots NVecs ResNorm^2 Current eigenvalues (eV)
 ------------------------------------------------------------------------------
      0    0      10    1.31e-01   11.5510   12.9768   14.6466   15.9013   17.2337   
      1    0      15    1.38e-02   8.6112   10.2006   11.6913   12.9081   13.6660   
      2    0      20    2.76e-03   8.1994   9.7533   11.1548   12.3106   13.0500   
      3    0      25    6.12e-04   8.1479   9.6929   11.0797   12.2090   12.9475   
      4    0      30    1.68e-04   8.1423   9.6839   11.0662   12.1822   12.9224   
      5    1      35    5.52e-05   8.1404*  9.6812   11.0603   12.1722   12.9096   
      6    3      39    2.05e-05   8.1404*  9.6811*  11.0593*  12.1697   12.9064   
      7    4      41    8.30e-06   8.1404*  9.6811*  11.0593*  12.1698*  12.9060   
      8    5      42    6.05e-06   8.1404*  9.6811*  11.0593*  12.1698*  12.9053*  

     Davidson procedure converged

 EOMSF transition 1/B2g
 Total energy = -378.95101003 a.u.  Excitation energy = 8.1404 eV.
 R1^2 = 0.9013  R2^2 = 0.0987  Res^2 = 6.63e-06
 Conv-d = yes

 Amplitude    Transitions between orbitals
 -0.9299       9 (Ag) A                  ->    2 (B2g) B                  
  0.1435       7 (B3u) A                 ->    3 (B1u) B                  
  0.0600       6 (B2u) A                 ->    2 (Au) B                   
 -0.0477       5 (B1g) A                 ->    3 (B3g) B                  

              Summary of significant orbitals:

               Number  Type             Irrep      Energy
               29      Occ  Alpha       9 (Ag)     -0.4147
               24      Occ  Alpha       5 (B1g)     -0.5198
               22      Occ  Alpha       6 (B2u)     -0.5713
               28      Occ  Alpha       7 (B3u)     -0.4761
               35      Vir  Beta        2 (B2g)      0.1743
               39      Vir  Beta        3 (B3g)      0.5458
               38      Vir  Beta        2 (Au)      0.4079
               37      Vir  Beta        3 (B1u)      0.3236


 EOMSF transition 2/B2g
 Total energy = -378.89439042 a.u.  Excitation energy = 9.6811 eV.
 R1^2 = 0.8966  R2^2 = 0.1034  Res^2 = 3.51e-06
 Conv-d = yes

 Amplitude    Transitions between orbitals
 -0.9167       6 (B1g) A                 ->    2 (B3g) B                  
 -0.1729       7 (B2u) A                 ->    2 (Au) B                   
 -0.0826       7 (Ag) A                  ->    2 (B2g) B                  
 -0.0681       4 (B1g) A                 ->    2 (B3g) B                  

              Summary of significant orbitals:

               Number  Type             Irrep      Energy
               21      Occ  Alpha       7 (Ag)     -0.6167
               19      Occ  Alpha       4 (B1g)     -0.6533
               30      Occ  Alpha       6 (B1g)     -0.4120
               26      Occ  Alpha       7 (B2u)     -0.4907
               35      Vir  Beta        2 (B2g)      0.1743
               36      Vir  Beta        2 (B3g)      0.2583
               38      Vir  Beta        2 (Au)      0.4079


 EOMSF transition 3/B2g
 Total energy = -378.84374070 a.u.  Excitation energy = 11.0593 eV.
 R1^2 = 0.8939  R2^2 = 0.1061  Res^2 = 6.38e-06
 Conv-d = yes

 Amplitude    Transitions between orbitals
  0.7898       8 (Ag) A                  ->    2 (B2g) B                  
 -0.3396       7 (B3u) A                 ->    3 (B1u) B                  
  0.2541       7 (Ag) A                  ->    2 (B2g) B                  
 -0.2084       6 (B3u) A                 ->    3 (B1u) B                  
  0.1188       6 (B1g) A                 ->    3 (B3g) B                  

              Summary of significant orbitals:

               Number  Type             Irrep      Energy
               21      Occ  Alpha       7 (Ag)     -0.6167
               23      Occ  Alpha       8 (Ag)     -0.5527
               30      Occ  Alpha       6 (B1g)     -0.4120
               25      Occ  Alpha       6 (B3u)     -0.5164
               28      Occ  Alpha       7 (B3u)     -0.4761
               35      Vir  Beta        2 (B2g)      0.1743
               39      Vir  Beta        3 (B3g)      0.5458
               37      Vir  Beta        3 (B1u)      0.3236


 EOMSF transition 4/B2g
 Total energy = -378.80293351 a.u.  Excitation energy = 12.1698 eV.
 R1^2 = 0.9095  R2^2 = 0.0905  Res^2 = 7.67e-06
 Conv-d = yes

 Amplitude    Transitions between orbitals
 -0.5385       5 (B1g) A                 ->    2 (B3g) B                  
  0.4421       6 (B3u) A                 ->    3 (B1u) B                  
 -0.3868       7 (Ag) A                  ->    2 (B2g) B                  
  0.3141       8 (Ag) A                  ->    2 (B2g) B                  
 -0.2769       7 (B2u) A                 ->    2 (Au) B                   
 -0.2450       6 (B1g) A                 ->    3 (B3g) B                  
  0.1335       4 (B1g) A                 ->    2 (B3g) B                  

              Summary of significant orbitals:

               Number  Type             Irrep      Energy
               21      Occ  Alpha       7 (Ag)     -0.6167
               23      Occ  Alpha       8 (Ag)     -0.5527
               19      Occ  Alpha       4 (B1g)     -0.6533
               24      Occ  Alpha       5 (B1g)     -0.5198
               30      Occ  Alpha       6 (B1g)     -0.4120
               26      Occ  Alpha       7 (B2u)     -0.4907
               25      Occ  Alpha       6 (B3u)     -0.5164
               35      Vir  Beta        2 (B2g)      0.1743
               36      Vir  Beta        2 (B3g)      0.2583
               39      Vir  Beta        3 (B3g)      0.5458
               38      Vir  Beta        2 (Au)      0.4079
               37      Vir  Beta        3 (B1u)      0.3236


 EOMSF transition 5/B2g
 Total energy = -378.77590181 a.u.  Excitation energy = 12.9053 eV.
 R1^2 = 0.8478  R2^2 = 0.1522  Res^2 = 6.03e-06
 Conv-d = yes

 Amplitude    Transitions between orbitals
 -0.6910       5 (B1g) A                 ->    2 (B3g) B                  
  0.3933       7 (Ag) A                  ->    2 (B2g) B                  
 -0.3602       6 (B3u) A                 ->    3 (B1u) B                  
 -0.2120       8 (Ag) A                  ->    2 (B2g) B                  
 -0.1228       7 (B3u) A                 ->    3 (B1u) B                  

              Summary of significant orbitals:

               Number  Type             Irrep      Energy
               21      Occ  Alpha       7 (Ag)     -0.6167
               23      Occ  Alpha       8 (Ag)     -0.5527
               24      Occ  Alpha       5 (B1g)     -0.5198
               25      Occ  Alpha       6 (B3u)     -0.5164
               28      Occ  Alpha       7 (B3u)     -0.4761
               35      Vir  Beta        2 (B2g)      0.1743
               36      Vir  Beta        2 (B3g)      0.2583
               37      Vir  Beta        3 (B1u)      0.3236


Running a double precision version
      EOM-CCSD/MP2 left amplitudes will be solved using Davidson.
        Amplitudes will be solved using MOM  algorithm.
     Hard-coded thresholds: 
     LinDepThresh=1.00e-15  NormThresh=1.00e-06  ReorthogonThresh=1.00e-02

      Roots     MaxVec    MaxIter   Precond   Conv      Shift    
      5         120       60        1         1.00e-05  0.00e+00  
 ------------------------------------------------------------------------------
      Iter ConvRoots NVecs ResNorm^2 Current eigenvalues (eV)
 ------------------------------------------------------------------------------
      0    0      5     3.68e-03   8.1404   9.6811   11.0593   12.1698   12.9053   
      1    0      10    3.58e-04   8.1403   9.6811   11.0594   12.1695   12.9051   
      2    0      15    5.06e-05   8.1403   9.6811   11.0595   12.1695   12.9050   
      3    4      20    8.77e-06   8.1402*  9.6811*  11.0595*  12.1695*  12.9049   
      4    5      21    6.76e-06   8.1402*  9.6811*  11.0595*  12.1695*  12.9049*  

     Davidson procedure converged

 EOMSF-CCSD transition 1/B2g
S^2 calculation will be performed in  double precision
 EOMSF-CCSD transition 2/B2g
S^2 calculation will be performed in  double precision
 EOMSF-CCSD transition 3/B2g
S^2 calculation will be performed in  double precision
 EOMSF-CCSD transition 4/B2g
S^2 calculation will be performed in  double precision
 EOMSF-CCSD transition 5/B2g
S^2 calculation will be performed in  double precision
 Excited state properties for  EOMSF-CCSD transition 1/B2g
 Dipole moment (a.u.): 0.000000 (X 0.000000, Y 0.000000, Z 0.000000)
 R-squared (a.u.): 1306.120271 (XX 888.562008, YY 374.475747, ZZ 43.082516)
 Gauge origin (a.u.): (0.000000, 0.000000, 0.000000)
 Angular momentum (a.u.) against gauge origin: 
 (X 0.000000i, Y 0.000000i, Z 0.000000i)
 Traces of the OPDMs: Tr(AA) 33.000000, Tr(BB) 35.000000
 <S^2> = 2.000000

 Excited state properties for  EOMSF-CCSD transition 2/B2g
 Dipole moment (a.u.): 0.000000 (X 0.000000, Y 0.000000, Z 0.000000)
 R-squared (a.u.): 1304.434246 (XX 885.525104, YY 375.867872, ZZ 43.041270)
 Gauge origin (a.u.): (0.000000, 0.000000, 0.000000)
 Angular momentum (a.u.) against gauge origin: 
 (X 0.000000i, Y 0.000000i, Z 0.000000i)
 Traces of the OPDMs: Tr(AA) 33.000000, Tr(BB) 35.000000
 <S^2> = 2.000000

 Excited state properties for  EOMSF-CCSD transition 3/B2g
 Dipole moment (a.u.): 0.000000 (X 0.000000, Y 0.000000, Z 0.000000)
 R-squared (a.u.): 1305.290257 (XX 885.031068, YY 377.219783, ZZ 43.039407)
 Gauge origin (a.u.): (0.000000, 0.000000, 0.000000)
 Angular momentum (a.u.) against gauge origin: 
 (X 0.000000i, Y 0.000000i, Z 0.000000i)
 Traces of the OPDMs: Tr(AA) 33.000000, Tr(BB) 35.000000
 <S^2> = 2.000000

 Excited state properties for  EOMSF-CCSD transition 4/B2g
 Dipole moment (a.u.): 0.000000 (X 0.000000, Y 0.000000, Z 0.000000)
 R-squared (a.u.): 1303.433895 (XX 884.056663, YY 376.415804, ZZ 42.961428)
 Gauge origin (a.u.): (0.000000, 0.000000, 0.000000)
 Angular momentum (a.u.) against gauge origin: 
 (X 0.000000i, Y 0.000000i, Z 0.000000i)
 Traces of the OPDMs: Tr(AA) 33.000000, Tr(BB) 35.000000
 <S^2> = 2.000000

 Excited state properties for  EOMSF-CCSD transition 5/B2g
 Dipole moment (a.u.): 0.000000 (X 0.000000, Y 0.000000, Z 0.000000)
 R-squared (a.u.): 1303.854891 (XX 886.237733, YY 374.645488, ZZ 42.971670)
 Gauge origin (a.u.): (0.000000, 0.000000, 0.000000)
 Angular momentum (a.u.) against gauge origin: 
 (X 0.000000i, Y 0.000000i, Z 0.000000i)
 Traces of the OPDMs: Tr(AA) 33.000000, Tr(BB) 35.000000
 <S^2> = 2.000000

        Solving for EOMSF-CCSD B3g transitions.

Running a double precision version
       EOMSF-CCSD/MP2 right amplitudes will be solved using Davidson.
        Amplitudes will be solved using standard  algorithm.
     Hard-coded thresholds: 
     LinDepThresh=1.00e-15  NormThresh=1.00e-06  ReorthogonThresh=1.00e-02

      Roots     MaxVec    MaxIter   Precond   Conv      Shift    
      5         120       60        1         1.00e-05  0.00e+00  
 ------------------------------------------------------------------------------
      Iter ConvRoots NVecs ResNorm^2 Current eigenvalues (eV)
 ------------------------------------------------------------------------------
      0    0      10    1.35e-01   11.3005   13.1725   14.2129   15.7939   18.1541   
      1    0      15    1.47e-02   8.3632   10.1835   11.1868   12.9460   14.5736   
      2    0      20    3.20e-03   7.9408   9.7102   10.6400   12.3500   13.7696   
      3    0      25    8.17e-04   7.9048   9.6472   10.5570   12.2418   13.6033   
      4    0      30    2.68e-04   7.9006   9.6395   10.5398   12.2097   13.5415   
      5    1      35    8.80e-05   7.8996*  9.6373   10.5319   12.1948   13.5085   
      6    3      39    3.20e-05   7.8996*  9.6374*  10.5308*  12.1908   13.4982   
      7    4      41    1.47e-05   7.8996*  9.6374*  10.5308*  12.1904*  13.4941   
      8    4      42    9.38e-06   7.8996*  9.6374*  10.5308*  12.1903*  13.4913   
      9    4      43    7.07e-06   7.8996*  9.6374*  10.5308*  12.1903*  13.4902   
Found complex roots...
      10   5      44    5.38e-06   7.8996*  9.6374*  10.5308*  12.1903*  13.4895*  

     Davidson procedure converged

 EOMSF transition 1/B3g
 Total energy = -378.95986064 a.u.  Excitation energy = 7.8996 eV.
 R1^2 = 0.9121  R2^2 = 0.0879  Res^2 = 4.69e-06
 Conv-d = yes

 Amplitude    Transitions between orbitals
  0.9242       6 (B1g) A                 ->    2 (B2g) B                  
  0.1525       7 (B2u) A                 ->    3 (B1u) B                  
 -0.1017       6 (B3u) A                 ->    2 (Au) B                   
  0.0958       4 (B1g) A                 ->    2 (B2g) B                  

              Summary of significant orbitals:

               Number  Type             Irrep      Energy
               19      Occ  Alpha       4 (B1g)     -0.6533
               30      Occ  Alpha       6 (B1g)     -0.4120
               26      Occ  Alpha       7 (B2u)     -0.4907
               25      Occ  Alpha       6 (B3u)     -0.5164
               35      Vir  Beta        2 (B2g)      0.1743
               38      Vir  Beta        2 (Au)      0.4079
               37      Vir  Beta        3 (B1u)      0.3236


 EOMSF transition 2/B3g
 Total energy = -378.89599751 a.u.  Excitation energy = 9.6374 eV.
 R1^2 = 0.9015  R2^2 = 0.0985  Res^2 = 3.41e-06
 Conv-d = yes

 Amplitude    Transitions between orbitals
 -0.9169       9 (Ag) A                  ->    2 (B3g) B                  
  0.1531       7 (B3u) A                 ->    2 (Au) B                   
 -0.1057       6 (Ag) A                  ->    2 (B3g) B                  
 -0.0897       8 (Ag) A                  ->    3 (B3g) B                  

              Summary of significant orbitals:

               Number  Type             Irrep      Energy
               18      Occ  Alpha       6 (Ag)     -0.7530
               23      Occ  Alpha       8 (Ag)     -0.5527
               29      Occ  Alpha       9 (Ag)     -0.4147
               28      Occ  Alpha       7 (B3u)     -0.4761
               36      Vir  Beta        2 (B3g)      0.2583
               39      Vir  Beta        3 (B3g)      0.5458
               38      Vir  Beta        2 (Au)      0.4079


 EOMSF transition 3/B3g
 Total energy = -378.86316522 a.u.  Excitation energy = 10.5308 eV.
 R1^2 = 0.9047  R2^2 = 0.0953  Res^2 = 5.47e-06
 Conv-d = yes

 Amplitude    Transitions between orbitals
 -0.8888       5 (B1g) A                 ->    2 (B2g) B                  
 -0.2004       7 (B2u) A                 ->    3 (B1u) B                  
  0.1759       6 (B2u) A                 ->    3 (B1u) B                  
 -0.0998       9 (Ag) A                  ->    3 (B3g) B                  

              Summary of significant orbitals:

               Number  Type             Irrep      Energy
               29      Occ  Alpha       9 (Ag)     -0.4147
               24      Occ  Alpha       5 (B1g)     -0.5198
               22      Occ  Alpha       6 (B2u)     -0.5713
               26      Occ  Alpha       7 (B2u)     -0.4907
               35      Vir  Beta        2 (B2g)      0.1743
               39      Vir  Beta        3 (B3g)      0.5458
               37      Vir  Beta        3 (B1u)      0.3236


 EOMSF transition 4/B3g
 Total energy = -378.80217868 a.u.  Excitation energy = 12.1903 eV.
 R1^2 = 0.9033  R2^2 = 0.0967  Res^2 = 6.84e-06
 Conv-d = yes

 Amplitude    Transitions between orbitals
  0.7819       8 (Ag) A                  ->    2 (B3g) B                  
 -0.4250       7 (B3u) A                 ->    2 (Au) B                   
  0.2348       9 (Ag) A                  ->    3 (B3g) B                  
 -0.1192       5 (B3u) A                 ->    2 (Au) B                   
  0.1008       4 (B1g) A                 ->    2 (B2g) B                  

              Summary of significant orbitals:

               Number  Type             Irrep      Energy
               23      Occ  Alpha       8 (Ag)     -0.5527
               29      Occ  Alpha       9 (Ag)     -0.4147
               19      Occ  Alpha       4 (B1g)     -0.6533
               20      Occ  Alpha       5 (B3u)     -0.6437
               28      Occ  Alpha       7 (B3u)     -0.4761
               35      Vir  Beta        2 (B2g)      0.1743
               36      Vir  Beta        2 (B3g)      0.2583
               39      Vir  Beta        3 (B3g)      0.5458
               38      Vir  Beta        2 (Au)      0.4079


 EOMSF transition 5/B3g
 Total energy = -378.75443353 a.u.  Excitation energy = 13.4895 eV.
 R1^2 = 0.8622  R2^2 = 0.1378  Res^2 = 6.46e-06
 Conv-d = yes

 Amplitude    Transitions between orbitals
  0.5693       7 (B2u) A                 ->    3 (B1u) B                  
 -0.4485       4 (B1g) A                 ->    2 (B2g) B                  
 -0.3777       1 (Au) A                  ->    8 (B3u) B                  
  0.1746       7 (Ag) A                  ->    2 (B3g) B                  
 -0.1584       6 (B3u) A                 ->    2 (Au) B                   
  0.1471       6 (B2u) A                 ->    3 (B1u) B                  
 -0.1377       5 (B1g) A                 ->    2 (B2g) B                  
  0.1341       1 (B3g) A                 ->    11 (Ag) B                  
  0.1144       1 (Au) A                  ->    9 (B3u) B                  
  0.1115       1 (B3g) A                 ->    10 (Ag) B                  
  0.1037       3 (B1g) A                 ->    2 (B2g) B                  

              Summary of significant orbitals:

               Number  Type             Irrep      Energy
               21      Occ  Alpha       7 (Ag)     -0.6167
               15      Occ  Alpha       3 (B1g)     -0.8979
               19      Occ  Alpha       4 (B1g)     -0.6533
               24      Occ  Alpha       5 (B1g)     -0.5198
               32      Occ  Alpha       1 (B3g)     -0.3226
               34      Occ  Alpha       1 (Au)     -0.1957
               22      Occ  Alpha       6 (B2u)     -0.5713
               26      Occ  Alpha       7 (B2u)     -0.4907
               25      Occ  Alpha       6 (B3u)     -0.5164
               40      Vir  Beta       10 (Ag)      0.5875
               43      Vir  Beta       11 (Ag)      0.6684
               35      Vir  Beta        2 (B2g)      0.1743
               36      Vir  Beta        2 (B3g)      0.2583
               38      Vir  Beta        2 (Au)      0.4079
               37      Vir  Beta        3 (B1u)      0.3236
               42      Vir  Beta        8 (B3u)      0.6111
               44      Vir  Beta        9 (B3u)      0.6720


Running a double precision version
      EOM-CCSD/MP2 left amplitudes will be solved using Davidson.
        Amplitudes will be solved using MOM  algorithm.
     Hard-coded thresholds: 
     LinDepThresh=1.00e-15  NormThresh=1.00e-06  ReorthogonThresh=1.00e-02

      Roots     MaxVec    MaxIter   Precond   Conv      Shift    
      5         120       60        1         1.00e-05  0.00e+00  
 ------------------------------------------------------------------------------
      Iter ConvRoots NVecs ResNorm^2 Current eigenvalues (eV)
 ------------------------------------------------------------------------------
      0    0      5     3.35e-03   7.8996   9.6374   10.5308   12.1903   13.4895   
      1    0      10    3.25e-04   7.8995   9.6373   10.5308   12.1901   13.4894   
      2    0      15    4.24e-05   7.8995   9.6373   10.5308   12.1901   13.4894   
      3    4      20    7.78e-06   7.8994*  9.6372*  10.5307*  12.1900*  13.4893   
      4    5      21    5.77e-06   7.8995*  9.6372*  10.5307*  12.1900*  13.4893*  

     Davidson procedure converged

 EOMSF-CCSD transition 1/B3g
S^2 calculation will be performed in  double precision
 EOMSF-CCSD transition 2/B3g
S^2 calculation will be performed in  double precision
 EOMSF-CCSD transition 3/B3g
S^2 calculation will be performed in  double precision
 EOMSF-CCSD transition 4/B3g
S^2 calculation will be performed in  double precision
 EOMSF-CCSD transition 5/B3g
S^2 calculation will be performed in  double precision
 Excited state properties for  EOMSF-CCSD transition 1/B3g
 Dipole moment (a.u.): 0.000000 (X 0.000000, Y 0.000000, Z 0.000000)
 R-squared (a.u.): 1304.354210 (XX 883.698170, YY 377.555123, ZZ 43.100917)
 Gauge origin (a.u.): (0.000000, 0.000000, 0.000000)
 Angular momentum (a.u.) against gauge origin: 
 (X 0.000000i, Y 0.000000i, Z 0.000000i)
 Traces of the OPDMs: Tr(AA) 33.000000, Tr(BB) 35.000000
 <S^2> = 2.000000

 Excited state properties for  EOMSF-CCSD transition 2/B3g
 Dipole moment (a.u.): 0.000000 (X 0.000000, Y 0.000000, Z 0.000000)
 R-squared (a.u.): 1306.472019 (XX 890.081120, YY 373.367897, ZZ 43.023002)
 Gauge origin (a.u.): (0.000000, 0.000000, 0.000000)
 Angular momentum (a.u.) against gauge origin: 
 (X 0.000000i, Y 0.000000i, Z 0.000000i)
 Traces of the OPDMs: Tr(AA) 33.000000, Tr(BB) 35.000000
 <S^2> = 2.000000

 Excited state properties for  EOMSF-CCSD transition 3/B3g
 Dipole moment (a.u.): 0.000000 (X 0.000000, Y 0.000000, Z 0.000000)
 R-squared (a.u.): 1305.862008 (XX 889.130062, YY 373.703484, ZZ 43.028461)
 Gauge origin (a.u.): (0.000000, 0.000000, 0.000000)
 Angular momentum (a.u.) against gauge origin: 
 (X 0.000000i, Y 0.000000i, Z 0.000000i)
 Traces of the OPDMs: Tr(AA) 33.000000, Tr(BB) 35.000000
 <S^2> = 2.000000

 Excited state properties for  EOMSF-CCSD transition 4/B3g
 Dipole moment (a.u.): 0.000000 (X 0.000000, Y 0.000000, Z 0.000000)
 R-squared (a.u.): 1305.184846 (XX 886.234329, YY 375.975287, ZZ 42.975231)
 Gauge origin (a.u.): (0.000000, 0.000000, 0.000000)
 Angular momentum (a.u.) against gauge origin: 
 (X 0.000000i, Y 0.000000i, Z 0.000000i)
 Traces of the OPDMs: Tr(AA) 33.000000, Tr(BB) 35.000000
 <S^2> = 2.000000

 Excited state properties for  EOMSF-CCSD transition 5/B3g
 Dipole moment (a.u.): 0.000000 (X 0.000000, Y 0.000000, Z 0.000000)
 R-squared (a.u.): 1303.140691 (XX 883.173414, YY 377.438635, ZZ 42.528643)
 Gauge origin (a.u.): (0.000000, 0.000000, 0.000000)
 Angular momentum (a.u.) against gauge origin: 
 (X 0.000000i, Y 0.000000i, Z 0.000000i)
 Traces of the OPDMs: Tr(AA) 33.000000, Tr(BB) 35.000000
 <S^2> = 2.000000

        Solving for EOMSF-CCSD Au transitions.

Running a double precision version
       EOMSF-CCSD/MP2 right amplitudes will be solved using Davidson.
        Amplitudes will be solved using standard  algorithm.
     Hard-coded thresholds: 
     LinDepThresh=1.00e-15  NormThresh=1.00e-06  ReorthogonThresh=1.00e-02

      Roots     MaxVec    MaxIter   Precond   Conv      Shift    
      5         120       60        1         1.00e-05  0.00e+00  
 ------------------------------------------------------------------------------
      Iter ConvRoots NVecs ResNorm^2 Current eigenvalues (eV)
 ------------------------------------------------------------------------------
      0    0      10    1.37e-01   12.9729   14.0393   15.1998   16.0631   17.1686   
      1    0      15    1.48e-02   10.2285   11.5435   11.9386   12.7071   13.1971   
Found complex roots...
      2    0      20    3.08e-03   9.7544   11.0565   11.3223   12.1131   12.5415   
      3    0      25    7.42e-04   9.7048   10.9894   11.2194   12.0124   12.4228   
      4    0      30    2.20e-04   9.6981   10.9768   11.1934   11.9851   12.3932   
      5    1      35    6.91e-05   9.6956*  10.9726   11.1816   11.9702   12.3771   
      6    2      39    1.89e-05   9.6954*  10.9723*  11.1799   11.9666   12.3740   
      7    5      42    6.25e-06   9.6954*  10.9723*  11.1798*  11.9663*  12.3732*  

     Davidson procedure converged

 EOMSF transition 1/Au
 Total energy = -378.89386368 a.u.  Excitation energy = 9.6954 eV.
 R1^2 = 0.9205  R2^2 = 0.0795  Res^2 = 7.48e-06
 Conv-d = yes

 Amplitude    Transitions between orbitals
  0.7737       7 (B2u) A                 ->    2 (B2g) B                  
  0.5073       6 (B1g) A                 ->    3 (B1u) B                  
  0.1111       7 (Ag) A                  ->    2 (Au) B                   
 -0.1107       5 (B2u) A                 ->    2 (B2g) B                  

              Summary of significant orbitals:

               Number  Type             Irrep      Energy
               21      Occ  Alpha       7 (Ag)     -0.6167
               30      Occ  Alpha       6 (B1g)     -0.4120
               17      Occ  Alpha       5 (B2u)     -0.7645
               26      Occ  Alpha       7 (B2u)     -0.4907
               35      Vir  Beta        2 (B2g)      0.1743
               38      Vir  Beta        2 (Au)      0.4079
               37      Vir  Beta        3 (B1u)      0.3236


 EOMSF transition 2/Au
 Total energy = -378.84694061 a.u.  Excitation energy = 10.9723 eV.
 R1^2 = 0.9109  R2^2 = 0.0891  Res^2 = 4.77e-06
 Conv-d = yes

 Amplitude    Transitions between orbitals
 -0.6761       7 (B3u) A                 ->    2 (B3g) B                  
  0.3464       9 (Ag) A                  ->    2 (Au) B                   
 -0.3432       6 (B1g) A                 ->    3 (B1u) B                  
 -0.2930       6 (B2u) A                 ->    2 (B2g) B                  
  0.1893       5 (B1g) A                 ->    3 (B1u) B                  
  0.1589       8 (Ag) A                  ->    2 (Au) B                   
 -0.1571       6 (B3u) A                 ->    2 (B3g) B                  
  0.1031       7 (B2u) A                 ->    2 (B2g) B                  

              Summary of significant orbitals:

               Number  Type             Irrep      Energy
               23      Occ  Alpha       8 (Ag)     -0.5527
               29      Occ  Alpha       9 (Ag)     -0.4147
               24      Occ  Alpha       5 (B1g)     -0.5198
               30      Occ  Alpha       6 (B1g)     -0.4120
               22      Occ  Alpha       6 (B2u)     -0.5713
               26      Occ  Alpha       7 (B2u)     -0.4907
               25      Occ  Alpha       6 (B3u)     -0.5164
               28      Occ  Alpha       7 (B3u)     -0.4761
               35      Vir  Beta        2 (B2g)      0.1743
               36      Vir  Beta        2 (B3g)      0.2583
               38      Vir  Beta        2 (Au)      0.4079
               37      Vir  Beta        3 (B1u)      0.3236


 EOMSF transition 3/Au
 Total energy = -378.83931359 a.u.  Excitation energy = 11.1798 eV.
 R1^2 = 0.8883  R2^2 = 0.1117  Res^2 = 3.44e-06
 Conv-d = yes

 Amplitude    Transitions between orbitals
  0.5118       6 (B1g) A                 ->    3 (B1u) B                  
 -0.4933       7 (B3u) A                 ->    2 (B3g) B                  
 -0.3387       7 (B2u) A                 ->    2 (B2g) B                  
  0.2875       6 (B2u) A                 ->    2 (B2g) B                  
 -0.2765       5 (B1g) A                 ->    3 (B1u) B                  
  0.1905       6 (B3u) A                 ->    2 (B3g) B                  
  0.1488       8 (Ag) A                  ->    2 (Au) B                   
  0.1008       4 (B1g) A                 ->    3 (B1u) B                  

              Summary of significant orbitals:

               Number  Type             Irrep      Energy
               23      Occ  Alpha       8 (Ag)     -0.5527
               19      Occ  Alpha       4 (B1g)     -0.6533
               24      Occ  Alpha       5 (B1g)     -0.5198
               30      Occ  Alpha       6 (B1g)     -0.4120
               22      Occ  Alpha       6 (B2u)     -0.5713
               26      Occ  Alpha       7 (B2u)     -0.4907
               25      Occ  Alpha       6 (B3u)     -0.5164
               28      Occ  Alpha       7 (B3u)     -0.4761
               35      Vir  Beta        2 (B2g)      0.1743
               36      Vir  Beta        2 (B3g)      0.2583
               38      Vir  Beta        2 (Au)      0.4079
               37      Vir  Beta        3 (B1u)      0.3236


 EOMSF transition 4/Au
 Total energy = -378.81040863 a.u.  Excitation energy = 11.9663 eV.
 R1^2 = 0.8654  R2^2 = 0.1346  Res^2 = 8.84e-06
 Conv-d = yes

 Amplitude    Transitions between orbitals
  0.7076       6 (B3u) A                 ->    2 (B3g) B                  
 -0.5091       6 (B2u) A                 ->    2 (B2g) B                  
  0.1573       9 (Ag) A                  ->    2 (Au) B                   
  0.1314       5 (B1g) A                 ->    3 (B1u) B                  
  0.1256       6 (B1g) A                 ->    3 (B1u) B                  
 -0.1116       7 (Ag) A                  ->    2 (Au) B                   

              Summary of significant orbitals:

               Number  Type             Irrep      Energy
               21      Occ  Alpha       7 (Ag)     -0.6167
               29      Occ  Alpha       9 (Ag)     -0.4147
               24      Occ  Alpha       5 (B1g)     -0.5198
               30      Occ  Alpha       6 (B1g)     -0.4120
               22      Occ  Alpha       6 (B2u)     -0.5713
               25      Occ  Alpha       6 (B3u)     -0.5164
               35      Vir  Beta        2 (B2g)      0.1743
               36      Vir  Beta        2 (B3g)      0.2583
               38      Vir  Beta        2 (Au)      0.4079
               37      Vir  Beta        3 (B1u)      0.3236


 EOMSF transition 5/Au
 Total energy = -378.79545632 a.u.  Excitation energy = 12.3732 eV.
 R1^2 = 0.8498  R2^2 = 0.1502  Res^2 = 6.74e-06
 Conv-d = yes

 Amplitude    Transitions between orbitals
  0.5292       6 (B3u) A                 ->    2 (B3g) B                  
  0.4724       6 (B2u) A                 ->    2 (B2g) B                  
 -0.3981       6 (B1g) A                 ->    3 (B1u) B                  
  0.3318       7 (B2u) A                 ->    2 (B2g) B                  
 -0.1302       7 (B3u) A                 ->    2 (B3g) B                  
 -0.1296       5 (B1g) A                 ->    3 (B1u) B                  
 -0.1087       4 (B1g) A                 ->    3 (B1u) B                  

              Summary of significant orbitals:

               Number  Type             Irrep      Energy
               19      Occ  Alpha       4 (B1g)     -0.6533
               24      Occ  Alpha       5 (B1g)     -0.5198
               30      Occ  Alpha       6 (B1g)     -0.4120
               22      Occ  Alpha       6 (B2u)     -0.5713
               26      Occ  Alpha       7 (B2u)     -0.4907
               25      Occ  Alpha       6 (B3u)     -0.5164
               28      Occ  Alpha       7 (B3u)     -0.4761
               35      Vir  Beta        2 (B2g)      0.1743
               36      Vir  Beta        2 (B3g)      0.2583
               37      Vir  Beta        3 (B1u)      0.3236


Running a double precision version
      EOM-CCSD/MP2 left amplitudes will be solved using Davidson.
        Amplitudes will be solved using MOM  algorithm.
     Hard-coded thresholds: 
     LinDepThresh=1.00e-15  NormThresh=1.00e-06  ReorthogonThresh=1.00e-02

      Roots     MaxVec    MaxIter   Precond   Conv      Shift    
      5         120       60        1         1.00e-05  0.00e+00  
 ------------------------------------------------------------------------------
      Iter ConvRoots NVecs ResNorm^2 Current eigenvalues (eV)
 ------------------------------------------------------------------------------
      0    0      5     3.61e-03   9.6954   10.9723   11.1798   11.9663   12.3732   
      1    0      10    3.70e-04   9.6954   10.9722   11.1796   11.9661   12.3730   
      2    0      15    5.54e-05   9.6954   10.9722   11.1796   11.9661   12.3729   
      3    3      20    1.11e-05   9.6953*  10.9722*  11.1796*  11.9661   12.3729   
      4    5      22    5.74e-06   9.6953*  10.9722*  11.1796*  11.9661*  12.3728*  

     Davidson procedure converged

 EOMSF-CCSD transition 1/Au
S^2 calculation will be performed in  double precision
 EOMSF-CCSD transition 2/Au
S^2 calculation will be performed in  double precision
 EOMSF-CCSD transition 3/Au
S^2 calculation will be performed in  double precision
 EOMSF-CCSD transition 4/Au
S^2 calculation will be performed in  double precision
 EOMSF-CCSD transition 5/Au
S^2 calculation will be performed in  double precision
 Excited state properties for  EOMSF-CCSD transition 1/Au
 Dipole moment (a.u.): 0.000000 (X 0.000000, Y 0.000000, Z 0.000000)
 R-squared (a.u.): 1301.492831 (XX 880.967780, YY 377.502635, ZZ 43.022416)
 Gauge origin (a.u.): (0.000000, 0.000000, 0.000000)
 Angular momentum (a.u.) against gauge origin: 
 (X 0.000000i, Y 0.000000i, Z 0.000000i)
 Traces of the OPDMs: Tr(AA) 33.000000, Tr(BB) 35.000000
 <S^2> = 2.000000

 Excited state properties for  EOMSF-CCSD transition 2/Au
 Dipole moment (a.u.): 0.000000 (X 0.000000, Y 0.000000, Z 0.000000)
 R-squared (a.u.): 1304.566306 (XX 887.003406, YY 374.562262, ZZ 43.000637)
 Gauge origin (a.u.): (0.000000, 0.000000, 0.000000)
 Angular momentum (a.u.) against gauge origin: 
 (X 0.000000i, Y 0.000000i, Z 0.000000i)
 Traces of the OPDMs: Tr(AA) 33.000000, Tr(BB) 35.000000
 <S^2> = 2.000000

 Excited state properties for  EOMSF-CCSD transition 3/Au
 Dipole moment (a.u.): 0.000000 (X 0.000000, Y 0.000000, Z 0.000000)
 R-squared (a.u.): 1303.900456 (XX 885.483615, YY 375.413541, ZZ 43.003299)
 Gauge origin (a.u.): (0.000000, 0.000000, 0.000000)
 Angular momentum (a.u.) against gauge origin: 
 (X 0.000000i, Y 0.000000i, Z 0.000000i)
 Traces of the OPDMs: Tr(AA) 33.000000, Tr(BB) 35.000000
 <S^2> = 2.000000

 Excited state properties for  EOMSF-CCSD transition 4/Au
 Dipole moment (a.u.): 0.000000 (X 0.000000, Y 0.000000, Z 0.000000)
 R-squared (a.u.): 1305.231820 (XX 887.495569, YY 374.766713, ZZ 42.969537)
 Gauge origin (a.u.): (0.000000, 0.000000, 0.000000)
 Angular momentum (a.u.) against gauge origin: 
 (X 0.000000i, Y 0.000000i, Z 0.000000i)
 Traces of the OPDMs: Tr(AA) 33.000000, Tr(BB) 35.000000
 <S^2> = 2.000000

 Excited state properties for  EOMSF-CCSD transition 5/Au
 Dipole moment (a.u.): 0.000000 (X 0.000000, Y 0.000000, Z 0.000000)
 R-squared (a.u.): 1302.613002 (XX 883.775309, YY 375.869233, ZZ 42.968460)
 Gauge origin (a.u.): (0.000000, 0.000000, 0.000000)
 Angular momentum (a.u.) against gauge origin: 
 (X 0.000000i, Y 0.000000i, Z 0.000000i)
 Traces of the OPDMs: Tr(AA) 33.000000, Tr(BB) 35.000000
 <S^2> = 2.000000

        Solving for EOMSF-CCSD B1u transitions.

Running a double precision version
       EOMSF-CCSD/MP2 right amplitudes will be solved using Davidson.
        Amplitudes will be solved using standard  algorithm.
     Hard-coded thresholds: 
     LinDepThresh=1.00e-15  NormThresh=1.00e-06  ReorthogonThresh=1.00e-02

      Roots     MaxVec    MaxIter   Precond   Conv      Shift    
      5         120       60        1         1.00e-05  0.00e+00  
 ------------------------------------------------------------------------------
      Iter ConvRoots NVecs ResNorm^2 Current eigenvalues (eV)
 ------------------------------------------------------------------------------
      0    0      10    1.26e-01   12.5323   13.2980   14.9055   15.7062   17.7106   
      1    0      15    1.38e-02   9.9407   10.7356   11.9473   12.3603   14.4676   
      2    0      20    2.69e-03   9.5110   10.2851   11.4160   11.8189   13.8342   
      3    0      25    7.49e-04   9.4639   10.2284   11.3243   11.7221   13.7099   
      4    0      30    3.01e-04   9.4552   10.2188   11.3015   11.6919   13.6603   
      5    0      35    1.54e-04   9.4522   10.2140   11.2925   11.6688   13.6221   
      6    2      40    8.87e-05   9.4517*  10.2127*  11.2915   11.6603   13.6007   
      7    3      43    8.08e-05   9.4517*  10.2126*  11.2914*  11.6588   13.5831   
      8    4      45    9.22e-05   9.4517*  10.2125*  11.2914*  11.6581*  13.5566   
      9    4      46    6.93e-05   9.4517*  10.2125*  11.2914*  11.6581*  13.5304   
      10   4      47    4.04e-05   9.4517*  10.2125*  11.2914*  11.6581*  13.5140   
      11   4      48    1.90e-05   9.4517*  10.2125*  11.2914*  11.6581*  13.5054   
      12   4      49    8.76e-06   9.4517*  10.2125*  11.2914*  11.6581*  13.5023   
      13   4      50    4.59e-06   9.4517*  10.2125*  11.2914*  11.6581*  13.5010   
      14   5      51    2.86e-06   9.4517*  10.2125*  11.2914*  11.6581*  13.5005*  

     Davidson procedure converged

 EOMSF transition 1/B1u
 Total energy = -378.90282092 a.u.  Excitation energy = 9.4517 eV.
 R1^2 = 0.9080  R2^2 = 0.0920  Res^2 = 1.20e-06
 Conv-d = yes

 Amplitude    Transitions between orbitals
  0.8306       7 (B3u) A                 ->    2 (B2g) B                  
 -0.3297       9 (Ag) A                  ->    3 (B1u) B                  
  0.2345       6 (B3u) A                 ->    2 (B2g) B                  
[...]
 <S|| Hso(L0) ||S'> = (0.000000,0.260502)
 <S|| Hso(L+) ||S'> = (-0.000000,-0.000000)
 SOCC = 0.260502
 Actual matrix elements:
       |Sz=-1.00>           |Sz=0.00>           |Sz=1.00>
 <Sz=-1.00|(0.000000,-0.184203)(-0.000000,-0.000000)(-0.000000,0.000000)
 <Sz=0.00|(0.000000,-0.000000)(0.000000,0.000000)(-0.000000,-0.000000)
 <Sz=1.00|(-0.000000,0.000000)(0.000000,-0.000000)(0.000000,0.184203)
 _________________________________________________
 Mean-field SO (cm-1)
 Reduced matrix elements:
 <S|| Hso(L-) ||S'> = (-0.000000,0.000000)
 <S|| Hso(L0) ||S'> = (0.000000,0.045053)
 <S|| Hso(L+) ||S'> = (-0.000000,-0.000000)
 SOCC = 0.045053
 Actual matrix elements:
       |Sz=-1.00>           |Sz=0.00>           |Sz=1.00>
 <Sz=-1.00|(0.000000,-0.031857)(-0.000000,-0.000000)(-0.000000,0.000000)
 <Sz=0.00|(0.000000,-0.000000)(0.000000,0.000000)(-0.000000,-0.000000)
 <Sz=1.00|(-0.000000,0.000000)(0.000000,-0.000000)(0.000000,0.031857)
 Singlet part of <S|| Hso(L0) ||S'> = (-0.000000,-0.000000) (excluded from all matrix elements)
 L-/L+ Averaged reduced matrix elements:
 <S|| Hso(L-) ||S'> = (-0.000000,0.000000)
 <S|| Hso(L+) ||S'> = (-0.000000,-0.000000)
 ______________________________________________________________
 B(Ket)->A(Bra) transition SO matrices
Full 2e SOC is not implemented withing libqints. 
I will do mean-field SOC with libqints, which is usually as good as full 2e SOC
 Analysing Sz ans S^2 of the pair of states...
 Ket state:  Computed S^2 = 2.000000 will be treated as 2.000000 Sz = -1.000000
 Bra state:  Computed S^2 = 2.000000 will be treated as 2.000000 Sz = -1.000000
 Clebsh-Gordan coefficient: <1.000,-1.000;1.000,0.000|1.000,-1.000> = -0.707
 _________________________________________________
 One-electron SO (cm-1)
 Reduced matrix elements:
 <S|| Hso(L-) ||S'> = (0.000000,-0.000000)
 <S|| Hso(L0) ||S'> = (0.000000,-0.198722)
 <S|| Hso(L+) ||S'> = (0.000000,0.000000)
 SOCC = 0.198722
 Actual matrix elements:
       |Sz=-1.00>           |Sz=0.00>           |Sz=1.00>
 <Sz=-1.00|(-0.000000,0.140517)(0.000000,0.000000)(0.000000,-0.000000)
 <Sz=0.00|(-0.000000,0.000000)(-0.000000,-0.000000)(0.000000,0.000000)
 <Sz=1.00|(0.000000,-0.000000)(-0.000000,0.000000)(-0.000000,-0.140517)
 _________________________________________________
 Mean-field SO (cm-1)
 Reduced matrix elements:
 <S|| Hso(L-) ||S'> = (0.000000,-0.000000)
 <S|| Hso(L0) ||S'> = (0.000000,-0.041636)
 <S|| Hso(L+) ||S'> = (0.000000,0.000000)
 SOCC = 0.041636
 Actual matrix elements:
       |Sz=-1.00>           |Sz=0.00>           |Sz=1.00>
 <Sz=-1.00|(-0.000000,0.029441)(0.000000,0.000000)(0.000000,-0.000000)
 <Sz=0.00|(-0.000000,0.000000)(-0.000000,-0.000000)(0.000000,0.000000)
 <Sz=1.00|(0.000000,-0.000000)(-0.000000,0.000000)(-0.000000,-0.029441)
 Singlet part of <S|| Hso(L0) ||S'> = (-0.000000,-0.000000) (excluded from all matrix elements)
 L-/L+ Averaged reduced matrix elements:
 <S|| Hso(L-) ||S'> = (0.000000,-0.000000)
 <S|| Hso(L+) ||S'> = (0.000000,0.000000)
 ______________________________________________________________
   Arithmetically averaged transition SO matrices
   (The phases shown, Ket and Bra assingment are from A(Ket)->B(Bra))
 _________________________________________________
 One-electron SO (cm-1)
 SOCC = 0.229612
 Actual matrix elements:
       |Sz=-1.00>           |Sz=0.00>           |Sz=1.00>
 <Sz=-1.00|(0.000000,-0.162360)(-0.000000,-0.000000)(-0.000000,0.000000)
 <Sz=0.00|(0.000000,-0.000000)(0.000000,0.000000)(-0.000000,-0.000000)
 <Sz=1.00|(0.000000,0.000000)(0.000000,-0.000000)(0.000000,0.162360)
 _________________________________________________
 Mean-field SO (cm-1)
 SOCC = 0.043344
 Actual matrix elements:
       |Sz=-1.00>           |Sz=0.00>           |Sz=1.00>
 <Sz=-1.00|(0.000000,-0.030649)(-0.000000,-0.000000)(-0.000000,0.000000)
 <Sz=0.00|(0.000000,-0.000000)(0.000000,0.000000)(-0.000000,-0.000000)
 <Sz=1.00|(0.000000,0.000000)(0.000000,-0.000000)(0.000000,0.030649)
 ______________________________________________________________

 ------------------------------------------------------------------------------
 State A: eomsf_mp2: 1/B2u
 State B: eomsf_mp2: 4/B3u
 Energy GAP = 0.298711 a.u. = 8.128338 eV
 Transition dipole moment (a.u.):
   A->B: 0.000000 (X 0.000000, Y 0.000000, Z 0.000000)
   B->A: 0.000000 (X 0.000000, Y 0.000000, Z 0.000000)
 Oscillator strength (a.u.): 0.000000
 Transition angular momentum against gauge origin (a.u.):
   A->B:  (X 0.000000i, Y 0.000000i, Z 0.139865i)
   B->A:  (X 0.000000i, Y 0.000000i, Z -0.133590i)
 Norm of one-particle transition density matrix:
   A->B: 0.771260;   B->A: 0.787750
   ||gamma^AB||*||gamma^BA||: 0.607560

 ______________________________________________________________
 A(Ket)->B(Bra) transition SO matrices
Full 2e SOC is not implemented withing libqints. 
I will do mean-field SOC with libqints, which is usually as good as full 2e SOC
 Analysing Sz ans S^2 of the pair of states...
 Ket state:  Computed S^2 = 2.000000 will be treated as 2.000000 Sz = -1.000000
 Bra state:  Computed S^2 = 2.000001 will be treated as 2.000000 Sz = -1.000000
 Clebsh-Gordan coefficient: <1.000,-1.000;1.000,0.000|1.000,-1.000> = -0.707
 _________________________________________________
 One-electron SO (cm-1)
 Reduced matrix elements:
 <S|| Hso(L-) ||S'> = (-0.000000,-0.000000)
 <S|| Hso(L0) ||S'> = (0.000000,0.954315)
 <S|| Hso(L+) ||S'> = (-0.000000,0.000000)
 SOCC = 0.954315
 Actual matrix elements:
       |Sz=-1.00>           |Sz=0.00>           |Sz=1.00>
 <Sz=-1.00|(0.000000,-0.674803)(-0.000000,0.000000)(-0.000000,0.000000)
 <Sz=0.00|(0.000000,0.000000)(0.000000,0.000000)(-0.000000,0.000000)
 <Sz=1.00|(-0.000000,0.000000)(0.000000,0.000000)(0.000000,0.674803)
 _________________________________________________
 Mean-field SO (cm-1)
 Reduced matrix elements:
 <S|| Hso(L-) ||S'> = (-0.000000,-0.000000)
 <S|| Hso(L0) ||S'> = (0.000000,0.018491)
 <S|| Hso(L+) ||S'> = (-0.000000,0.000000)
 SOCC = 0.018491
 Actual matrix elements:
       |Sz=-1.00>           |Sz=0.00>           |Sz=1.00>
 <Sz=-1.00|(0.000000,-0.013075)(-0.000000,0.000000)(-0.000000,0.000000)
 <Sz=0.00|(0.000000,0.000000)(0.000000,0.000000)(-0.000000,0.000000)
 <Sz=1.00|(-0.000000,0.000000)(0.000000,0.000000)(0.000000,0.013075)
 Singlet part of <S|| Hso(L0) ||S'> = (-0.000000,-0.000000) (excluded from all matrix elements)
 L-/L+ Averaged reduced matrix elements:
 <S|| Hso(L-) ||S'> = (-0.000000,-0.000000)
 <S|| Hso(L+) ||S'> = (-0.000000,0.000000)
 ______________________________________________________________
 B(Ket)->A(Bra) transition SO matrices
Full 2e SOC is not implemented withing libqints. 
I will do mean-field SOC with libqints, which is usually as good as full 2e SOC
 Analysing Sz ans S^2 of the pair of states...
 Ket state:  Computed S^2 = 2.000001 will be treated as 2.000000 Sz = -1.000000
 Bra state:  Computed S^2 = 2.000000 will be treated as 2.000000 Sz = -1.000000
 Clebsh-Gordan coefficient: <1.000,-1.000;1.000,0.000|1.000,-1.000> = -0.707
 _________________________________________________
 One-electron SO (cm-1)
 Reduced matrix elements:
 <S|| Hso(L-) ||S'> = (0.000000,0.000000)
 <S|| Hso(L0) ||S'> = (0.000000,-0.917408)
 <S|| Hso(L+) ||S'> = (0.000000,-0.000000)
 SOCC = 0.917408
 Actual matrix elements:
       |Sz=-1.00>           |Sz=0.00>           |Sz=1.00>
 <Sz=-1.00|(-0.000000,0.648706)(0.000000,-0.000000)(0.000000,-0.000000)
 <Sz=0.00|(-0.000000,-0.000000)(-0.000000,-0.000000)(0.000000,-0.000000)
 <Sz=1.00|(0.000000,-0.000000)(-0.000000,-0.000000)(-0.000000,-0.648706)
 _________________________________________________
 Mean-field SO (cm-1)
 Reduced matrix elements:
 <S|| Hso(L-) ||S'> = (0.000000,0.000000)
 <S|| Hso(L0) ||S'> = (0.000000,-0.014938)
 <S|| Hso(L+) ||S'> = (0.000000,-0.000000)
 SOCC = 0.014938
 Actual matrix elements:
       |Sz=-1.00>           |Sz=0.00>           |Sz=1.00>
 <Sz=-1.00|(-0.000000,0.010563)(0.000000,-0.000000)(0.000000,-0.000000)
 <Sz=0.00|(-0.000000,-0.000000)(-0.000000,-0.000000)(0.000000,-0.000000)
 <Sz=1.00|(0.000000,-0.000000)(-0.000000,-0.000000)(-0.000000,-0.010563)
 Singlet part of <S|| Hso(L0) ||S'> = (-0.000000,-0.000000) (excluded from all matrix elements)
 L-/L+ Averaged reduced matrix elements:
 <S|| Hso(L-) ||S'> = (0.000000,0.000000)
 <S|| Hso(L+) ||S'> = (0.000000,-0.000000)
 ______________________________________________________________
   Arithmetically averaged transition SO matrices
   (The phases shown, Ket and Bra assingment are from A(Ket)->B(Bra))
 _________________________________________________
 One-electron SO (cm-1)
 SOCC = 0.935862
 Actual matrix elements:
       |Sz=-1.00>           |Sz=0.00>           |Sz=1.00>
 <Sz=-1.00|(0.000000,-0.661754)(-0.000000,0.000000)(-0.000000,0.000000)
 <Sz=0.00|(0.000000,0.000000)(0.000000,0.000000)(-0.000000,0.000000)
 <Sz=1.00|(0.000000,0.000000)(0.000000,0.000000)(0.000000,0.661754)
 _________________________________________________
 Mean-field SO (cm-1)
 SOCC = 0.016714
 Actual matrix elements:
       |Sz=-1.00>           |Sz=0.00>           |Sz=1.00>
 <Sz=-1.00|(0.000000,-0.011819)(-0.000000,0.000000)(-0.000000,0.000000)
 <Sz=0.00|(0.000000,0.000000)(0.000000,0.000000)(-0.000000,0.000000)
 <Sz=1.00|(0.000000,0.000000)(0.000000,0.000000)(0.000000,0.011819)
 ______________________________________________________________

 ------------------------------------------------------------------------------
 State A: eomsf_mp2: 1/B2u
 State B: eomsf_mp2: 5/B3u
 Energy GAP = 0.333141 a.u. = 9.065245 eV
 Transition dipole moment (a.u.):
   A->B: 0.000000 (X 0.000000, Y 0.000000, Z 0.000000)
   B->A: 0.000000 (X 0.000000, Y 0.000000, Z 0.000000)
 Oscillator strength (a.u.): 0.000000
 Transition angular momentum against gauge origin (a.u.):
   A->B:  (X 0.000000i, Y 0.000000i, Z 0.179229i)
   B->A:  (X 0.000000i, Y 0.000000i, Z -0.124652i)
 Norm of one-particle transition density matrix:
   A->B: 0.643769;   B->A: 0.636948
   ||gamma^AB||*||gamma^BA||: 0.410047

 ______________________________________________________________
 A(Ket)->B(Bra) transition SO matrices
Full 2e SOC is not implemented withing libqints. 
I will do mean-field SOC with libqints, which is usually as good as full 2e SOC
 Analysing Sz ans S^2 of the pair of states...
 Ket state:  Computed S^2 = 2.000000 will be treated as 2.000000 Sz = -1.000000
 Bra state:  Computed S^2 = 2.000000 will be treated as 2.000000 Sz = -1.000000
 Clebsh-Gordan coefficient: <1.000,-1.000;1.000,0.000|1.000,-1.000> = -0.707
 _________________________________________________
 One-electron SO (cm-1)
 Reduced matrix elements:
 <S|| Hso(L-) ||S'> = (-0.000000,-0.000000)
 <S|| Hso(L0) ||S'> = (0.000000,-0.086780)
 <S|| Hso(L+) ||S'> = (-0.000000,0.000000)
 SOCC = 0.086780
 Actual matrix elements:
       |Sz=-1.00>           |Sz=0.00>           |Sz=1.00>
 <Sz=-1.00|(0.000000,0.061363)(-0.000000,0.000000)(-0.000000,-0.000000)
 <Sz=0.00|(0.000000,0.000000)(0.000000,-0.000000)(-0.000000,0.000000)
 <Sz=1.00|(-0.000000,-0.000000)(0.000000,0.000000)(0.000000,-0.061363)
 _________________________________________________
 Mean-field SO (cm-1)
 Reduced matrix elements:
 <S|| Hso(L-) ||S'> = (-0.000000,-0.000000)
 <S|| Hso(L0) ||S'> = (0.000000,-0.008554)
 <S|| Hso(L+) ||S'> = (-0.000000,0.000000)
 SOCC = 0.008554
 Actual matrix elements:
       |Sz=-1.00>           |Sz=0.00>           |Sz=1.00>
 <Sz=-1.00|(0.000000,0.006049)(-0.000000,0.000000)(-0.000000,-0.000000)
 <Sz=0.00|(0.000000,0.000000)(0.000000,-0.000000)(-0.000000,0.000000)
 <Sz=1.00|(-0.000000,-0.000000)(0.000000,0.000000)(0.000000,-0.006049)
 Singlet part of <S|| Hso(L0) ||S'> = (-0.000000,-0.000000) (excluded from all matrix elements)
 L-/L+ Averaged reduced matrix elements:
 <S|| Hso(L-) ||S'> = (-0.000000,-0.000000)
 <S|| Hso(L+) ||S'> = (-0.000000,0.000000)
 ______________________________________________________________
 B(Ket)->A(Bra) transition SO matrices
Full 2e SOC is not implemented withing libqints. 
I will do mean-field SOC with libqints, which is usually as good as full 2e SOC
 Analysing Sz ans S^2 of the pair of states...
 Ket state:  Computed S^2 = 2.000000 will be treated as 2.000000 Sz = -1.000000
 Bra state:  Computed S^2 = 2.000000 will be treated as 2.000000 Sz = -1.000000
 Clebsh-Gordan coefficient: <1.000,-1.000;1.000,0.000|1.000,-1.000> = -0.707
 _________________________________________________
 One-electron SO (cm-1)
 Reduced matrix elements:
 <S|| Hso(L-) ||S'> = (0.000000,0.000000)
 <S|| Hso(L0) ||S'> = (0.000000,0.044096)
 <S|| Hso(L+) ||S'> = (0.000000,-0.000000)
 SOCC = 0.044096
 Actual matrix elements:
       |Sz=-1.00>           |Sz=0.00>           |Sz=1.00>
 <Sz=-1.00|(-0.000000,-0.031180)(0.000000,-0.000000)(0.000000,0.000000)
 <Sz=0.00|(-0.000000,-0.000000)(-0.000000,0.000000)(0.000000,-0.000000)
 <Sz=1.00|(0.000000,0.000000)(-0.000000,-0.000000)(-0.000000,0.031180)
 _________________________________________________
 Mean-field SO (cm-1)
 Reduced matrix elements:
 <S|| Hso(L-) ||S'> = (0.000000,0.000000)
 <S|| Hso(L0) ||S'> = (0.000000,0.006688)
 <S|| Hso(L+) ||S'> = (0.000000,-0.000000)
 SOCC = 0.006688
 Actual matrix elements:
       |Sz=-1.00>           |Sz=0.00>           |Sz=1.00>
 <Sz=-1.00|(-0.000000,-0.004729)(0.000000,-0.000000)(0.000000,0.000000)
 <Sz=0.00|(-0.000000,-0.000000)(-0.000000,0.000000)(0.000000,-0.000000)
 <Sz=1.00|(0.000000,0.000000)(-0.000000,-0.000000)(-0.000000,0.004729)
 Singlet part of <S|| Hso(L0) ||S'> = (-0.000000,-0.000000) (excluded from all matrix elements)
 L-/L+ Averaged reduced matrix elements:
 <S|| Hso(L-) ||S'> = (0.000000,0.000000)
 <S|| Hso(L+) ||S'> = (0.000000,-0.000000)
 ______________________________________________________________
   Arithmetically averaged transition SO matrices
   (The phases shown, Ket and Bra assingment are from A(Ket)->B(Bra))
 _________________________________________________
 One-electron SO (cm-1)
 SOCC = 0.065438
 Actual matrix elements:
       |Sz=-1.00>           |Sz=0.00>           |Sz=1.00>
 <Sz=-1.00|(-0.000000,0.046272)(-0.000000,0.000000)(-0.000000,-0.000000)
 <Sz=0.00|(0.000000,0.000000)(-0.000000,-0.000000)(-0.000000,0.000000)
 <Sz=1.00|(0.000000,-0.000000)(0.000000,0.000000)(-0.000000,-0.046272)
 _________________________________________________
 Mean-field SO (cm-1)
 SOCC = 0.007621
 Actual matrix elements:
       |Sz=-1.00>           |Sz=0.00>           |Sz=1.00>
 <Sz=-1.00|(-0.000000,0.005389)(-0.000000,0.000000)(-0.000000,-0.000000)
 <Sz=0.00|(0.000000,0.000000)(-0.000000,-0.000000)(-0.000000,0.000000)
 <Sz=1.00|(0.000000,-0.000000)(0.000000,0.000000)(-0.000000,-0.005389)
 ______________________________________________________________


 All requested transition properties have been computed

 Transition Properties:   CPU 743.64 s  wall 757.97 s

 Total ccman2 time:   CPU 3463.61 s  wall 3483.14 s

 
 --------------------------------------------------------------
             Orbital Energies (a.u.) and Symmetries
 --------------------------------------------------------------
 
 Alpha MOs, Restricted
 -- Occupied --                  
-11.040 -11.040 -11.030 -11.030 -11.030 -11.030 -11.028 -11.028
  1 Ag    1 B2u   2 Ag    1 B3u   1 B1g   2 B2u   2 B1g   3 B2u                
-11.028 -11.027  -1.107  -1.041  -0.980  -0.956  -0.898  -0.806
  2 B3u   3 Ag    4 Ag    3 B3u   4 B2u   5 Ag    3 B1g   4 B3u                
 -0.764  -0.753  -0.653  -0.644  -0.617  -0.571  -0.553  -0.520
  5 B2u   6 Ag    4 B1g   5 B3u   7 Ag    6 B2u   8 Ag    5 B1g                
 -0.516  -0.491  -0.481  -0.476  -0.415  -0.412  -0.391  -0.323
  6 B3u   7 B2u   1 B1u   7 B3u   9 Ag    6 B1g   1 B2g   1 B3g                
 -0.272  -0.196
  2 B1u   1 Au                                                                 
 -- Virtual --                   
  0.174   0.258   0.324   0.408   0.546   0.587   0.606   0.611
  2 B2g   2 B3g   3 B1u   2 Au    3 B3g  10 Ag    8 B2u   8 B3u                
  0.668   0.672   0.699   0.718   0.735   0.745   0.781   0.791
 11 Ag    9 B3u   9 B2u   7 B1g   8 B1g  10 B2u  10 B3u  12 Ag                 
  0.868   0.893   0.936   0.938   0.983   1.053   1.110   1.172
 11 B2u   9 B1g  13 Ag   11 B3u  10 B1g  12 B2u  13 B2u  11 B1g                
 
 Beta MOs, Restricted
 -- Occupied --                  
-11.040 -11.040 -11.030 -11.030 -11.030 -11.030 -11.028 -11.028
  1 Ag    1 B2u   2 Ag    1 B3u   1 B1g   2 B2u   2 B1g   3 B2u                
-11.028 -11.027  -1.107  -1.041  -0.980  -0.956  -0.898  -0.806
  2 B3u   3 Ag    4 Ag    3 B3u   4 B2u   5 Ag    3 B1g   4 B3u                
 -0.764  -0.753  -0.653  -0.644  -0.617  -0.571  -0.553  -0.520
  5 B2u   6 Ag    4 B1g   5 B3u   7 Ag    6 B2u   8 Ag    5 B1g                
 -0.516  -0.491  -0.481  -0.476  -0.415  -0.412  -0.391  -0.323
  6 B3u   7 B2u   1 B1u   7 B3u   9 Ag    6 B1g   1 B2g   1 B3g                
 -0.272  -0.196
  2 B1u   1 Au                                                                 
 -- Virtual --                   
  0.174   0.258   0.324   0.408   0.546   0.587   0.606   0.611
  2 B2g   2 B3g   3 B1u   2 Au    3 B3g  10 Ag    8 B2u   8 B3u                
  0.668   0.672   0.699   0.718   0.735   0.745   0.781   0.791
 11 Ag    9 B3u   9 B2u   7 B1g   8 B1g  10 B2u  10 B3u  12 Ag                 
  0.868   0.893   0.936   0.938   0.983   1.053   1.110   1.172
 11 B2u   9 B1g  13 Ag   11 B3u  10 B1g  12 B2u  13 B2u  11 B1g                
 --------------------------------------------------------------
 
          Ground-State Mulliken Net Atomic Charges

     Atom                 Charge (a.u.)
  ----------------------------------------
      1 C                    -0.006075
      2 C                    -0.006075
      3 C                    -0.053470
      4 C                    -0.064614
      5 C                    -0.064614
      6 C                    -0.053470
      7 C                    -0.053470
      8 C                    -0.053470
      9 C                    -0.064614
     10 C                    -0.064614
     11 H                     0.058193
     12 H                     0.062928
     13 H                     0.062928
     14 H                     0.058193
     15 H                     0.058193
     16 H                     0.062928
     17 H                     0.062928
     18 H                     0.058193
  ----------------------------------------
  Sum of atomic charges =     0.000000

 -----------------------------------------------------------------
                    Cartesian Multipole Moments
 -----------------------------------------------------------------
    Charge (ESU x 10^10)
                 0.0000
    Dipole Moment (Debye)
         X       0.0000      Y      -0.0000      Z      -0.0000
       Tot       0.0000
    Quadrupole Moments (Debye-Ang)
        XX     -50.8327     XY      -0.0000     YY     -50.5965
        XZ      -0.0000     YZ      -0.0000     ZZ     -56.5153
    Octopole Moments (Debye-Ang^2)
       XXX      -0.0000    XXY      -0.0000    XYY      -0.0000
       YYY      -0.0000    XXZ      -0.0000    XYZ      -0.0000
       YYZ      -0.0000    XZZ       0.0000    YZZ      -0.0000
       ZZZ      -0.0000
    Hexadecapole Moments (Debye-Ang^3)
      XXXX   -1099.4607   XXXY      -0.0000   XXYY    -260.2115
      XYYY       0.0000   YYYY    -458.6145   XXXZ      -0.0000
      XXYZ      -0.0000   XYYZ      -0.0000   YYYZ      -0.0000
      XXZZ    -213.2953   XYZZ      -0.0000   YYZZ     -93.8251
      XZZZ       0.0000   YZZZ      -0.0000   ZZZZ     -45.7198
 -----------------------------------------------------------------
 Total job time:  3545.69s(wall), 3525.24s(cpu) 
 Fri Jan 26 14:27:30 2024

        *************************************************************
        *                                                           *
        *  Thank you very much for using Q-Chem.  Have a nice day.  *
        *                                                           *
        *************************************************************


