                  Welcome to Q-Chem
     A Quantum Leap Into The Future Of Chemistry


 Q-Chem 6.0 (devel), Q-Chem, Inc., Pleasanton, CA (2022)

 E. Epifanovsky,  A. T. B. Gilbert,  Xintian Feng,  Joonho Lee,  Yuezhi Mao,  
 N. Mardirossian,  P. Pokhilko,  A. White,  M. Wormit,  M. P. Coons,  
 A. L. Dempwolff,  Zhengting Gan,  D. Hait,  P. R. Horn,  L. D. Jacobson,  
 I. Kaliman,  J. Kussmann,  A. W. Lange,  Ka Un Lao,  D. S. Levine,  Jie Liu,  
 S. C. McKenzie,  A. F. Morrison,  K. Nanda,  F. Plasser,  D. R. Rehn,  
 M. L. Vidal,  Zhi-Qiang You,  Ying Zhu,  B. Alam,  B. Albrecht,  
 A. Aldossary,  E. Alguire,  J. H. Andersen,  V. Athavale,  D. Barton,  
 K. Begam,  A. Behn,  N. Bellonzi,  Y. A. Bernard,  E. J. Berquist,  
 H. Burton,  A. Carreras,  K. Carter-Fenk,  Romit Chakraborty,  
 Chandrima Chakravarty,  Junhan Chen,  A. D. Chien,  K. D. Closser,  
 V. Cofer-Shabica,  L. Cunha,  S. Dasgupta,  Jia Deng,  M. de Wergifosse,  
 M. Diedenhofen,  Hainam Do,  S. Ehlert,  Po-Tung Fang,  S. Fatehi,  
 Qingguo Feng,  T. Friedhoff,  B. Ganoe,  J. Gayvert,  Qinghui Ge,  
 G. Gidofalvi,  M. Goldey,  J. Gomes,  C. Gonzalez-Espinoza,  S. Gulania,  
 A. Gunina,  J. A. Gyamfi,  M. W. D. Hanson-Heine,  P. H. P. Harbach,  
 A. W. Hauser,  M. F. Herbst,  M. Hernandez Vera,  M. Hodecker,  
 Z. C. Holden,  S. Houck,  Xunkun Huang,  Kerwin Hui,  B. C. Huynh,  
 K. Ikeda,  M. Ivanov,  Hyunjun Ji,  Zuxin Jin,  Hanjie Jiang,  B. Kaduk,  
 S. Kaehler,  R. Kang,  K. Khistyaev,  Jaehoon Kim,  Yongbin Kim,  
 P. Klunzinger,  Z. Koczor-Benda,  Joong Hoon Koh,  D. Kosenkov,  
 Saikiran Kotaru,  L. Koulias,  T. Kowalczyk,  C. M. Krauter,  K. Kue,  
 A. Kunitsa,  T. Kus,  A. Landau,  K. V. Lawler,  D. Lefrancois,  S. Lehtola,  
 Rain Li,  Shaozhi Li,  Yi-Pei Li,  Jiashu Liang,  M. Liebenthal,  
 Hung-Hsuan Lin,  You-Sheng Lin,  Fenglai Liu,  Kuan-Yu Liu,  
 M. Loipersberger,  A. Luenser,  C. Malbon,  A. Manjanath,  P. Manohar,  
 E. Mansoor,  S. F. Manzer,  Shan-Ping Mao,  A. V. Marenich,  T. Markovich,  
 S. Mason,  F. Matz,  S. A. Maurer,  P. F. McLaughlin,  M. F. S. J. Menger,  
 J.-M. Mewes,  S. A. Mewes,  P. Morgante,  Mohammad Mostafanejad,  
 J. W. Mullinax,  K. J. Oosterbaan,  G. Paran,  V. Parravicini,  
 Alexander C. Paul,  Suranjan K. Paul,  F. Pavosevic,  Zheng Pei,  S. Prager,  
 E. I. Proynov,  E. Ramos,  B. Rana,  A. E. Rask,  A. Rettig,  R. M. Richard,  
 F. Rob,  E. Rossomme,  T. Scheele,  M. Scheurer,  M. Schneider,  
 P. E. Schneider,  N. Sergueev,  S. M. Sharada,  Hengyuan Shen,  
 W. Skomorowski,  D. W. Small,  C. J. Stein,  Yingli Su,  Yu-Chuan Su,  
 E. J. Sundstrom,  Zhen Tao,  J. Thirman,  Hung-Yi Tsai,  T. Tsuchimochi,  
 N. M. Tubman,  C. Utku,  S. P. Veccham,  O. Vydrov,  J. Wenzel,  
 Jonathan Wong,  J. Witte,  A. Yamada,  Chou-Hsun Yang,  Kun Yao,  
 S. Yeganeh,  S. R. Yost,  A. Zech,  F. Zeller,  Igor Ying Zhang,  
 Xing Zhang,  Yu Zhang,  D. Zuev,  A. Aspuru-Guzik,  A. T. Bell,  
 N. A. Besley,  K. B. Bravaya,  B. R. Brooks,  D. Casanova,  Jeng-Da Chai,  
 Hsing-Ta Chen,  S. Coriani,  C. J. Cramer,  A. E. DePrince, III,  
 R. A. DiStasio Jr.,  A. Dreuw,  B. D. Dunietz,  T. R. Furlani,  
 W. A. Goddard III,  S. Grimme,  S. Hammes-Schiffer,  T. Head-Gordon,  
 W. J. Hehre,  Chao-Ping Hsu,  T.-C. Jagau,  Yousung Jung,  A. Klamt,  
 Jing Kong,  D. S. Lambrecht,  Xiangyuan Li,  WanZhen Liang,  N. J. Mayhall,  
 C. W. McCurdy,  J. B. Neaton,  T. Neudecker,  C. Ochsenfeld,  
 J. A. Parkhill,  R. Peverati,  V. A. Rassolov,  Haisheng Ren,  Yihan Shao,  
 L. V. Slipchenko,  R. P. Steele,  J. E. Subotnik,  A. J. W. Thom,  
 A. Tkatchenko,  D. G. Truhlar,  T. Van Voorhis,  Fan Wang,  
 T. A. Wesolowski,  K. B. Whaley,  H. L. Woodcock III,  P. M. Zimmerman,  
 S. Faraji,  P. M. W. Gill,  M. Head-Gordon,  J. M. Herbert,  A. I. Krylov

 Contributors to earlier versions of Q-Chem not listed above: 
 R. D. Adamson,  B. Austin,  R. Baer,  J. Baker,  G. J. O. Beran,  
 K. Brandhorst,  S. T. Brown,  E. F. C. Byrd,  Arup K. Chakraborty,  
 G. K. L. Chan,  Chun-Min Chang,  Yunqing Chen,  C.-L. Cheng,  
 Siu Hung Chien,  D. M. Chipman,  D. L. Crittenden,  H. Dachsel,  
 R. J. Doerksen,  A. D. Dutoi,  R. G. Edgar,  J. Fosso-Tande,  
 L. Fusti-Molnar,  D. Ghosh,  A. Ghysels,  A. Golubeva-Zadorozhnaya,  
 J. Gonthier,  M. S. Gordon,  S. R. Gwaltney,  G. Hawkins,  J. E. Herr,  
 A. Heyden,  S. Hirata,  E. G. Hohenstein,  G. Kedziora,  F. J. Keil,  
 C. Kelley,  Jihan Kim,  R. A. King,  R. Z. Khaliullin,  P. P. Korambath,  
 W. Kurlancheek,  A. Laurent,  A. M. Lee,  M. S. Lee,  S. V. Levchenko,  
 Ching Yeh Lin,  D. Liotard,  E. Livshits,  R. C. Lochan,  I. Lotan,  
 L. A. Martinez-Martinez,  P. E. Maslen,  N. Nair,  D. P. O'Neill,  
 D. Neuhauser,  E. Neuscamman,  C. M. Oana,  R. Olivares-Amaya,  R. Olson,  
 T. M. Perrine,  B. Peters,  P. A. Pieniazek,  A. Prociuk,  Y. M. Rhee,  
 J. Ritchie,  M. A. Rohrdanz,  E. Rosta,  N. J. Russ,  H. F. Schaefer III,  
 M. W. Schmidt,  N. E. Schultz,  S. Sharma,  N. Shenvi,  C. D. Sherrill,  
 A. C. Simmonett,  A. Sodt,  T. Stein,  D. Stuck,  K. S. Thanthiriwatte,  
 V. Vanovschi,  L. Vogt,  Tao Wang,  A. Warshel,  M. A. Watson,  
 C. F. Williams,  Q. Wu,  X. Xu,  Jun Yang,  W. Zhang,  Yan Zhao

   Please cite Q-Chem as follows:
  "Software for the frontiers of quantum chemistry:
   An overview of developments in the Q-Chem 5 package"
   J. Chem. Phys. 155, 084801 (2021)
   https://doi.org/10.1063/5.0055522 (open access)

 Q-Chem 6.0.1 for Intel X86 EM64T Linux

 Parts of Q-Chem use Armadillo 9.900.5 (Nocturnal Misbehaviour).
 http://arma.sourceforge.net/

 Q-Chem begins on Fri Jan 26 18:06:34 2024  

 Host: atlas-288
0

     Scratch files written to ./qchem24826//
 Processing $rem in /scratch/abel/SOFTWARE/qchem/config/preferences:
 Processing $rem in /dipc/acebg/.qchemrc:
 Core orbitals will be frozen

 Checking the input file for inconsistencies... 	...done.

--------------------------------------------------------------
User input:
--------------------------------------------------------------
$comment
 RAS-SF CALCULATION
$end

$molecule
 READ pentacene_opt.molecule
$end

$rem
!**CALCULATION TYPE***     
JOBTYPE            sp    
!BASIS              def2-TZVP
BASIS             STO-3G

!***SCF REFERENCE***
!SKIP_SCFMAN        FALSE
UNRESTRICTED       FALSE
!SCF_GUESS          core
!SCF_GUESS_MIX      FALSE
!SCF_GUESS_ALWAYS   FALSE
MAX_SCF_CYCLES     500
!SCF_CONVERGENCE    10
SCF_ALGORITHM      DIIS_GDM !DIIS,DM,DIIS_DM,GDM,DIIS_GDM,GD

!SYMMETRY           TRUE   !use of symmetry for calculating integrals
!SYM_IGNORE         FALSE  !turn off using symmetry
!SYM_TOL            5      !tolerance for determining point group
!USE_ABELIAN_SUBGROUP      !define to use abelian group

!THRESH             14
!SCF_FINAL_PRINT     1 !0,1,2,3

!****CCSD****
CORRELATION        CCSD
!CC_CONVERGENCE     6
!CC_MAX_ITER        200
CC_PRINT	   2
!CHOLESKY_TOL       3 !Toler. decomposition 2e integrals
CC_REF_PROP  	   1 !one-particle CCSD properties calculation
!CC_REF_PROP_TE	   0 !two-particle CCSD properties calculation
!CC_FNO_THRESH
!CC_BACKEND	   XM !Used to specify the computational back-end of CCMAN2.

!****EOM****
METHOD             EOM-MP2
EE_STATES	   [20]
CC_STATE_TO_OPT    [1,1]
CC_EOM_PROP        1
CC_EOM_PROP_TE	   1
CC_TRANS_PROP      1
CALC_SOC           TRUE   !calculate SOC for EOM-CC, RAS-CI, ADC, TDDFT/TDA and TDDFT

!****MEMORY****
MEM_TOTAL          90000 !Default 2000 MB
MEM_STATIC         1000  !Default 64 MB
CC_MEMORY          72000

!**Molecular Properties and Analysis **                                                                                          
!POP_MULLIKEN       TRUE   !Run Mulliken population analysis
!LOWDIN_POPULATION  TRUE   !Run Löwdin population analysis
GUI                0       !Checkpoints generation
!STATE_ANALYSIS     TRUE

!**Wave function analysis**
!PLOTS = 0     ! Note: This can be omitted, default is 0
!NTO_PAIRS = 2 ! Note: This can be omitted, default is 2
!GUI 0
!MOLDEN_FORMAT      TRUE
!PRINT_ORBITALS     15
$end

!$plots
!   grid_points 100 100 100
!   grid_range  (-10,10) (-10,10) (-10,10)
!$end

--------------------------------------------------------------
 ----------------------------------------------------------------
             Standard Nuclear Orientation (Angstroms)
    I     Atom           X                Y                Z
 ----------------------------------------------------------------
    1      C       1.2404431984    -0.7258834336     0.0009487645
    2      C       2.4464997334    -1.3964196804     0.0041206951
    3      H       2.4509965526    -2.4813131438     0.0071456533
    4      C      -0.0000000326    -1.4039614389    -0.0004482783
    5      H      -0.0000000783    -2.4881524189    -0.0006565892
    6      C      -1.2404432451    -0.7258828123    -0.0015229894
    7      C      -2.4465004925    -1.3964186022    -0.0045155874
    8      H      -2.4509978138    -2.4813115815    -0.0077087329
    9      C      -3.6908788599    -0.7103292814    -0.0030013211
   10      C      -4.9207697665    -1.3925465516    -0.0066053624
   11      H      -4.9169556554    -2.4765073871    -0.0120060886
   12      C      -6.1104565518    -0.7012290871    -0.0033340367
   13      H      -7.0495760421    -1.2388396003    -0.0063148118
   14      C      -6.1104568412     0.7012259305     0.0039628327
   15      H      -7.0495761292     1.2388351970     0.0072194399
   16      C      -4.9207705054     1.3925456798     0.0068973661
   17      H      -4.9169554510     2.4765064994     0.0123006401
   18      C      -3.6908794786     0.7103304164     0.0029690542
   19      C       3.6908782055    -0.7103297619     0.0030197036
   20      C       4.9207682440    -1.3925456563     0.0071430117
   21      H       4.9169530876    -2.4765052443     0.0127878853
   22      C       6.1104556142    -0.7012280473     0.0041247895
   23      H       7.0495743724    -1.2388370099     0.0075783807
   24      C       6.1104574514     0.7012251524    -0.0035134854
   25      H       7.0495774727     1.2388335065    -0.0067086585
   26      C       4.9207717230     1.3925441243    -0.0068499373
   27      H       4.9169574834     2.4765037194    -0.0124940658
   28      C       3.6908791051     0.7103290290    -0.0030341710
   29      C       2.4465016964     1.3964204217    -0.0043890146
   30      H       2.4509984407     2.4813138175    -0.0074382383
   31      C       1.2404432657     0.7258847692    -0.0013814180
   32      C       0.0000005073     1.4039638438    -0.0000875975
   33      H       0.0000007948     2.4881548333     0.0000638019
   34      C      -1.2404425161     0.7258850202     0.0010774075
   35      C      -2.4465005205     1.3964207926     0.0042258687
   36      H      -2.4509966388     2.4813138513     0.0073936168
 ----------------------------------------------------------------
 Molecular Point Group                 C1    NOp =  1
 Largest Abelian Subgroup              C1    NOp =  1
 Nuclear Repulsion Energy =        1498.17591199 hartrees
 There are       74 alpha and       72 beta electrons
 Requested basis set is STO-3G
 There are 58 shells and 124 basis functions
 Total memory of 90000 MB is distributed as follows: 
   MEM_STATIC is set to 1000 MB
   QALLOC/CCMAN JOB total memory use is  89000 MB
 Warning: actual memory use might exceed 90000 MB

 Total QAlloc Memory Limit  90000 MB
 Mega-Array Size       978 MB
 MEM_STATIC part      1000 MB

 A cutoff of  1.0D-14 yielded   1150 shell pairs
 There are      6121 function pairs
 Smallest overlap matrix eigenvalue = 1.69E-01

 Scale SEOQF with 1.000000e-02/1.000000e-01/1.000000e+00

 Standard Electronic Orientation quadrupole field applied
 Nucleus-field energy     =     0.0000000240 hartrees
 Guess from superposition of atomic densities
 Warning:  Energy on first SCF cycle will be non-variational
 SAD guess density has 146.000000 electrons

 -----------------------------------------------------------------------
  General SCF calculation program by
  Eric Jon Sundstrom, Paul Horn, Yuezhi Mao, Dmitri Zuev, Alec White,
  David Stuck, Shaama M.S., Shane Yost, Joonho Lee, David Small,
  Daniel Levine, Susi Lehtola, Hugh Burton, Evgeny Epifanovsky,
  Bang C. Huynh
 -----------------------------------------------------------------------
 Hartree-Fock
 Orthonormalizing orbitals
 A restricted open-shell SCF calculation will be
 performed using DIIS, GDM
 SCF converges when RMS gradient is below 1.0e-08
 ---------------------------------------
  Cycle       Energy         DIIS error
 ---------------------------------------
    1    -826.8795525183      1.36e-01  
    2    -828.8161665524      1.00e-01  
    3    -830.9030591712      1.29e-02  
    4    -830.9491416447      7.69e-03  Done DIIS. Switching to GDM
 ---------------------------------------
  Cycle       Energy        RMS Gradient
 ---------------------------------------
    1    -830.9491416447      7.21e-02   Normal BFGS step
    2    -830.9838421262      4.23e-02   Normal BFGS step
    3    -830.9937147507      3.00e-02   Normal BFGS step
    4    -830.9990001302      1.82e-02   Normal BFGS step
    5    -831.0004792530      1.17e-02   Normal BFGS step
    6    -831.0008353315      4.41e-03   Normal BFGS step
    7    -831.0008997857      1.93e-03   Normal BFGS step
    8    -831.0009123678      5.76e-04   Normal BFGS step
    9    -831.0009145772      2.30e-04   Normal BFGS step
   10    -831.0009147646      9.11e-05   Normal BFGS step
   11    -831.0009147942      3.55e-05   Normal BFGS step
   12    -831.0009147997      6.96e-06   Normal BFGS step
   13    -831.0009147999      1.60e-06   Normal BFGS step
   14    -831.0009147999      3.52e-07   Normal BFGS step
   15    -831.0009147999      6.17e-08   Normal BFGS step
   16    -831.0009147999      2.20e-08   Normal BFGS step
   17    -831.0009147999      9.50e-09  Convergence criterion met
The disked orbital energies are calculated using alpha and beta Focks
 ---------------------------------------
 SCF time:   CPU 17.38s  wall 18.00s 
<S^2> =          2.000000000
 SCF   energy in the final basis set =     -831.0009147999
 Total energy in the final basis set =     -831.0009147999
 mp2 is not implemented in computing transition properties!


 ------------------------------------------------------------------------------

   CCMAN2: suite of methods based on coupled cluster
           and equation of motion theories.

   Components:
   * libvmm-1.3-trunk
     by Evgeny Epifanovsky, Ilya Kaliman.
   * libtensor-2.5-trunk
     by Evgeny Epifanovsky, Michael Wormit, Dmitry Zuev, Sam Manzer, 
        Ilya Kaliman.
   * libcc-2.5-trunk
     by Evgeny Epifanovsky, Arik Landau, Tomasz Kus, Kirill Khistyaev, 
        Dmitry Zuev, Prashant Manohar, Xintian Feng, Anna Krylov, 
        Matthew Goldey, Alec White, Thomas Jagau, Kaushik Nanda, 
        Anastasia Gunina, Alexander Kunitsa, Joonho Lee.

   CCMAN original authors:
   Anna I. Krylov, C. David Sherrill, Steven R. Gwaltney,
   Edward F. C. Byrd (2000)
   Sergey V. Levchenko, Lyudmila V. Slipchenko, Tao Wang,
   Ana-Maria C. Cristian (2003)
   Piotr A. Pieniazek, C. Melania Oana, Evgeny Epifanovsky (2007)
   Prashant Manohar (2009)

 ------------------------------------------------------------------------------


 Allocating and initializing 72000MB of RAM...
 Calculation will run on 1 core.

 
 Alpha MOs, Restricted
 -- Doubly Occupied --           
-11.041 -11.041 -11.041 -11.041 -11.039 -11.039 -11.039 -11.039
  1 A     2 A     3 A     4 A     5 A     6 A     7 A     8 A                  
-11.029 -11.029 -11.029 -11.029 -11.028 -11.028 -11.028 -11.028
  9 A    10 A    11 A    12 A    13 A    14 A    15 A    16 A                  
-11.027 -11.027 -11.027 -11.027 -11.031 -11.030  -1.139  -1.119
 17 A    18 A    19 A    20 A    21 A    22 A    23 A    24 A                  
 -1.093  -1.050  -1.021  -0.994  -0.997  -0.970  -0.947  -0.928
 25 A    26 A    27 A    28 A    29 A    30 A    31 A    32 A                  
 -0.879  -0.863  -0.787  -0.785  -0.770  -0.756  -0.757  -0.734
 33 A    34 A    35 A    36 A    37 A    38 A    39 A    40 A                  
 -0.655  -0.654  -0.656  -0.620  -0.602  -0.595  -0.578  -0.571
 41 A    42 A    43 A    44 A    45 A    46 A    47 A    48 A                  
 -0.560  -0.539  -0.534  -0.528  -0.523  -0.519  -0.520  -0.498
 49 A    50 A    51 A    52 A    53 A    54 A    55 A    56 A                  
 -0.498  -0.495  -0.473  -0.440  -0.440  -0.453  -0.414  -0.408
 57 A    58 A    59 A    60 A    61 A    62 A    63 A    64 A                  
 -0.402  -0.401  -0.376  -0.342  -0.310  -0.285  -0.264  -0.240
 65 A    66 A    67 A    68 A    69 A    70 A    71 A    72 A                  
 -- Singly Occupied (Occupied) --
 -0.271  -0.189
 73 A    74 A                                                                  
 -- Virtual --                   
  0.186   0.235   0.234   0.278   0.320   0.338   0.397   0.460
 75 A    76 A    77 A    78 A    79 A    80 A    81 A    82 A                  
  0.546   0.562   0.569   0.584   0.595   0.613   0.639   0.641
 83 A    84 A    85 A    86 A    87 A    88 A    89 A    90 A                  
  0.642   0.653   0.668   0.680   0.697   0.707   0.715   0.722
 91 A    92 A    93 A    94 A    95 A    96 A    97 A    98 A                  
  0.730   0.738   0.737   0.756   0.774   0.778   0.820   0.829
 99 A   100 A   101 A   102 A   103 A   104 A   105 A   106 A                  
  0.845   0.860   0.884   0.907   0.911   0.925   0.950   0.958
107 A   108 A   109 A   110 A   111 A   112 A   113 A   114 A                  
  1.003   1.005   1.011   1.021   1.083   1.087   1.152   1.170
115 A   116 A   117 A   118 A   119 A   120 A   121 A   122 A                  
  1.189   1.200
123 A   124 A                                                                  
 
 Beta MOs, Restricted
 -- Doubly Occupied --           
-11.041 -11.041 -11.041 -11.041 -11.039 -11.039 -11.038 -11.038
  1 A     2 A     3 A     4 A     5 A     6 A     7 A     8 A                  
-11.029 -11.029 -11.029 -11.029 -11.028 -11.028 -11.028 -11.028
  9 A    10 A    11 A    12 A    13 A    14 A    15 A    16 A                  
-11.024 -11.024 -11.024 -11.024 -11.015 -11.015  -1.126  -1.115
 17 A    18 A    19 A    20 A    21 A    22 A    23 A    24 A                  
 -1.081  -1.046  -1.000  -0.989  -0.985  -0.953  -0.944  -0.922
 25 A    26 A    27 A    28 A    29 A    30 A    31 A    32 A                  
 -0.852  -0.846  -0.783  -0.781  -0.764  -0.752  -0.739  -0.723
 33 A    34 A    35 A    36 A    37 A    38 A    39 A    40 A                  
 -0.653  -0.651  -0.650  -0.614  -0.597  -0.587  -0.573  -0.569
 41 A    42 A    43 A    44 A    45 A    46 A    47 A    48 A                  
 -0.558  -0.536  -0.529  -0.527  -0.515  -0.515  -0.491  -0.493
 49 A    50 A    51 A    52 A    53 A    54 A    55 A    56 A                  
 -0.492  -0.481  -0.469  -0.437  -0.437  -0.422  -0.412  -0.402
 57 A    58 A    59 A    60 A    61 A    62 A    63 A    64 A                  
 -0.397  -0.383  -0.333  -0.321  -0.284  -0.247  -0.252  -0.210
 65 A    66 A    67 A    68 A    69 A    70 A    71 A    72 A                  
 -- Singly Occupied (Vacant) --  
  0.159   0.238
 73 A    74 A                                                                  
 -- Virtual --                   
  0.218   0.247   0.274   0.304   0.342   0.385   0.416   0.493
 75 A    76 A    77 A    78 A    79 A    80 A    81 A    82 A                  
  0.561   0.566   0.602   0.589   0.596   0.614   0.649   0.648
 83 A    84 A    85 A    86 A    87 A    88 A    89 A    90 A                  
  0.671   0.661   0.676   0.683   0.702   0.720   0.719   0.728
 91 A    92 A    93 A    94 A    95 A    96 A    97 A    98 A                  
  0.731   0.742   0.752   0.761   0.779   0.785   0.823   0.840
 99 A   100 A   101 A   102 A   103 A   104 A   105 A   106 A                  
  0.851   0.863   0.888   0.912   0.916   0.930   0.952   0.963
107 A   108 A   109 A   110 A   111 A   112 A   113 A   114 A                  
  1.010   1.011   1.015   1.023   1.087   1.092   1.154   1.172
115 A   116 A   117 A   118 A   119 A   120 A   121 A   122 A                  
  1.192   1.207
123 A   124 A                                                                  

 Occupation and symmetry of molecular orbitals

 Point group: C1 (1 irreducible representation).

                           A     All 
 -------------------------------------
 All molecular orbitals:
  - Alpha                  124   124 
  - Beta                   124   124 
 -------------------------------------
 Alpha orbitals:
  - Frozen occupied        22    22  
  - Active occupied        52    52  
  - Active virtual         50    50  
  - Frozen virtual         0     0   
 -------------------------------------
 Beta orbitals:
  - Frozen occupied        22    22  
  - Active occupied        50    50  
  - Active virtual         52    52  
  - Frozen virtual         0     0   
 -------------------------------------

 Import integrals:   CPU 0.00 s  wall 0.00 s

 Molecular orbitals will be canonicalized.
 Import integrals:   CPU 13.82 s  wall 14.02 s

 Computing CCSD intermediates for later calculations in double precision
 Finished.

 MP2 amplitudes:   CPU 62.47 s  wall 62.48 s

        Solving for EOMEE-CCSD A transitions.

Running a double precision version
        EOMEE-CCSD/MP2 right amplitudes will be solved using Davidson.
        Amplitudes will be solved using standard  algorithm.
     Hard-coded thresholds: 
     LinDepThresh=1.00e-15  NormThresh=1.00e-06  ReorthogonThresh=1.00e-02

      Roots     MaxVec    MaxIter   Precond   Conv      Shift    
      20        120       60        1         1.00e-05  0.00e+00  
 ------------------------------------------------------------------------------
      Iter ConvRoots NVecs ResNorm^2 Current eigenvalues (eV)
 ------------------------------------------------------------------------------
      0    0      20    1.63e-01   6.8562   7.7883   7.9150   8.0488   8.0959   8.6445   8.7600   9.4655   9.5179   10.0288   10.0684   10.1163   10.5740   10.6894   10.7671   10.8827   11.3541   11.4493   11.8474   12.0988   
      1    0      40    1.77e-02   3.2072   4.1343   4.4120   4.5338   4.6942   5.0041   5.1966   5.6119   5.9915   6.1237   6.4463   6.4708   6.7230   6.8113   7.0621   7.2358   7.4846   7.5412   7.8819   8.1944   
      2    0      60    7.14e-03   2.2418   2.9638   3.3948   3.5514   4.1486   4.2520   4.6980   4.7195   5.0847   5.3754   5.4706   5.8193   5.8774   6.2362   6.4079   6.5121   6.6425   6.8891   6.9499   7.5659   
      3    0      80    2.71e-03   2.0226   2.6740   3.0838   3.3683   3.9484   4.1913   4.4884   4.6262   4.7461   5.0045   5.3236   5.3551   5.6950   5.7296   6.1445   6.2153   6.4044   6.6860   6.7659   7.4542   
      4    0      100   1.24e-03   1.9677   2.6095   2.9943   3.3212   3.8935   4.1848   4.4152   4.6130   4.6326   4.8542   5.0444   5.1504   5.4013   5.6885   5.7719   6.1293   6.3717   6.6260   6.7359   7.4239   
      5    0      120   5.88e-04   1.9357   2.5864   2.9467   3.3012   3.8694   4.1809   4.3763   4.5764   4.6046   4.7420   4.8674   4.9746   5.3708   5.4096   5.6665   6.1099   6.3531   6.5982   6.7087   7.4036   
      6    1      40    2.31e-04   1.9292   2.5808   2.9334   3.2970   3.8644   4.1797*  4.3661   4.5573   4.6014   4.7107   4.8235   4.9266   5.2806   5.3626   5.6580   6.1028   6.3481   6.5879   6.6937   7.3989   
      7    1      59    2.50e-03   1.9242   2.5741   2.9169   3.2936   3.8595   4.1797*  4.3553   4.5363   4.5971   4.6830   4.7922   4.8908   5.1428   5.3562   5.6432   6.0939   6.3433   6.5687   6.6652   7.1815   
      8    2      78    2.52e-03   1.9234   2.5740   2.9118   3.2926*  3.8597   4.1797*  4.3546   4.5278   4.5966   4.6750   4.7847   4.8733   4.9860   5.2299   5.3530   5.6563   5.6794   6.0997   6.3407   6.3760   
      9    5      96    8.80e-04   1.9232*  2.5737*  2.9105   3.2924*  3.8598*  4.1796*  4.3533   4.5197   4.5968   4.6672   4.7070   4.7756   4.8539   4.8566   5.3485   5.3967   5.6632   5.7627   5.9561   6.0944   
      10   7      111   5.70e-04   1.9227*  2.5739*  2.9092*  3.2924*  3.8592*  4.1796*  4.3520*  4.5161   4.5282   4.6001   4.6621   4.7683   4.8193   4.8442   5.3420   5.3424   5.5461   5.6590   5.7654   6.0938   
      11   10     120   3.24e-04   1.9226*  2.5739*  2.9096*  3.2925*  3.8591*  4.1796*  4.3522*  4.4830   4.5162*  4.6002   4.6622*  4.7682*  4.8125   4.8415   5.3281   5.3369   5.4831   5.6549   5.7211   6.0377   
      12   11     30    1.11e-04   1.9225*  2.5738*  2.9094*  3.2925*  3.8589*  4.1796*  4.3520*  4.4686   4.5157*  4.6009*  4.6623*  4.7680*  4.8090   4.8402   5.3238   5.3320   5.4685   5.6554   5.7041   5.9384   
      13   11     39    7.45e-05   1.9225*  2.5738*  2.9094*  3.2926*  3.8587*  4.1796*  4.3521*  4.4603   4.5157*  4.6010*  4.6623*  4.7680*  4.8082   4.8391   5.3210   5.3275   5.4540   5.6513   5.6953   5.8635   
      14   13     48    4.05e-05   1.9225*  2.5737*  2.9094*  3.2926*  3.8587*  4.1796*  4.3521*  4.4572   4.5157*  4.6013*  4.6623*  4.7680*  4.8080*  4.8389*  5.3205   5.3239   5.4437   5.6476   5.6924   5.8327   
      15   15     55    2.24e-05   1.9225*  2.5737*  2.9094*  3.2926*  3.8587*  4.1796*  4.3521*  4.4560*  4.5157*  4.6013*  4.6623*  4.7680*  4.8078*  4.8390*  5.3197*  5.3231   5.4418   5.6484   5.6916   5.8100   
      16   16     60    1.53e-05   1.9225*  2.5737*  2.9094*  3.2926*  3.8587*  4.1796*  4.3521*  4.4556*  4.5157*  4.6011*  4.6623*  4.7679*  4.8078*  4.8391*  5.3197*  5.3234*  5.4394   5.6467   5.6905   5.7999   
      17   18     64    1.08e-05   1.9225*  2.5737*  2.9094*  3.2926*  3.8587*  4.1796*  4.3521*  4.4556*  4.5157*  4.6011*  4.6623*  4.7678*  4.8078*  4.8391*  5.3197*  5.3231*  5.4378*  5.6460   5.6895*  5.7894   
      18   18     66    1.16e-05   1.9225*  2.5738*  2.9094*  3.2926*  3.8587*  4.1796*  4.3521*  4.4557*  4.5157*  4.6012*  4.6623*  4.7678*  4.8078*  4.8391*  5.3197*  5.3231*  5.4378*  5.6449   5.6895*  5.7799   
      19   18     68    1.07e-05   1.9225*  2.5737*  2.9094*  3.2926*  3.8587*  4.1796*  4.3521*  4.4556*  4.5157*  4.6012*  4.6623*  4.7678*  4.8078*  4.8391*  5.3197*  5.3231*  5.4378*  5.6443   5.6895*  5.7679   
      20   19     70    7.70e-06   1.9225*  2.5738*  2.9094*  3.2926*  3.8587*  4.1796*  4.3521*  4.4556*  4.5157*  4.6012*  4.6623*  4.7678*  4.8078*  4.8391*  5.3197*  5.3231*  5.4378*  5.6439*  5.6895*  5.7605   
      21   19     71    5.22e-06   1.9225*  2.5739*  2.9094*  3.2926*  3.8587*  4.1796*  4.3521*  4.4556*  4.5157*  4.6012*  4.6623*  4.7678*  4.8078*  4.8391*  5.3197*  5.3231*  5.4378*  5.6431*  5.6895*  5.7553   
      22   19     72    4.10e-06   1.9225*  2.5739*  2.9094*  3.2926*  3.8587*  4.1796*  4.3521*  4.4556*  4.5157*  4.6011*  4.6623*  4.7678*  4.8078*  4.8391*  5.3197*  5.3231*  5.4378*  5.6428*  5.6895*  5.7536   
      23   19     73    3.63e-06   1.9225*  2.5739*  2.9094*  3.2926*  3.8587*  4.1796*  4.3521*  4.4556*  4.5157*  4.6011*  4.6623*  4.7678*  4.8078*  4.8391*  5.3197*  5.3231*  5.4378*  5.6427*  5.6895*  5.7525   
      24   20     74    3.28e-06   1.9225*  2.5739*  2.9094*  3.2926*  3.8587*  4.1796*  4.3521*  4.4556*  4.5157*  4.6011*  4.6623*  4.7678*  4.8078*  4.8391*  5.3197*  5.3231*  5.4378*  5.6426*  5.6895*  5.7515*  

     Davidson procedure converged

 EOMEE transition 1/A
 Total energy = -832.18123319 a.u.  Excitation energy = 1.9225 eV.
 R0^2 = 0.0000  R1^2 = 0.8036  R2^2 = 0.1964  Res^2 = 5.52e-07
 Conv-d = yes

 Amplitude    Transitions between orbitals
 -0.6191       72 (A) B                  ->    73 (A) B                   
  0.5627       74 (A) A                  ->    75 (A) A                   
  0.1407       68 (A) B                  ->    73 (A) B                   
  0.1208       74 (A) A                  ->    79 (A) A                   
 -0.1007       71 (A) B                  ->    76 (A) B                   

              Summary of significant orbitals:

               Number  Type             Irrep      Energy
               74      Occ  Alpha      74 (A)     -0.1396
               68      Occ  Beta       68 (A)     -0.3211
               70      Occ  Beta       71 (A)     -0.2457
               72      Occ  Beta       72 (A)     -0.2094
               75      Vir  Alpha      75 (A)      0.1859
               79      Vir  Alpha      79 (A)      0.3199
               73      Vir  Beta       73 (A)      0.1133
               76      Vir  Beta       76 (A)      0.2467


 EOMEE transition 2/A
 Total energy = -832.15729621 a.u.  Excitation energy = 2.5739 eV.
 R0^2 = 0.0000  R1^2 = 0.8637  R2^2 = 0.1363  Res^2 = 9.37e-07
 Conv-d = yes

 Amplitude    Transitions between orbitals
 -0.4260       70 (A) B                  ->    73 (A) B                   
 -0.4251       72 (A) B                  ->    74 (A) B                   
  0.3958       73 (A) A                  ->    75 (A) A                   
  0.3851       74 (A) A                  ->    77 (A) A                   
  0.1861       71 (A) B                  ->    75 (A) B                   
  0.1766       72 (A) A                  ->    76 (A) A                   
  0.1322       66 (A) B                  ->    73 (A) B                   
  0.1234       69 (A) B                  ->    76 (A) B                   
  0.1178       71 (A) A                  ->    78 (A) A                   
  0.1030       74 (A) A                  ->    81 (A) A                   

              Summary of significant orbitals:

               Number  Type             Irrep      Energy
               73      Occ  Alpha      71 (A)     -0.2641
               71      Occ  Alpha      72 (A)     -0.2388
               72      Occ  Alpha      73 (A)     -0.1952
               74      Occ  Alpha      74 (A)     -0.1396
               66      Occ  Beta       66 (A)     -0.3827
               69      Occ  Beta       69 (A)     -0.2839
               71      Occ  Beta       70 (A)     -0.2523
               70      Occ  Beta       71 (A)     -0.2457
               72      Occ  Beta       72 (A)     -0.2094
               75      Vir  Alpha      75 (A)      0.1859
               77      Vir  Alpha      76 (A)      0.2331
               76      Vir  Alpha      77 (A)      0.2347
               78      Vir  Alpha      78 (A)      0.2776
               81      Vir  Alpha      81 (A)      0.3966
               73      Vir  Beta       73 (A)      0.1133
               75      Vir  Beta       74 (A)      0.1658
               74      Vir  Beta       75 (A)      0.2167
               76      Vir  Beta       76 (A)      0.2467


 EOMEE transition 3/A
 Total energy = -832.14496619 a.u.  Excitation energy = 2.9094 eV.
 R0^2 = 0.1031  R1^2 = 0.7912  R2^2 = 0.2088  Res^2 = 7.26e-07
 Conv-d = yes

 Amplitude    Transitions between orbitals
 -0.6072       71 (A) B                  ->    73 (A) B                   
  0.5021       74 (A) A                  ->    76 (A) A                   
 -0.1969       67 (A) B                  ->    73 (A) B                   
  0.1719       74 (A) A                  ->    80 (A) A                   
 -0.1540       72 (A) B                  ->    76 (A) B                   
 -0.1525       71 (A) A                  ->    75 (A) A                   

              Summary of significant orbitals:

               Number  Type             Irrep      Energy
               73      Occ  Alpha      71 (A)     -0.2641
               74      Occ  Alpha      74 (A)     -0.1396
               67      Occ  Beta       67 (A)     -0.3341
               70      Occ  Beta       71 (A)     -0.2457
               72      Occ  Beta       72 (A)     -0.2094
               75      Vir  Alpha      75 (A)      0.1859
               77      Vir  Alpha      76 (A)      0.2331
               80      Vir  Alpha      80 (A)      0.3388
               73      Vir  Beta       73 (A)      0.1133
               76      Vir  Beta       76 (A)      0.2467


 EOMEE transition 4/A
 Total energy = -832.13088296 a.u.  Excitation energy = 3.2926 eV.
 R0^2 = 0.0000  R1^2 = 0.9112  R2^2 = 0.0888  Res^2 = 1.40e-06
 Conv-d = yes

 Amplitude    Transitions between orbitals
  0.4061       71 (A) B                  ->    74 (A) B                   
 -0.3623       73 (A) A                  ->    76 (A) A                   
 -0.3433       72 (A) B                  ->    75 (A) B                   
 -0.3425       72 (A) A                  ->    75 (A) A                   
 -0.3202       69 (A) B                  ->    73 (A) B                   
  0.2657       74 (A) A                  ->    78 (A) A                   
  0.1838       70 (A) B                  ->    76 (A) B                   
  0.1803       71 (A) A                  ->    77 (A) A                   
 -0.1213       67 (A) B                  ->    77 (A) B                   
 -0.1175       70 (A) A                  ->    80 (A) A                   
 -0.1129       68 (A) A                  ->    79 (A) A                   
  0.1119       68 (A) B                  ->    79 (A) B                   
 -0.1087       62 (A) B                  ->    73 (A) B                   

              Summary of significant orbitals:

               Number  Type             Irrep      Energy
               68      Occ  Alpha      68 (A)     -0.3439
               70      Occ  Alpha      70 (A)     -0.3146
               73      Occ  Alpha      71 (A)     -0.2641
               71      Occ  Alpha      72 (A)     -0.2388
               72      Occ  Alpha      73 (A)     -0.1952
               74      Occ  Alpha      74 (A)     -0.1396
               62      Occ  Beta       62 (A)     -0.4212
               67      Occ  Beta       67 (A)     -0.3341
               68      Occ  Beta       68 (A)     -0.3211
               69      Occ  Beta       69 (A)     -0.2839
               71      Occ  Beta       70 (A)     -0.2523
               70      Occ  Beta       71 (A)     -0.2457
               72      Occ  Beta       72 (A)     -0.2094
               75      Vir  Alpha      75 (A)      0.1859
               77      Vir  Alpha      76 (A)      0.2331
               76      Vir  Alpha      77 (A)      0.2347
               78      Vir  Alpha      78 (A)      0.2776
               79      Vir  Alpha      79 (A)      0.3199
               80      Vir  Alpha      80 (A)      0.3388
               73      Vir  Beta       73 (A)      0.1133
               75      Vir  Beta       74 (A)      0.1658
               74      Vir  Beta       75 (A)      0.2167
               76      Vir  Beta       76 (A)      0.2467
               77      Vir  Beta       77 (A)      0.3051
               79      Vir  Beta       79 (A)      0.3436


 EOMEE transition 5/A
 Total energy = -832.11008009 a.u.  Excitation energy = 3.8587 eV.
 R0^2 = 0.0000  R1^2 = 0.8454  R2^2 = 0.1546  Res^2 = 1.03e-06
 Conv-d = yes

 Amplitude    Transitions between orbitals
 -0.5287       70 (A) B                  ->    73 (A) B                   
  0.4024       74 (A) A                  ->    77 (A) A                   
  0.3946       72 (A) B                  ->    74 (A) B                   
 -0.3723       73 (A) A                  ->    75 (A) A                   
 -0.1773       71 (A) B                  ->    75 (A) B                   
 -0.1676       72 (A) A                  ->    76 (A) A                   
  0.1165       69 (A) B                  ->    76 (A) B                   
  0.1073       71 (A) A                  ->    78 (A) A                   

              Summary of significant orbitals:

               Number  Type             Irrep      Energy
               73      Occ  Alpha      71 (A)     -0.2641
               71      Occ  Alpha      72 (A)     -0.2388
               72      Occ  Alpha      73 (A)     -0.1952
               74      Occ  Alpha      74 (A)     -0.1396
               69      Occ  Beta       69 (A)     -0.2839
               71      Occ  Beta       70 (A)     -0.2523
               70      Occ  Beta       71 (A)     -0.2457
               72      Occ  Beta       72 (A)     -0.2094
               75      Vir  Alpha      75 (A)      0.1859
               77      Vir  Alpha      76 (A)      0.2331
               76      Vir  Alpha      77 (A)      0.2347
               78      Vir  Alpha      78 (A)      0.2776
               73      Vir  Beta       73 (A)      0.1133
               75      Vir  Beta       74 (A)      0.1658
               74      Vir  Beta       75 (A)      0.2167
               76      Vir  Beta       76 (A)      0.2467


 EOMEE transition 6/A
 Total energy = -832.09828607 a.u.  Excitation energy = 4.1796 eV.
 R0^2 = 0.0000  R1^2 = 0.8922  R2^2 = 0.1078  Res^2 = 4.61e-06
 Conv-d = yes

 Amplitude    Transitions between orbitals
 -0.6779       74 (A) A                  ->    75 (A) A                   
 -0.6220       72 (A) B                  ->    73 (A) B                   
  0.1104       70 (A) B                  ->    74 (A) B                   
  0.0833       71 (A) A                  ->    76 (A) A                   

              Summary of significant orbitals:

               Number  Type             Irrep      Energy
               73      Occ  Alpha      71 (A)     -0.2641
               74      Occ  Alpha      74 (A)     -0.1396
               71      Occ  Beta       70 (A)     -0.2523
               72      Occ  Beta       72 (A)     -0.2094
               75      Vir  Alpha      75 (A)      0.1859
               77      Vir  Alpha      76 (A)      0.2331
               73      Vir  Beta       73 (A)      0.1133
               75      Vir  Beta       74 (A)      0.1658


 EOMEE transition 7/A
 Total energy = -832.09194903 a.u.  Excitation energy = 4.3521 eV.
 R0^2 = 0.0000  R1^2 = 0.8056  R2^2 = 0.1944  Res^2 = 2.30e-06
 Conv-d = yes

 Amplitude    Transitions between orbitals
  0.5455       69 (A) B                  ->    73 (A) B                   
 -0.4160       74 (A) A                  ->    78 (A) A                   
 -0.2893       72 (A) A                  ->    75 (A) A                   
 -0.2826       72 (A) B                  ->    75 (A) B                   
  0.1972       71 (A) B                  ->    74 (A) B                   
 -0.1765       73 (A) A                  ->    76 (A) A                   
 -0.1683       70 (A) B                  ->    76 (A) B                   
 -0.1647       71 (A) A                  ->    77 (A) A                   

              Summary of significant orbitals:

               Number  Type             Irrep      Energy
               73      Occ  Alpha      71 (A)     -0.2641
               71      Occ  Alpha      72 (A)     -0.2388
               72      Occ  Alpha      73 (A)     -0.1952
               74      Occ  Alpha      74 (A)     -0.1396
               69      Occ  Beta       69 (A)     -0.2839
               71      Occ  Beta       70 (A)     -0.2523
               70      Occ  Beta       71 (A)     -0.2457
               72      Occ  Beta       72 (A)     -0.2094
               75      Vir  Alpha      75 (A)      0.1859
               77      Vir  Alpha      76 (A)      0.2331
               76      Vir  Alpha      77 (A)      0.2347
               78      Vir  Alpha      78 (A)      0.2776
               73      Vir  Beta       73 (A)      0.1133
               75      Vir  Beta       74 (A)      0.1658
               74      Vir  Beta       75 (A)      0.2167
               76      Vir  Beta       76 (A)      0.2467


 EOMEE transition 8/A
 Total energy = -832.08814428 a.u.  Excitation energy = 4.4556 eV.
 R0^2 = 0.0000  R1^2 = 0.8778  R2^2 = 0.1222  Res^2 = 4.32e-07
 Conv-d = yes

 Amplitude    Transitions between orbitals
  0.3360       68 (A) B                  ->    74 (A) B                   
  0.3193       70 (A) A                  ->    75 (A) A                   
  0.3099       72 (A) B                  ->    77 (A) B                   
  0.2829       73 (A) A                  ->    79 (A) A                   
 -0.2574       72 (A) A                  ->    76 (A) A                   
 -0.2561       71 (A) B                  ->    75 (A) B                   
  0.2077       67 (A) B                  ->    75 (A) B                   
  0.2014       66 (A) B                  ->    73 (A) B                   
  0.1805       72 (A) A                  ->    80 (A) A                   
  0.1646       68 (A) A                  ->    76 (A) A                   
  0.1548       71 (A) B                  ->    79 (A) B                   
 -0.1418       71 (A) A                  ->    78 (A) A                   
  0.1394       70 (A) B                  ->    78 (A) B                   
 -0.1363       69 (A) B                  ->    76 (A) B                   
  0.1282       74 (A) A                  ->    81 (A) A                   
 -0.1216       69 (A) A                  ->    77 (A) A                   
 -0.1136       74 (A) A                  ->    77 (A) A                   

              Summary of significant orbitals:

               Number  Type             Irrep      Energy
               68      Occ  Alpha      68 (A)     -0.3439
               69      Occ  Alpha      69 (A)     -0.3315
               70      Occ  Alpha      70 (A)     -0.3146
               73      Occ  Alpha      71 (A)     -0.2641
               71      Occ  Alpha      72 (A)     -0.2388
               72      Occ  Alpha      73 (A)     -0.1952
               74      Occ  Alpha      74 (A)     -0.1396
               66      Occ  Beta       66 (A)     -0.3827
               67      Occ  Beta       67 (A)     -0.3341
               68      Occ  Beta       68 (A)     -0.3211
               69      Occ  Beta       69 (A)     -0.2839
               71      Occ  Beta       70 (A)     -0.2523
               70      Occ  Beta       71 (A)     -0.2457
               72      Occ  Beta       72 (A)     -0.2094
               75      Vir  Alpha      75 (A)      0.1859
               77      Vir  Alpha      76 (A)      0.2331
               76      Vir  Alpha      77 (A)      0.2347
               78      Vir  Alpha      78 (A)      0.2776
               79      Vir  Alpha      79 (A)      0.3199
               80      Vir  Alpha      80 (A)      0.3388
               81      Vir  Alpha      81 (A)      0.3966
               73      Vir  Beta       73 (A)      0.1133
               75      Vir  Beta       74 (A)      0.1658
               74      Vir  Beta       75 (A)      0.2167
               76      Vir  Beta       76 (A)      0.2467
               77      Vir  Beta       77 (A)      0.3051
               78      Vir  Beta       78 (A)      0.3250
               79      Vir  Beta       79 (A)      0.3436


 EOMEE transition 9/A
 Total energy = -832.08593592 a.u.  Excitation energy = 4.5157 eV.
 R0^2 = 0.0000  R1^2 = 0.7565  R2^2 = 0.2435  Res^2 = 2.90e-06
 Conv-d = yes

 Amplitude    Transitions between orbitals
 -0.5641       70 (A) B                  ->    74 (A) B                   
  0.4993       73 (A) A                  ->    77 (A) A                   
 -0.2656       69 (A) B                  ->    75 (A) B                   
 -0.2423       72 (A) A                  ->    78 (A) A                   
 -0.1099       74 (A) A                  ->    75 (A) A                   

              Summary of significant orbitals:

               Number  Type             Irrep      Energy
               71      Occ  Alpha      72 (A)     -0.2388
               72      Occ  Alpha      73 (A)     -0.1952
               74      Occ  Alpha      74 (A)     -0.1396
               69      Occ  Beta       69 (A)     -0.2839
               71      Occ  Beta       70 (A)     -0.2523
               75      Vir  Alpha      75 (A)      0.1859
               76      Vir  Alpha      77 (A)      0.2347
               78      Vir  Alpha      78 (A)      0.2776
               75      Vir  Beta       74 (A)      0.1658
               74      Vir  Beta       75 (A)      0.2167


 EOMEE transition 10/A
 Total energy = -832.08279527 a.u.  Excitation energy = 4.6011 eV.
 R0^2 = 0.0000  R1^2 = 0.8849  R2^2 = 0.1151  Res^2 = 5.90e-08
 Conv-d = yes

 Amplitude    Transitions between orbitals
  0.6872       74 (A) A                  ->    77 (A) A                   
  0.5838       70 (A) B                  ->    73 (A) B                   
  0.1130       74 (A) A                  ->    81 (A) A                   
 -0.1022       69 (A) A                  ->    77 (A) A                   
 -0.1001       66 (A) B                  ->    73 (A) B                   

              Summary of significant orbitals:

               Number  Type             Irrep      Energy
               69      Occ  Alpha      69 (A)     -0.3315
               74      Occ  Alpha      74 (A)     -0.1396
               66      Occ  Beta       66 (A)     -0.3827
               71      Occ  Beta       70 (A)     -0.2523
               76      Vir  Alpha      77 (A)      0.2347
               81      Vir  Alpha      81 (A)      0.3966
               73      Vir  Beta       73 (A)      0.1133


 EOMEE transition 11/A
 Total energy = -832.08054714 a.u.  Excitation energy = 4.6623 eV.
 R0^2 = 0.0000  R1^2 = 0.7036  R2^2 = 0.2964  Res^2 = 2.93e-06
 Conv-d = yes

 Amplitude    Transitions between orbitals
  0.5819       68 (A) B                  ->    73 (A) B                   
  0.4297       74 (A) A                  ->    79 (A) A                   
  0.1717       71 (A) B                  ->    76 (A) B                   
  0.1683       71 (A) A                  ->    76 (A) A                   
 -0.1555       67 (A) B                  ->    76 (A) B                   
 -0.1466       69 (A) A                  ->    75 (A) A                   
  0.1311       72 (A) B                  ->    78 (A) B                   
 -0.1285       71 (A) A                  ->    80 (A) A                   
  0.1124       72 (A) B                  ->    73 (A) B                   

              Summary of significant orbitals:

               Number  Type             Irrep      Energy
               69      Occ  Alpha      69 (A)     -0.3315
               73      Occ  Alpha      71 (A)     -0.2641
               74      Occ  Alpha      74 (A)     -0.1396
               67      Occ  Beta       67 (A)     -0.3341
               68      Occ  Beta       68 (A)     -0.3211
               70      Occ  Beta       71 (A)     -0.2457
               72      Occ  Beta       72 (A)     -0.2094
               75      Vir  Alpha      75 (A)      0.1859
               77      Vir  Alpha      76 (A)      0.2331
               79      Vir  Alpha      79 (A)      0.3199
               80      Vir  Alpha      80 (A)      0.3388
               73      Vir  Beta       73 (A)      0.1133
               76      Vir  Beta       76 (A)      0.2467
               78      Vir  Beta       78 (A)      0.3250


 EOMEE transition 12/A
 Total energy = -832.07667102 a.u.  Excitation energy = 4.7678 eV.
 R0^2 = 0.0012  R1^2 = 0.7015  R2^2 = 0.2985  Res^2 = 6.87e-06
 Conv-d = yes

 Amplitude    Transitions between orbitals
 -0.5733       67 (A) B                  ->    73 (A) B                   
  0.4136       74 (A) A                  ->    80 (A) A                   
  0.1802       68 (A) B                  ->    76 (A) B                   
 -0.1612       71 (A) A                  ->    79 (A) A                   
 -0.1229       69 (A) A                  ->    76 (A) A                   
 -0.1223       74 (A) A                  ->    76 (A) A                   
 -0.1214       69 (A) B                  ->    74 (A) B                   
  0.1175       71 (A) B                  ->    78 (A) B                   
  0.1068       71 (A) A                  ->    75 (A) A                   

              Summary of significant orbitals:

               Number  Type             Irrep      Energy
               69      Occ  Alpha      69 (A)     -0.3315
               73      Occ  Alpha      71 (A)     -0.2641
               74      Occ  Alpha      74 (A)     -0.1396
               67      Occ  Beta       67 (A)     -0.3341
               68      Occ  Beta       68 (A)     -0.3211
               69      Occ  Beta       69 (A)     -0.2839
               70      Occ  Beta       71 (A)     -0.2457
               75      Vir  Alpha      75 (A)      0.1859
               77      Vir  Alpha      76 (A)      0.2331
               79      Vir  Alpha      79 (A)      0.3199
               80      Vir  Alpha      80 (A)      0.3388
               73      Vir  Beta       73 (A)      0.1133
               75      Vir  Beta       74 (A)      0.1658
               76      Vir  Beta       76 (A)      0.2467
               78      Vir  Beta       78 (A)      0.3250


 EOMEE transition 13/A
 Total energy = -832.07519947 a.u.  Excitation energy = 4.8078 eV.
 R0^2 = 0.0000  R1^2 = 0.8553  R2^2 = 0.1447  Res^2 = 3.47e-06
 Conv-d = yes

 Amplitude    Transitions between orbitals
 -0.3834       67 (A) B                  ->    74 (A) B                   
  0.3135       73 (A) A                  ->    80 (A) A                   
  0.2993       71 (A) B                  ->    77 (A) B                   
  0.2959       70 (A) A                  ->    76 (A) A                   
 -0.2610       68 (A) B                  ->    75 (A) B                   
  0.2363       72 (A) A                  ->    79 (A) A                   
  0.2360       68 (A) A                  ->    75 (A) A                   
  0.2092       72 (A) B                  ->    79 (A) B                   
  0.1747       62 (A) B                  ->    73 (A) B                   
 -0.1590       71 (A) B                  ->    74 (A) B                   
 -0.1234       56 (A) B                  ->    73 (A) B                   
  0.1160       74 (A) A                  ->    82 (A) A                   
 -0.1097       69 (A) B                  ->    78 (A) B                   
  0.1085       69 (A) A                  ->    78 (A) A                   
  0.1009       71 (A) A                  ->    77 (A) A                   

              Summary of significant orbitals:

               Number  Type             Irrep      Energy
               68      Occ  Alpha      68 (A)     -0.3439
               69      Occ  Alpha      69 (A)     -0.3315
               70      Occ  Alpha      70 (A)     -0.3146
               73      Occ  Alpha      71 (A)     -0.2641
               71      Occ  Alpha      72 (A)     -0.2388
               72      Occ  Alpha      73 (A)     -0.1952
               74      Occ  Alpha      74 (A)     -0.1396
               57      Occ  Beta       56 (A)     -0.4923
               62      Occ  Beta       62 (A)     -0.4212
               67      Occ  Beta       67 (A)     -0.3341
               68      Occ  Beta       68 (A)     -0.3211
               69      Occ  Beta       69 (A)     -0.2839
               70      Occ  Beta       71 (A)     -0.2457
               72      Occ  Beta       72 (A)     -0.2094
               75      Vir  Alpha      75 (A)      0.1859
               77      Vir  Alpha      76 (A)      0.2331
               76      Vir  Alpha      77 (A)      0.2347
               78      Vir  Alpha      78 (A)      0.2776
               79      Vir  Alpha      79 (A)      0.3199
               80      Vir  Alpha      80 (A)      0.3388
               82      Vir  Alpha      82 (A)      0.4599
               73      Vir  Beta       73 (A)      0.1133
               75      Vir  Beta       74 (A)      0.1658
               74      Vir  Beta       75 (A)      0.2167
               77      Vir  Beta       77 (A)      0.3051
               78      Vir  Beta       78 (A)      0.3250
               79      Vir  Beta       79 (A)      0.3436


 EOMEE transition 14/A
 Total energy = -832.07405172 a.u.  Excitation energy = 4.8391 eV.
 R0^2 = 0.0119  R1^2 = 0.7601  R2^2 = 0.2399  Res^2 = 5.14e-07
 Conv-d = yes

 Amplitude    Transitions between orbitals
  0.4391       69 (A) B                  ->    74 (A) B                   
 -0.3595       73 (A) A                  ->    78 (A) A                   
  0.3322       70 (A) B                  ->    75 (A) B                   
  0.3105       72 (A) A                  ->    77 (A) A                   
  0.2194       72 (A) B                  ->    76 (A) B                   
  0.2067       71 (A) A                  ->    75 (A) A                   
 -0.1775       67 (A) B                  ->    73 (A) B                   
  0.1284       74 (A) A                  ->    80 (A) A                   
  0.1247       71 (A) B                  ->    73 (A) B                   
  0.1188       71 (A) B                  ->    78 (A) B                   
 -0.1175       69 (A) A                  ->    76 (A) A                   

              Summary of significant orbitals:

               Number  Type             Irrep      Energy
               69      Occ  Alpha      69 (A)     -0.3315
               73      Occ  Alpha      71 (A)     -0.2641
               71      Occ  Alpha      72 (A)     -0.2388
               72      Occ  Alpha      73 (A)     -0.1952
               74      Occ  Alpha      74 (A)     -0.1396
               67      Occ  Beta       67 (A)     -0.3341
               69      Occ  Beta       69 (A)     -0.2839
               71      Occ  Beta       70 (A)     -0.2523
               70      Occ  Beta       71 (A)     -0.2457
               72      Occ  Beta       72 (A)     -0.2094
               75      Vir  Alpha      75 (A)      0.1859
               77      Vir  Alpha      76 (A)      0.2331
               76      Vir  Alpha      77 (A)      0.2347
               78      Vir  Alpha      78 (A)      0.2776
               80      Vir  Alpha      80 (A)      0.3388
               73      Vir  Beta       73 (A)      0.1133
               75      Vir  Beta       74 (A)      0.1658
               74      Vir  Beta       75 (A)      0.2167
               76      Vir  Beta       76 (A)      0.2467
               78      Vir  Beta       78 (A)      0.3250


 EOMEE transition 15/A
 Total energy = -832.05638791 a.u.  Excitation energy = 5.3197 eV.
 R0^2 = 0.0000  R1^2 = 0.6373  R2^2 = 0.3627  Res^2 = 5.28e-06
 Conv-d = yes

 Amplitude    Transitions between orbitals
 -0.2845       71 (A) B                  ->    74 (A) B                   
  0.2391       68 (A) B                  ->    75 (A) B                   
 -0.2335       68 (A) A                  ->    75 (A) A                   
 -0.2046       72 (A) A                  ->    79 (A) A                   
 -0.2039       72 (A) B                  ->    79 (A) B                   
  0.1945       71 (A) A                  ->    77 (A) A                   
  0.1925       73 (A) A                  ->    76 (A) A                   
  0.1917       70 (A) B                  ->    76 (A) B                   
  0.1762       67 (A) B                  ->    74 (A) B                   
 -0.1761       72 (A) B                  ->    75 (A) B                   
 -0.1760       72 (A) A                  ->    75 (A) A                   
 -0.1670       71 (A) B                  ->    81 (A) B                   
  0.1630       63 (A) A                  ->    76 (A) A                   
 -0.1428       73 (A) A                  ->    80 (A) A                   

              Summary of significant orbitals:

               Number  Type             Irrep      Energy
               63      Occ  Alpha      63 (A)     -0.4224
               68      Occ  Alpha      68 (A)     -0.3439
               73      Occ  Alpha      71 (A)     -0.2641
               71      Occ  Alpha      72 (A)     -0.2388
               72      Occ  Alpha      73 (A)     -0.1952
               67      Occ  Beta       67 (A)     -0.3341
               68      Occ  Beta       68 (A)     -0.3211
               71      Occ  Beta       70 (A)     -0.2523
               70      Occ  Beta       71 (A)     -0.2457
               72      Occ  Beta       72 (A)     -0.2094
               75      Vir  Alpha      75 (A)      0.1859
               77      Vir  Alpha      76 (A)      0.2331
               76      Vir  Alpha      77 (A)      0.2347
               79      Vir  Alpha      79 (A)      0.3199
               80      Vir  Alpha      80 (A)      0.3388
               75      Vir  Beta       74 (A)      0.1658
               74      Vir  Beta       75 (A)      0.2167
               76      Vir  Beta       76 (A)      0.2467
               79      Vir  Beta       79 (A)      0.3436
               81      Vir  Beta       81 (A)      0.4256


 EOMEE transition 16/A
 Total energy = -832.05626357 a.u.  Excitation energy = 5.3231 eV.
 R0^2 = 0.0003  R1^2 = 0.7987  R2^2 = 0.2013  Res^2 = 3.14e-06
 Conv-d = yes

 Amplitude    Transitions between orbitals
  0.5508       74 (A) A                  ->    76 (A) A                   
  0.4739       71 (A) B                  ->    73 (A) B                   
 -0.2895       71 (A) A                  ->    75 (A) A                   
  0.2299       70 (A) B                  ->    75 (A) B                   
  0.1981       69 (A) B                  ->    74 (A) B                   
 -0.1833       72 (A) B                  ->    76 (A) B                   
 -0.1238       71 (A) B                  ->    78 (A) B                   

              Summary of significant orbitals:

               Number  Type             Irrep      Energy
               73      Occ  Alpha      71 (A)     -0.2641
               74      Occ  Alpha      74 (A)     -0.1396
               69      Occ  Beta       69 (A)     -0.2839
               71      Occ  Beta       70 (A)     -0.2523
               70      Occ  Beta       71 (A)     -0.2457
               72      Occ  Beta       72 (A)     -0.2094
               75      Vir  Alpha      75 (A)      0.1859
               77      Vir  Alpha      76 (A)      0.2331
               73      Vir  Beta       73 (A)      0.1133
               75      Vir  Beta       74 (A)      0.1658
               74      Vir  Beta       75 (A)      0.2167
               76      Vir  Beta       76 (A)      0.2467
               78      Vir  Beta       78 (A)      0.3250


 EOMEE transition 17/A
 Total energy = -832.05204975 a.u.  Excitation energy = 5.4378 eV.
 R0^2 = 0.0017  R1^2 = 0.6924  R2^2 = 0.3076  Res^2 = 9.29e-06
 Conv-d = yes

 Amplitude    Transitions between orbitals
  0.3645       74 (A) A                  ->    76 (A) A                   
  0.3542       71 (A) B                  ->    73 (A) B                   
  0.3195       72 (A) B                  ->    76 (A) B                   
 -0.3010       72 (A) A                  ->    77 (A) A                   
  0.2423       71 (A) A                  ->    75 (A) A                   
  0.2123       73 (A) A                  ->    78 (A) A                   
 -0.1561       70 (A) B                  ->    75 (A) B                   
 -0.1514       69 (A) A                  ->    76 (A) A                   
  0.1112       71 (A) B                  ->    78 (A) B                   
 -0.1017       69 (A) B                  ->    77 (A) B                   
 -0.1000       70 (A) A                  ->    78 (A) A                   

              Summary of significant orbitals:

               Number  Type             Irrep      Energy
               69      Occ  Alpha      69 (A)     -0.3315
               70      Occ  Alpha      70 (A)     -0.3146
               73      Occ  Alpha      71 (A)     -0.2641
               71      Occ  Alpha      72 (A)     -0.2388
               72      Occ  Alpha      73 (A)     -0.1952
               74      Occ  Alpha      74 (A)     -0.1396
               69      Occ  Beta       69 (A)     -0.2839
               71      Occ  Beta       70 (A)     -0.2523
               70      Occ  Beta       71 (A)     -0.2457
               72      Occ  Beta       72 (A)     -0.2094
               75      Vir  Alpha      75 (A)      0.1859
               77      Vir  Alpha      76 (A)      0.2331
               76      Vir  Alpha      77 (A)      0.2347
               78      Vir  Alpha      78 (A)      0.2776
               73      Vir  Beta       73 (A)      0.1133
               74      Vir  Beta       75 (A)      0.2167
               76      Vir  Beta       76 (A)      0.2467
               77      Vir  Beta       77 (A)      0.3051
               78      Vir  Beta       78 (A)      0.3250


 EOMEE transition 18/A
 Total energy = -832.04452160 a.u.  Excitation energy = 5.6426 eV.
 R0^2 = 0.0000  R1^2 = 0.8072  R2^2 = 0.1928  Res^2 = 7.99e-07
 Conv-d = yes

 Amplitude    Transitions between orbitals
  0.5785       72 (A) B                  ->    74 (A) B                   
  0.5464       73 (A) A                  ->    75 (A) A                   
  0.1751       72 (A) B                  ->    81 (A) B                   
  0.1350       72 (A) A                  ->    76 (A) A                   
 -0.1302       72 (A) B                  ->    77 (A) B                   
  0.1159       67 (A) B                  ->    75 (A) B                   
  0.1075       68 (A) B                  ->    74 (A) B                   
  0.1049       73 (A) A                  ->    79 (A) A                   
  0.1014       70 (A) A                  ->    75 (A) A                   

              Summary of significant orbitals:

               Number  Type             Irrep      Energy
               70      Occ  Alpha      70 (A)     -0.3146
               71      Occ  Alpha      72 (A)     -0.2388
               72      Occ  Alpha      73 (A)     -0.1952
               67      Occ  Beta       67 (A)     -0.3341
               68      Occ  Beta       68 (A)     -0.3211
               72      Occ  Beta       72 (A)     -0.2094
               75      Vir  Alpha      75 (A)      0.1859
               77      Vir  Alpha      76 (A)      0.2331
               79      Vir  Alpha      79 (A)      0.3199
               75      Vir  Beta       74 (A)      0.1658
               74      Vir  Beta       75 (A)      0.2167
               77      Vir  Beta       77 (A)      0.3051
               81      Vir  Beta       81 (A)      0.4256


 EOMEE transition 19/A
 Total energy = -832.04279932 a.u.  Excitation energy = 5.6895 eV.
 R0^2 = 0.0000  R1^2 = 0.5830  R2^2 = 0.4170  Res^2 = 9.42e-06
 Conv-d = yes

 Amplitude    Transitions between orbitals
  0.2931       71 (A) B                  ->    76 (A) B                   
  0.2800       71 (A) A                  ->    76 (A) A                   
 -0.2654       69 (A) A                  ->    75 (A) A                   
  0.2434       72 (A) B                  ->    78 (A) B                   
  0.2109       69 (A) B                  ->    75 (A) B                   
  0.1894       72 (A) A                  ->    78 (A) A                   
  0.1569       70 (A) B                  ->    77 (A) B                   
  0.1534       70 (A) A                  ->    77 (A) A                   
  0.1365       70 (A) B                  ->    74 (A) B                   
 -0.1276       73 (A) A                  ->    77 (A) A                   
  0.1139       66 (A) B                  ->    74 (A) B                   
 -0.2161       74 (A) A      71 (A) B    ->    75 (A) A      73 (A) B     
  0.2161       74 (A) A      71 (A) B    ->    73 (A) B      75 (A) A     
  0.2161       71 (A) B      74 (A) A    ->    75 (A) A      73 (A) B     
 -0.2161       71 (A) B      74 (A) A    ->    73 (A) B      75 (A) A     
 -0.2042       74 (A) A      72 (A) B    ->    76 (A) A      73 (A) B     
  0.2042       74 (A) A      72 (A) B    ->    73 (A) B      76 (A) A     
  0.2042       72 (A) B      74 (A) A    ->    76 (A) A      73 (A) B     
 -0.2042       72 (A) B      74 (A) A    ->    73 (A) B      76 (A) A     
  0.1106       74 (A) A      69 (A) B    ->    77 (A) A      73 (A) B     
 -0.1106       74 (A) A      69 (A) B    ->    73 (A) B      77 (A) A     
 -0.1106       69 (A) B      74 (A) A    ->    77 (A) A      73 (A) B     
  0.1106       69 (A) B      74 (A) A    ->    73 (A) B      77 (A) A     
  0.1062       74 (A) A      70 (A) B    ->    78 (A) A      73 (A) B     
 -0.1062       74 (A) A      70 (A) B    ->    73 (A) B      78 (A) A     
 -0.1062       70 (A) B      74 (A) A    ->    78 (A) A      73 (A) B     
  0.1062       70 (A) B      74 (A) A    ->    73 (A) B      78 (A) A     
 -0.1043       74 (A) A      67 (A) B    ->    79 (A) A      73 (A) B     
  0.1043       74 (A) A      67 (A) B    ->    73 (A) B      79 (A) A     
  0.1043       67 (A) B      74 (A) A    ->    79 (A) A      73 (A) B     
 -0.1043       67 (A) B      74 (A) A    ->    73 (A) B      79 (A) A     

              Summary of significant orbitals:

               Number  Type             Irrep      Energy
               69      Occ  Alpha      69 (A)     -0.3315
               70      Occ  Alpha      70 (A)     -0.3146
               73      Occ  Alpha      71 (A)     -0.2641
               71      Occ  Alpha      72 (A)     -0.2388
               72      Occ  Alpha      73 (A)     -0.1952
               74      Occ  Alpha      74 (A)     -0.1396
               66      Occ  Beta       66 (A)     -0.3827
               67      Occ  Beta       67 (A)     -0.3341
               69      Occ  Beta       69 (A)     -0.2839
               71      Occ  Beta       70 (A)     -0.2523
               70      Occ  Beta       71 (A)     -0.2457
               72      Occ  Beta       72 (A)     -0.2094
               75      Vir  Alpha      75 (A)      0.1859
               77      Vir  Alpha      76 (A)      0.2331
               76      Vir  Alpha      77 (A)      0.2347
               78      Vir  Alpha      78 (A)      0.2776
               79      Vir  Alpha      79 (A)      0.3199
               73      Vir  Beta       73 (A)      0.1133
               75      Vir  Beta       74 (A)      0.1658
               74      Vir  Beta       75 (A)      0.2167
               76      Vir  Beta       76 (A)      0.2467
               77      Vir  Beta       77 (A)      0.3051
               78      Vir  Beta       78 (A)      0.3250


 EOMEE transition 20/A
 Total energy = -832.04052106 a.u.  Excitation energy = 5.7515 eV.
 R0^2 = 0.0000  R1^2 = 0.6010  R2^2 = 0.3990  Res^2 = 8.98e-06
 Conv-d = yes

 Amplitude    Transitions between orbitals
  0.3102       73 (A) A                  ->    75 (A) A                   
  0.2739       63 (A) A                  ->    75 (A) A                   
 -0.2597       68 (A) B                  ->    74 (A) B                   
  0.2100       72 (A) B                  ->    74 (A) B                   
 -0.1932       67 (A) B                  ->    75 (A) B                   
 -0.1920       73 (A) A                  ->    79 (A) A                   
 -0.1773       72 (A) A                  ->    80 (A) A                   
 -0.1695       72 (A) B                  ->    81 (A) B                   
 -0.1584       69 (A) B                  ->    76 (A) B                   
 -0.1526       71 (A) B                  ->    75 (A) B                   
  0.1381       70 (A) B                  ->    78 (A) B                   
 -0.1264       71 (A) B                  ->    79 (A) B                   
 -0.1112       68 (A) A                  ->    76 (A) A                   
 -0.1105       71 (A) A                  ->    78 (A) A                   
 -0.1094       69 (A) A                  ->    77 (A) A                   

              Summary of significant orbitals:

               Number  Type             Irrep      Energy
               63      Occ  Alpha      63 (A)     -0.4224
               68      Occ  Alpha      68 (A)     -0.3439
               69      Occ  Alpha      69 (A)     -0.3315
               73      Occ  Alpha      71 (A)     -0.2641
               71      Occ  Alpha      72 (A)     -0.2388
               72      Occ  Alpha      73 (A)     -0.1952
               67      Occ  Beta       67 (A)     -0.3341
               68      Occ  Beta       68 (A)     -0.3211
               69      Occ  Beta       69 (A)     -0.2839
               71      Occ  Beta       70 (A)     -0.2523
               70      Occ  Beta       71 (A)     -0.2457
               72      Occ  Beta       72 (A)     -0.2094
               75      Vir  Alpha      75 (A)      0.1859
               77      Vir  Alpha      76 (A)      0.2331
               76      Vir  Alpha      77 (A)      0.2347
               78      Vir  Alpha      78 (A)      0.2776
               79      Vir  Alpha      79 (A)      0.3199
               80      Vir  Alpha      80 (A)      0.3388
               75      Vir  Beta       74 (A)      0.1658
               74      Vir  Beta       75 (A)      0.2167
               76      Vir  Beta       76 (A)      0.2467
               78      Vir  Beta       78 (A)      0.3250
               79      Vir  Beta       79 (A)      0.3436
               81      Vir  Beta       81 (A)      0.4256


Running a double precision version
      EOM-CCSD/MP2 left amplitudes will be solved using Davidson.
        Amplitudes will be solved using MOM  algorithm.
     Hard-coded thresholds: 
     LinDepThresh=1.00e-15  NormThresh=1.00e-06  ReorthogonThresh=1.00e-02

      Roots     MaxVec    MaxIter   Precond   Conv      Shift    
      20        120       60        1         1.00e-05  0.00e+00  
 ------------------------------------------------------------------------------
      Iter ConvRoots NVecs ResNorm^2 Current eigenvalues (eV)
 ------------------------------------------------------------------------------
      0    0      20    9.44e-03   1.9225   2.5739   2.9094   3.2926   3.8587   4.1796   4.3521   4.4556   4.5157   4.6011   4.6623   4.7678   4.8078   4.8391   5.3197   5.3231   5.4378   5.6426   5.6895   5.7515   
      1    0      40    2.09e-03   1.9225   2.5739   2.9093   3.2926   3.8589   4.1794   4.3524   4.4557   4.5153   4.6012   4.6615   4.7668   4.8075   4.8389   5.3198   5.3230   5.4381   5.6427   5.6893   5.7514   
      2    0      60    3.06e-04   1.9224   2.5738   2.9093   3.2926   3.8588   4.1793   4.3521   4.4557   4.5153   4.6011   4.6617   4.7671   4.8078   4.8390   5.3199   5.3227   5.4381   5.6427   5.6892   5.7515   
      3    0      80    6.79e-05   1.9224   2.5737   2.9092   3.2926   3.8588   4.1793   4.3521   4.4557   4.5152   4.6012   4.6616   4.7669   4.8076   4.8390   5.3198   5.3228   5.4381   5.6426   5.6890   5.7513   
      4    6      100   1.65e-05   1.9224*  2.5737   2.9092   3.2925   3.8588*  4.1793*  4.3521*  4.4557   4.5152   4.6012   4.6616*  4.7669   4.8076   4.8390*  5.3198   5.3228   5.4381   5.6427   5.6890   5.7514   
      5    19     114   6.47e-06   1.9224*  2.5737*  2.9092*  3.2926*  3.8588*  4.1793*  4.3521*  4.4557*  4.5152*  4.6012*  4.6616*  4.7668*  4.8076*  4.8390*  5.3198*  5.3228*  5.4381*  5.6426*  5.6888   5.7513*  
      6    19     115   6.35e-06   1.9224*  2.5737*  2.9092*  3.2926*  3.8588*  4.1793*  4.3521*  4.4557*  4.5152*  4.6012*  4.6616*  4.7668*  4.8076*  4.8390*  5.3198*  5.3228*  5.4381*  5.6426*  5.6886   5.7513*  
      7    20     116   6.11e-06   1.9224*  2.5737*  2.9092*  3.2926*  3.8588*  4.1793*  4.3521*  4.4557*  4.5152*  4.6012*  4.6616*  4.7668*  4.8076*  4.8390*  5.3198*  5.3228*  5.4381*  5.6426*  5.6885*  5.7513*  

     Davidson procedure converged

 EOMEE-CCSD transition 1/A
S^2 calculation will be performed in  double precision
 EOMEE-CCSD transition 2/A
S^2 calculation will be performed in  double precision
 EOMEE-CCSD transition 3/A
S^2 calculation will be performed in  double precision
 EOMEE-CCSD transition 4/A
S^2 calculation will be performed in  double precision
 EOMEE-CCSD transition 5/A
S^2 calculation will be performed in  double precision
 EOMEE-CCSD transition 6/A
S^2 calculation will be performed in  double precision
 EOMEE-CCSD transition 7/A
S^2 calculation will be performed in  double precision
 EOMEE-CCSD transition 8/A
S^2 calculation will be performed in  double precision
 EOMEE-CCSD transition 9/A
S^2 calculation will be performed in  double precision
 EOMEE-CCSD transition 10/A
S^2 calculation will be performed in  double precision
 EOMEE-CCSD transition 11/A
S^2 calculation will be performed in  double precision
 EOMEE-CCSD transition 12/A
S^2 calculation will be performed in  double precision
 EOMEE-CCSD transition 13/A
S^2 calculation will be performed in  double precision
 EOMEE-CCSD transition 14/A
S^2 calculation will be performed in  double precision
 EOMEE-CCSD transition 15/A
S^2 calculation will be performed in  double precision
 EOMEE-CCSD transition 16/A
S^2 calculation will be performed in  double precision
 EOMEE-CCSD transition 17/A
S^2 calculation will be performed in  double precision
 EOMEE-CCSD transition 18/A
S^2 calculation will be performed in  double precision
 EOMEE-CCSD transition 19/A
S^2 calculation will be performed in  double precision
 EOMEE-CCSD transition 20/A
S^2 calculation will be performed in  double precision
 Excited state properties for  EOMEE-CCSD transition 1/A
 Dipole moment (a.u.): 0.000052 (X 0.000001, Y 0.000000, Z 0.000052)
 R-squared (a.u.): 9271.001733 (XX 8310.212223, YY 870.701852, ZZ 90.087659)
 Gauge origin (a.u.): (0.000000, 0.000000, 0.000000)
 Angular momentum (a.u.) against gauge origin: 
 (X 0.000001i, Y 0.000000i, Z 0.000000i)
 Traces of the OPDMs: Tr(AA) 74.000000, Tr(BB) 72.000000
 <S^2> = 2.058697
 Density matrix was written to a file for further analysis.

 Excited state properties for  EOMEE-CCSD transition 2/A
 Dipole moment (a.u.): 0.000049 (X 0.000000, Y 0.000000, Z 0.000049)
 R-squared (a.u.): 9271.418844 (XX 8310.486814, YY 870.904967, ZZ 90.027064)
 Gauge origin (a.u.): (0.000000, 0.000000, 0.000000)
 Angular momentum (a.u.) against gauge origin: 
 (X 0.000001i, Y 0.000000i, Z 0.000000i)
 Traces of the OPDMs: Tr(AA) 74.000000, Tr(BB) 72.000000
 <S^2> = 2.251634

 Excited state properties for  EOMEE-CCSD transition 3/A
 Dipole moment (a.u.): 0.000056 (X 0.000002, Y 0.000000, Z 0.000056)
 R-squared (a.u.): 9270.918867 (XX 8310.126722, YY 870.766386, ZZ 90.025759)
 Gauge origin (a.u.): (0.000000, 0.000000, 0.000000)
 Angular momentum (a.u.) against gauge origin: 
 (X -0.000004i, Y 0.000000i, Z 0.000000i)
 Traces of the OPDMs: Tr(AA) 74.000000, Tr(BB) 72.000000
 <S^2> = 2.093252

 Excited state properties for  EOMEE-CCSD transition 4/A
 Dipole moment (a.u.): 0.000051 (X 0.000000, Y 0.000001, Z 0.000051)
 R-squared (a.u.): 9271.236561 (XX 8310.383629, YY 870.879094, ZZ 89.973837)
 Gauge origin (a.u.): (0.000000, 0.000000, 0.000000)
 Angular momentum (a.u.) against gauge origin: 
 (X 0.000001i, Y 0.000000i, Z 0.000000i)
 Traces of the OPDMs: Tr(AA) 74.000000, Tr(BB) 72.000000
 <S^2> = 2.919771

 Excited state properties for  EOMEE-CCSD transition 5/A
 Dipole moment (a.u.): 0.000074 (X 0.000001, Y 0.000000, Z 0.000074)
 R-squared (a.u.): 9268.903622 (XX 8307.736301, YY 871.131592, ZZ 90.035729)
 Gauge origin (a.u.): (0.000000, 0.000000, 0.000000)
 Angular momentum (a.u.) against gauge origin: 
 (X 0.000001i, Y 0.000000i, Z 0.000000i)
 Traces of the OPDMs: Tr(AA) 74.000000, Tr(BB) 72.000000
 <S^2> = 2.487376

 Excited state properties for  EOMEE-CCSD transition 6/A
 Dipole moment (a.u.): 0.000034 (X -0.000002, Y 0.000001, Z 0.000034)
 R-squared (a.u.): 9273.181574 (XX 8312.346083, YY 870.723002, ZZ 90.112490)
 Gauge origin (a.u.): (0.000000, 0.000000, 0.000000)
 Angular momentum (a.u.) against gauge origin: 
 (X 0.000000i, Y 0.000000i, Z 0.000000i)
 Traces of the OPDMs: Tr(AA) 74.000000, Tr(BB) 72.000000
 <S^2> = 2.067456

 Excited state properties for  EOMEE-CCSD transition 7/A
 Dipole moment (a.u.): 0.000083 (X -0.000001, Y 0.000000, Z 0.000083)
 R-squared (a.u.): 9267.818509 (XX 8306.625428, YY 871.201616, ZZ 89.991465)
 Gauge origin (a.u.): (0.000000, 0.000000, 0.000000)
 Angular momentum (a.u.) against gauge origin: 
 (X 0.000001i, Y 0.000000i, Z 0.000000i)
 Traces of the OPDMs: Tr(AA) 74.000000, Tr(BB) 72.000000
 <S^2> = 3.001817

 Excited state properties for  EOMEE-CCSD transition 8/A
 Dipole moment (a.u.): 0.000046 (X -0.000006, Y 0.000000, Z 0.000046)
 R-squared (a.u.): 9271.931317 (XX 8311.178325, YY 870.817930, ZZ 89.935062)
 Gauge origin (a.u.): (0.000000, 0.000000, 0.000000)
 Angular momentum (a.u.) against gauge origin: 
 (X 0.000000i, Y 0.000000i, Z 0.000000i)
 Traces of the OPDMs: Tr(AA) 74.000000, Tr(BB) 72.000000
 <S^2> = 3.655452

 Excited state properties for  EOMEE-CCSD transition 9/A
 Dipole moment (a.u.): 0.000055 (X 0.000000, Y -0.000006, Z 0.000055)
 R-squared (a.u.): 9270.845186 (XX 8309.753671, YY 871.123233, ZZ 89.968282)
 Gauge origin (a.u.): (0.000000, 0.000000, 0.000000)
 Angular momentum (a.u.) against gauge origin: 
 (X 0.000001i, Y 0.000000i, Z 0.000000i)
 Traces of the OPDMs: Tr(AA) 74.000000, Tr(BB) 72.000000
 <S^2> = 2.170130

 Excited state properties for  EOMEE-CCSD transition 10/A
 Dipole moment (a.u.): 0.000032 (X 0.000007, Y 0.000008, Z 0.000030)
 R-squared (a.u.): 9273.347264 (XX 8312.700708, YY 870.562165, ZZ 90.084391)
 Gauge origin (a.u.): (0.000000, 0.000000, 0.000000)
 Angular momentum (a.u.) against gauge origin: 
 (X 0.000000i, Y 0.000000i, Z 0.000000i)
 Traces of the OPDMs: Tr(AA) 74.000000, Tr(BB) 72.000000
 <S^2> = 2.068741

 Excited state properties for  EOMEE-CCSD transition 11/A
 Dipole moment (a.u.): 0.000102 (X 0.000016, Y 0.000000, Z 0.000101)
 R-squared (a.u.): 9265.745540 (XX 8304.906481, YY 870.851197, ZZ 89.987862)
 Gauge origin (a.u.): (0.000000, 0.000000, 0.000000)
 Angular momentum (a.u.) against gauge origin: 
 (X 0.000002i, Y 0.000000i, Z 0.000000i)
 Traces of the OPDMs: Tr(AA) 74.000000, Tr(BB) 72.000000
 <S^2> = 2.265060

 Excited state properties for  EOMEE-CCSD transition 12/A
 Dipole moment (a.u.): 0.000082 (X -0.000013, Y -0.000004, Z 0.000081)
 R-squared (a.u.): 9268.277298 (XX 8307.407567, YY 870.891114, ZZ 89.978617)
 Gauge origin (a.u.): (0.000000, 0.000000, 0.000000)
 Angular momentum (a.u.) against gauge origin: 
 (X 0.000002i, Y 0.000000i, Z 0.000000i)
 Traces of the OPDMs: Tr(AA) 74.000000, Tr(BB) 72.000000
 <S^2> = 2.334651

 Excited state properties for  EOMEE-CCSD transition 13/A
 Dipole moment (a.u.): 0.000044 (X -0.000001, Y 0.000005, Z 0.000044)
 R-squared (a.u.): 9272.272755 (XX 8311.536621, YY 870.813140, ZZ 89.922994)
 Gauge origin (a.u.): (0.000000, 0.000000, 0.000000)
 Angular momentum (a.u.) against gauge origin: 
 (X 0.000001i, Y 0.000000i, Z 0.000000i)
 Traces of the OPDMs: Tr(AA) 74.000000, Tr(BB) 72.000000
 <S^2> = 3.299901

 Excited state properties for  EOMEE-CCSD transition 14/A
 Dipole moment (a.u.): 0.000062 (X -0.000001, Y 0.000000, Z 0.000062)
 R-squared (a.u.): 9270.018848 (XX 8309.010737, YY 871.077005, ZZ 89.931106)
 Gauge origin (a.u.): (0.000000, 0.000000, 0.000000)
 Angular momentum (a.u.) against gauge origin: 
 (X 0.000001i, Y 0.000000i, Z 0.000000i)
 Traces of the OPDMs: Tr(AA) 74.000000, Tr(BB) 72.000000
 <S^2> = 2.104862

 Excited state properties for  EOMEE-CCSD transition 15/A
 Dipole moment (a.u.): 0.000149 (X 0.000005, Y -0.000138, Z 0.000056)
 R-squared (a.u.): 9270.625325 (XX 8309.901340, YY 870.782717, ZZ 89.941267)
 Gauge origin (a.u.): (0.000000, 0.000000, 0.000000)
 Angular momentum (a.u.) against gauge origin: 
 (X 0.000001i, Y 0.000000i, Z 0.000000i)
 Traces of the OPDMs: Tr(AA) 74.000000, Tr(BB) 72.000000
 <S^2> = 4.337655

 Excited state properties for  EOMEE-CCSD transition 16/A
 Dipole moment (a.u.): 0.000154 (X -0.000001, Y 0.000137, Z 0.000070)
 R-squared (a.u.): 9269.501829 (XX 8308.100396, YY 871.378607, ZZ 90.022826)
 Gauge origin (a.u.): (0.000000, 0.000000, 0.000000)
 Angular momentum (a.u.) against gauge origin: 
 (X 0.000000i, Y 0.000000i, Z 0.000000i)
 Traces of the OPDMs: Tr(AA) 74.000000, Tr(BB) 72.000000
 <S^2> = 2.548405

[...]
 <Sz=0.00|(0.000906,-0.000019)(0.000000,0.000000)(-0.000906,-0.000019)
 <Sz=1.00|(-0.000000,0.000000)(0.000906,-0.000019)(0.000000,0.000001)
 _________________________________________________
 Mean-field SO (cm-1)
 Reduced matrix elements:
 <S|| Hso(L-) ||S'> = (-0.001053,0.000019)
 <S|| Hso(L0) ||S'> = (0.000000,0.000001)
 <S|| Hso(L+) ||S'> = (-0.001035,-0.000020)
 SOCC = 0.001477
 Actual matrix elements:
       |Sz=-1.00>           |Sz=0.00>           |Sz=1.00>
 <Sz=-1.00|(0.000000,-0.000000)(-0.000738,-0.000014)(-0.000000,-0.000000)
 <Sz=0.00|(0.000738,-0.000014)(0.000000,0.000000)(-0.000738,-0.000014)
 <Sz=1.00|(-0.000000,0.000000)(0.000738,-0.000014)(0.000000,0.000000)
 Singlet part of <S|| Hso(L0) ||S'> = (-0.000000,0.000000) (excluded from all matrix elements)
 L-/L+ Averaged reduced matrix elements:
 <S|| Hso(L-) ||S'> = (-0.001044,0.000019)
 <S|| Hso(L+) ||S'> = (-0.001044,-0.000019)
 ______________________________________________________________
   Arithmetically averaged transition SO matrices
   (The phases shown, Ket and Bra assingment are from A(Ket)->B(Bra))
 _________________________________________________
 One-electron SO (cm-1)
 SOCC = 0.001556
 Actual matrix elements:
       |Sz=-1.00>           |Sz=0.00>           |Sz=1.00>
 <Sz=-1.00|(0.000000,0.000001)(0.000778,0.000015)(0.000000,0.000000)
 <Sz=0.00|(-0.000778,0.000015)(0.000000,-0.000000)(0.000778,0.000015)
 <Sz=1.00|(-0.000000,0.000000)(-0.000778,0.000015)(0.000000,-0.000001)
 _________________________________________________
 Mean-field SO (cm-1)
 SOCC = 0.001335
 Actual matrix elements:
       |Sz=-1.00>           |Sz=0.00>           |Sz=1.00>
 <Sz=-1.00|(0.000000,0.000000)(0.000668,0.000011)(0.000000,0.000000)
 <Sz=0.00|(-0.000668,0.000011)(0.000000,-0.000000)(0.000668,0.000011)
 <Sz=1.00|(-0.000000,0.000000)(-0.000668,0.000011)(0.000000,-0.000000)
 ______________________________________________________________

 ------------------------------------------------------------------------------
 State A: eomee_mp2/uhfref: 1/A
 State B: eomee_mp2/uhfref: 19/A
 Energy GAP = 0.138434 a.u. = 3.766980 eV
 Transition dipole moment (a.u.):
   A->B: 0.000004 (X 0.000000, Y 0.000002, Z 0.000004)
   B->A: 0.000005 (X 0.000000, Y 0.000003, Z 0.000003)
 Oscillator strength (a.u.): 0.000000
 Transition angular momentum against gauge origin (a.u.):
   A->B:  (X -0.000008i, Y 0.000000i, Z 0.000001i)
   B->A:  (X 0.000008i, Y 0.000000i, Z 0.000000i)
 Norm of one-particle transition density matrix:
   A->B: 0.351445;   B->A: 0.348063
   ||gamma^AB||*||gamma^BA||: 0.122325

 ______________________________________________________________
 A(Ket)->B(Bra) transition SO matrices
Full 2e SOC is not implemented withing libqints. 
I will do mean-field SOC with libqints, which is usually as good as full 2e SOC
 Analysing Sz ans S^2 of the pair of states...
 Ket state:  Computed S^2 = 2.058697 will be treated as 2.000000 Sz = 1.000000
WARNING! The deviation of S^2 from the correct value is large, indicating a significant spin contamination. The results may be unreliable
 Bra state:  Computed S^2 = 3.316981 will be treated as 2.000000 Sz = 1.000000
 Clebsh-Gordan coefficient: <1.000,1.000;1.000,0.000|1.000,1.000> = 0.707
 _________________________________________________
 One-electron SO (cm-1)
 Reduced matrix elements:
 <S|| Hso(L-) ||S'> = (0.000006,-0.000198)
 <S|| Hso(L0) ||S'> = (0.000000,-0.000001)
 <S|| Hso(L+) ||S'> = (0.000006,0.000198)
 SOCC = 0.000280
 Actual matrix elements:
       |Sz=-1.00>           |Sz=0.00>           |Sz=1.00>
 <Sz=-1.00|(-0.000000,0.000001)(0.000004,0.000140)(0.000000,0.000000)
 <Sz=0.00|(-0.000004,0.000140)(-0.000000,-0.000000)(0.000004,0.000140)
 <Sz=1.00|(0.000000,-0.000000)(-0.000004,0.000140)(-0.000000,-0.000001)
 _________________________________________________
 Mean-field SO (cm-1)
 Reduced matrix elements:
 <S|| Hso(L-) ||S'> = (0.000003,-0.000093)
 <S|| Hso(L0) ||S'> = (0.000000,-0.000000)
 <S|| Hso(L+) ||S'> = (0.000003,0.000093)
 SOCC = 0.000132
 Actual matrix elements:
       |Sz=-1.00>           |Sz=0.00>           |Sz=1.00>
 <Sz=-1.00|(-0.000000,0.000000)(0.000002,0.000066)(0.000000,0.000000)
 <Sz=0.00|(-0.000002,0.000066)(-0.000000,-0.000000)(0.000002,0.000066)
 <Sz=1.00|(0.000000,-0.000000)(-0.000002,0.000066)(-0.000000,-0.000000)
 Singlet part of <S|| Hso(L0) ||S'> = (-0.000000,-0.000000) (excluded from all matrix elements)
 L-/L+ Averaged reduced matrix elements:
 <S|| Hso(L-) ||S'> = (0.000003,-0.000093)
 <S|| Hso(L+) ||S'> = (0.000003,0.000093)
 ______________________________________________________________
 B(Ket)->A(Bra) transition SO matrices
Full 2e SOC is not implemented withing libqints. 
I will do mean-field SOC with libqints, which is usually as good as full 2e SOC
 Analysing Sz ans S^2 of the pair of states...
WARNING! The deviation of S^2 from the correct value is large, indicating a significant spin contamination. The results may be unreliable
 Ket state:  Computed S^2 = 3.316981 will be treated as 2.000000 Sz = 1.000000
 Bra state:  Computed S^2 = 2.058697 will be treated as 2.000000 Sz = 1.000000
 Clebsh-Gordan coefficient: <1.000,1.000;1.000,0.000|1.000,1.000> = 0.707
 _________________________________________________
 One-electron SO (cm-1)
 Reduced matrix elements:
 <S|| Hso(L-) ||S'> = (-0.000005,0.000166)
 <S|| Hso(L0) ||S'> = (0.000000,0.000001)
 <S|| Hso(L+) ||S'> = (-0.000005,-0.000166)
 SOCC = 0.000235
 Actual matrix elements:
       |Sz=-1.00>           |Sz=0.00>           |Sz=1.00>
 <Sz=-1.00|(0.000000,-0.000001)(-0.000003,-0.000117)(-0.000000,-0.000000)
 <Sz=0.00|(0.000003,-0.000117)(0.000000,0.000000)(-0.000003,-0.000117)
 <Sz=1.00|(-0.000000,0.000000)(0.000003,-0.000117)(0.000000,0.000001)
 _________________________________________________
 Mean-field SO (cm-1)
 Reduced matrix elements:
 <S|| Hso(L-) ||S'> = (-0.000003,0.000080)
 <S|| Hso(L0) ||S'> = (0.000000,0.000000)
 <S|| Hso(L+) ||S'> = (-0.000003,-0.000080)
 SOCC = 0.000113
 Actual matrix elements:
       |Sz=-1.00>           |Sz=0.00>           |Sz=1.00>
 <Sz=-1.00|(0.000000,-0.000000)(-0.000002,-0.000057)(-0.000000,-0.000000)
 <Sz=0.00|(0.000002,-0.000057)(0.000000,0.000000)(-0.000002,-0.000057)
 <Sz=1.00|(-0.000000,0.000000)(0.000002,-0.000057)(0.000000,0.000000)
 Singlet part of <S|| Hso(L0) ||S'> = (-0.000000,0.000000) (excluded from all matrix elements)
 L-/L+ Averaged reduced matrix elements:
 <S|| Hso(L-) ||S'> = (-0.000003,0.000080)
 <S|| Hso(L+) ||S'> = (-0.000003,-0.000080)
 ______________________________________________________________
   Arithmetically averaged transition SO matrices
   (The phases shown, Ket and Bra assingment are from A(Ket)->B(Bra))
 _________________________________________________
 One-electron SO (cm-1)
 SOCC = 0.000257
 Actual matrix elements:
       |Sz=-1.00>           |Sz=0.00>           |Sz=1.00>
 <Sz=-1.00|(-0.000000,0.000001)(0.000004,0.000129)(0.000000,0.000000)
 <Sz=0.00|(-0.000004,0.000129)(-0.000000,-0.000000)(0.000004,0.000129)
 <Sz=1.00|(-0.000000,0.000000)(-0.000004,0.000129)(-0.000000,-0.000001)
 _________________________________________________
 Mean-field SO (cm-1)
 SOCC = 0.000123
 Actual matrix elements:
       |Sz=-1.00>           |Sz=0.00>           |Sz=1.00>
 <Sz=-1.00|(-0.000000,0.000000)(0.000002,0.000061)(0.000000,0.000000)
 <Sz=0.00|(-0.000002,0.000061)(-0.000000,-0.000000)(0.000002,0.000061)
 <Sz=1.00|(-0.000000,0.000000)(-0.000002,0.000061)(-0.000000,-0.000000)
 ______________________________________________________________

 ------------------------------------------------------------------------------
 State A: eomee_mp2/uhfref: 1/A
 State B: eomee_mp2/uhfref: 20/A
 Energy GAP = 0.140712 a.u. = 3.828974 eV
 Transition dipole moment (a.u.):
   A->B: 0.409890 (X 0.000002, Y 0.409890, Z 0.000040)
   B->A: 0.417954 (X 0.000002, Y 0.417954, Z 0.000043)
 Oscillator strength (a.u.): 0.016071
 Transition angular momentum against gauge origin (a.u.):
   A->B:  (X 0.000003i, Y -0.000762i, Z 0.000000i)
   B->A:  (X -0.000005i, Y 0.000267i, Z 0.000000i)
 Norm of one-particle transition density matrix:
   A->B: 0.446517;   B->A: 0.451900
   ||gamma^AB||*||gamma^BA||: 0.201781

 ______________________________________________________________
 A(Ket)->B(Bra) transition SO matrices
Full 2e SOC is not implemented withing libqints. 
I will do mean-field SOC with libqints, which is usually as good as full 2e SOC
 Analysing Sz ans S^2 of the pair of states...
 Ket state:  Computed S^2 = 2.058697 will be treated as 2.000000 Sz = 1.000000
WARNING! The deviation of S^2 from the correct value is large, indicating a significant spin contamination. The results may be unreliable
 Bra state:  Computed S^2 = 4.053407 will be treated as 6.000000 Sz = 1.000000
 Clebsh-Gordan coefficient: <1.000,1.000;1.000,0.000|2.000,1.000> = 0.707
 _________________________________________________
 One-electron SO (cm-1)
 Reduced matrix elements:
 <S|| Hso(L-) ||S'> = (-0.003972,0.000002)
 <S|| Hso(L0) ||S'> = (0.000000,-0.000001)
 <S|| Hso(L+) ||S'> = (-0.003972,-0.000002)
 SOCC = 0.007251
 Actual matrix elements:
       |Sz=-1.00>           |Sz=0.00>           |Sz=1.00>
 <Sz=-2.00|(-0.003972,-0.000002)(0.000000,0.000000)(0.000000,0.000000)
 <Sz=-1.00|(-0.000000,-0.000000)(-0.002808,-0.000001)(-0.000000,-0.000000)
 <Sz=0.00|(-0.001621,0.000001)(0.000000,-0.000001)(-0.001621,-0.000001)
 <Sz=1.00|(-0.000000,0.000000)(-0.002808,0.000001)(-0.000000,-0.000000)
 <Sz=2.00|(0.000000,0.000000)(0.000000,0.000000)(-0.003972,0.000002)
 _________________________________________________
 Mean-field SO (cm-1)
 Reduced matrix elements:
 <S|| Hso(L-) ||S'> = (-0.001717,-0.000015)
 <S|| Hso(L0) ||S'> = (0.000000,-0.000000)
 <S|| Hso(L+) ||S'> = (-0.001724,0.000016)
 SOCC = 0.003141
 Actual matrix elements:
       |Sz=-1.00>           |Sz=0.00>           |Sz=1.00>
 <Sz=-2.00|(-0.001720,0.000016)(0.000000,0.000000)(0.000000,0.000000)
 <Sz=-1.00|(-0.000000,-0.000000)(-0.001216,0.000011)(-0.000000,0.000000)
 <Sz=0.00|(-0.000702,-0.000006)(0.000000,-0.000000)(-0.000702,0.000006)
 <Sz=1.00|(-0.000000,-0.000000)(-0.001216,-0.000011)(-0.000000,-0.000000)
 <Sz=2.00|(0.000000,0.000000)(0.000000,0.000000)(-0.001720,-0.000016)
 Singlet part of <S|| Hso(L0) ||S'> = (-0.000000,-0.000000) (excluded from all matrix elements)
 L-/L+ Averaged reduced matrix elements:
 <S|| Hso(L-) ||S'> = (-0.001720,-0.000016)
 <S|| Hso(L+) ||S'> = (-0.001720,0.000016)
 ______________________________________________________________
 B(Ket)->A(Bra) transition SO matrices
Full 2e SOC is not implemented withing libqints. 
I will do mean-field SOC with libqints, which is usually as good as full 2e SOC
 Analysing Sz ans S^2 of the pair of states...
WARNING! The deviation of S^2 from the correct value is large, indicating a significant spin contamination. The results may be unreliable
 Ket state:  Computed S^2 = 4.053407 will be treated as 6.000000 Sz = 1.000000
 Bra state:  Computed S^2 = 2.058697 will be treated as 2.000000 Sz = 1.000000
 Clebsh-Gordan coefficient: <2.000,1.000;1.000,0.000|1.000,1.000> = -0.548
 _________________________________________________
 One-electron SO (cm-1)
 Reduced matrix elements:
 <S|| Hso(L-) ||S'> = (-0.005189,-0.000004)
 <S|| Hso(L0) ||S'> = (0.000000,-0.000001)
 <S|| Hso(L+) ||S'> = (-0.005189,0.000004)
 SOCC = 0.007338
 Actual matrix elements:
       |Sz=-2.00>           |Sz=-1.00>           |Sz=0.00>           |Sz=1.00>           |Sz=2.00>
 <Sz=-1.00|(-0.004019,-0.000003)(0.000000,0.000000)(-0.001641,0.000001)(0.000000,-0.000000)(0.000000,0.000000)
 <Sz=0.00|(-0.000000,-0.000000)(-0.002842,-0.000002)(-0.000000,0.000000)(-0.002842,0.000002)(0.000000,0.000000)
 <Sz=1.00|(0.000000,0.000000)(0.000000,0.000000)(-0.001641,-0.000001)(0.000000,0.000000)(-0.004019,0.000003)
 _________________________________________________
 Mean-field SO (cm-1)
 Reduced matrix elements:
 <S|| Hso(L-) ||S'> = (-0.002209,-0.000024)
 <S|| Hso(L0) ||S'> = (0.000000,-0.000000)
 <S|| Hso(L+) ||S'> = (-0.002197,0.000024)
 SOCC = 0.003116
 Actual matrix elements:
       |Sz=-2.00>           |Sz=-1.00>           |Sz=0.00>           |Sz=1.00>           |Sz=2.00>
 <Sz=-1.00|(-0.001706,-0.000019)(0.000000,0.000000)(-0.000697,0.000008)(0.000000,-0.000000)(0.000000,0.000000)
 <Sz=0.00|(-0.000000,-0.000000)(-0.001207,-0.000013)(-0.000000,0.000000)(-0.001207,0.000013)(0.000000,0.000000)
 <Sz=1.00|(0.000000,0.000000)(0.000000,0.000000)(-0.000697,-0.000008)(0.000000,0.000000)(-0.001706,0.000019)
 Singlet part of <S|| Hso(L0) ||S'> = (-0.000000,0.000000) (excluded from all matrix elements)
 L-/L+ Averaged reduced matrix elements:
 <S|| Hso(L-) ||S'> = (-0.002203,-0.000024)
 <S|| Hso(L+) ||S'> = (-0.002203,0.000024)
 ______________________________________________________________
   Arithmetically averaged transition SO matrices
   (The phases shown, Ket and Bra assingment are from A(Ket)->B(Bra))
 _________________________________________________
 One-electron SO (cm-1)
 SOCC = 0.007295
 Actual matrix elements:
       |Sz=-1.00>           |Sz=0.00>           |Sz=1.00>
 <Sz=-2.00|(-0.003995,0.000000)(-0.000000,0.000000)(0.000000,0.000000)
 <Sz=-1.00|(-0.000000,-0.000000)(-0.002825,0.000000)(-0.000000,-0.000000)
 <Sz=0.00|(-0.001631,-0.000000)(0.000000,-0.000001)(-0.001631,0.000000)
 <Sz=1.00|(-0.000000,0.000000)(-0.002825,-0.000000)(-0.000000,-0.000000)
 <Sz=2.00|(0.000000,0.000000)(0.000000,0.000000)(-0.003995,-0.000000)
 _________________________________________________
 Mean-field SO (cm-1)
 SOCC = 0.003128
 Actual matrix elements:
       |Sz=-1.00>           |Sz=0.00>           |Sz=1.00>
 <Sz=-2.00|(-0.001713,0.000017)(-0.000000,0.000000)(0.000000,0.000000)
 <Sz=-1.00|(-0.000000,-0.000000)(-0.001212,0.000012)(-0.000000,0.000000)
 <Sz=0.00|(-0.000699,-0.000007)(0.000000,-0.000000)(-0.000699,0.000007)
 <Sz=1.00|(-0.000000,-0.000000)(-0.001212,-0.000012)(-0.000000,-0.000000)
 <Sz=2.00|(0.000000,0.000000)(0.000000,0.000000)(-0.001713,-0.000017)
 ______________________________________________________________


 All requested transition properties have been computed

 Transition Properties:   CPU 6275.87 s  wall 6777.01 s

 Total ccman2 time:   CPU 21791.89 s  wall 22283.29 s

 
 --------------------------------------------------------------
 
                    Orbital Energies (a.u.)
 --------------------------------------------------------------
 
 Alpha MOs
 -- Occupied --
-11.0410 -11.0410 -11.0410 -11.0409 -11.0390 -11.0390 -11.0389 -11.0389
-11.0294 -11.0294 -11.0292 -11.0292 -11.0281 -11.0281 -11.0281 -11.0281
-11.0271 -11.0271 -11.0270 -11.0270 -11.0305 -11.0305  -1.1388  -1.1186
 -1.0929  -1.0504  -1.0214  -0.9944  -0.9974  -0.9704  -0.9468  -0.9278
 -0.8787  -0.8632  -0.7866  -0.7855  -0.7703  -0.7561  -0.7565  -0.7340
 -0.6551  -0.6542  -0.6558  -0.6203  -0.6018  -0.5945  -0.5782  -0.5707
 -0.5602  -0.5389  -0.5344  -0.5283  -0.5229  -0.5191  -0.5202  -0.4976
 -0.4977  -0.4945  -0.4726  -0.4398  -0.4397  -0.4528  -0.4140  -0.4080
 -0.4019  -0.4009  -0.3760  -0.3423  -0.3101  -0.2850  -0.2642  -0.2403
 -0.2712  -0.1885
 -- Virtual --
  0.1863   0.2347   0.2344   0.2778   0.3196   0.3376   0.3966   0.4603
  0.5463   0.5624   0.5691   0.5836   0.5953   0.6126   0.6388   0.6410
  0.6424   0.6532   0.6680   0.6804   0.6971   0.7071   0.7148   0.7222
  0.7295   0.7377   0.7367   0.7556   0.7741   0.7781   0.8199   0.8293
  0.8452   0.8602   0.8843   0.9074   0.9108   0.9249   0.9495   0.9579
  1.0029   1.0049   1.0105   1.0205   1.0832   1.0867   1.1524   1.1704
  1.1892   1.2001
 
 Beta MOs
 -- Occupied --
-11.0407 -11.0407 -11.0407 -11.0406 -11.0386 -11.0386 -11.0385 -11.0385
-11.0292 -11.0292 -11.0290 -11.0290 -11.0279 -11.0279 -11.0278 -11.0278
-11.0245 -11.0245 -11.0244 -11.0244 -11.0149 -11.0149  -1.1259  -1.1145
 -1.0809  -1.0457  -1.0002  -0.9886  -0.9855  -0.9532  -0.9436  -0.9219
 -0.8524  -0.8457  -0.7829  -0.7814  -0.7636  -0.7522  -0.7394  -0.7229
 -0.6526  -0.6512  -0.6496  -0.6143  -0.5974  -0.5874  -0.5729  -0.5686
 -0.5576  -0.5363  -0.5293  -0.5266  -0.5149  -0.5154  -0.4915  -0.4933
 -0.4919  -0.4811  -0.4693  -0.4371  -0.4367  -0.4217  -0.4122  -0.4019
 -0.3974  -0.3828  -0.3327  -0.3207  -0.2843  -0.2470  -0.2523  -0.2098
 -- Virtual --
  0.1589   0.2377   0.2181   0.2468   0.2740   0.3037   0.3422   0.3849
  0.4158   0.4932   0.5607   0.5662   0.6017   0.5894   0.5962   0.6137
  0.6485   0.6475   0.6713   0.6615   0.6756   0.6834   0.7018   0.7204
  0.7187   0.7283   0.7313   0.7420   0.7522   0.7609   0.7788   0.7851
  0.8230   0.8399   0.8513   0.8634   0.8879   0.9121   0.9159   0.9304
  0.9517   0.9627   1.0095   1.0114   1.0150   1.0225   1.0868   1.0917
  1.1539   1.1720   1.1924   1.2071
 --------------------------------------------------------------
 
          Ground-State Mulliken Net Atomic Charges

     Atom                 Charge (a.u.)
  ----------------------------------------
      1 C                    -0.004015
      2 C                    -0.054845
      3 H                     0.059511
      4 C                    -0.055214
      5 H                     0.057596
      6 C                    -0.004015
      7 C                    -0.054845
      8 H                     0.059511
      9 C                    -0.002425
     10 C                    -0.060730
     11 H                     0.061604
     12 C                    -0.063766
     13 H                     0.063474
     14 C                    -0.063765
     15 H                     0.063474
     16 C                    -0.060730
     17 H                     0.061604
     18 C                    -0.002425
     19 C                    -0.002425
     20 C                    -0.060730
     21 H                     0.061604
     22 C                    -0.063765
     23 H                     0.063474
     24 C                    -0.063766
     25 H                     0.063474
     26 C                    -0.060730
     27 H                     0.061604
     28 C                    -0.002425
     29 C                    -0.054845
     30 H                     0.059511
     31 C                    -0.004015
     32 C                    -0.055215
     33 H                     0.057597
     34 C                    -0.004015
     35 C                    -0.054845
     36 H                     0.059511
  ----------------------------------------
  Sum of atomic charges =     0.000000

 -----------------------------------------------------------------
                    Cartesian Multipole Moments
 -----------------------------------------------------------------
    Charge (ESU x 10^10)
                -0.0000
    Dipole Moment (Debye)
         X       0.0000      Y       0.0000      Z       0.0001
       Tot       0.0001
    Quadrupole Moments (Debye-Ang)
        XX    -109.5878     XY       0.0000     YY    -108.5071
        XZ      -0.0000     YZ      -0.0001     ZZ    -121.1556
    Octopole Moments (Debye-Ang^2)
       XXX       0.0000    XXY      -0.0000    XYY      -0.0000
       YYY       0.0000    XXZ       0.0118    XYZ      -0.2103
       YYZ      -0.0000    XZZ       0.0000    YZZ      -0.0000
       ZZZ      -0.0003
    Hexadecapole Moments (Debye-Ang^3)
      XXXX  -10389.1091   XXXY       0.0004   XXYY   -1911.5018
      XYYY       0.0000   YYYY   -1051.8238   XXXZ      -0.0028
      XXYZ      -0.0251   XYYZ      -0.0001   YYYZ       0.0008
      XXZZ   -1950.7207   XYZZ      -0.0001   YYZZ    -215.9550
      XZZZ       0.0000   YZZZ      -0.0000   ZZZZ     -98.2312
 -----------------------------------------------------------------
 Total job time:  22331.08s(wall), 21838.46s(cpu) 
 Sat Jan 27 00:18:45 2024

        *************************************************************
        *                                                           *
        *  Thank you very much for using Q-Chem.  Have a nice day.  *
        *                                                           *
        *************************************************************


