                  Welcome to Q-Chem
     A Quantum Leap Into The Future Of Chemistry


 Q-Chem 6.0 (devel), Q-Chem, Inc., Pleasanton, CA (2022)

 E. Epifanovsky,  A. T. B. Gilbert,  Xintian Feng,  Joonho Lee,  Yuezhi Mao,  
 N. Mardirossian,  P. Pokhilko,  A. White,  M. Wormit,  M. P. Coons,  
 A. L. Dempwolff,  Zhengting Gan,  D. Hait,  P. R. Horn,  L. D. Jacobson,  
 I. Kaliman,  J. Kussmann,  A. W. Lange,  Ka Un Lao,  D. S. Levine,  Jie Liu,  
 S. C. McKenzie,  A. F. Morrison,  K. Nanda,  F. Plasser,  D. R. Rehn,  
 M. L. Vidal,  Zhi-Qiang You,  Ying Zhu,  B. Alam,  B. Albrecht,  
 A. Aldossary,  E. Alguire,  J. H. Andersen,  V. Athavale,  D. Barton,  
 K. Begam,  A. Behn,  N. Bellonzi,  Y. A. Bernard,  E. J. Berquist,  
 H. Burton,  A. Carreras,  K. Carter-Fenk,  Romit Chakraborty,  
 Chandrima Chakravarty,  Junhan Chen,  A. D. Chien,  K. D. Closser,  
 V. Cofer-Shabica,  L. Cunha,  S. Dasgupta,  Jia Deng,  M. de Wergifosse,  
 M. Diedenhofen,  Hainam Do,  S. Ehlert,  Po-Tung Fang,  S. Fatehi,  
 Qingguo Feng,  T. Friedhoff,  B. Ganoe,  J. Gayvert,  Qinghui Ge,  
 G. Gidofalvi,  M. Goldey,  J. Gomes,  C. Gonzalez-Espinoza,  S. Gulania,  
 A. Gunina,  J. A. Gyamfi,  M. W. D. Hanson-Heine,  P. H. P. Harbach,  
 A. W. Hauser,  M. F. Herbst,  M. Hernandez Vera,  M. Hodecker,  
 Z. C. Holden,  S. Houck,  Xunkun Huang,  Kerwin Hui,  B. C. Huynh,  
 K. Ikeda,  M. Ivanov,  Hyunjun Ji,  Zuxin Jin,  Hanjie Jiang,  B. Kaduk,  
 S. Kaehler,  R. Kang,  K. Khistyaev,  Jaehoon Kim,  Yongbin Kim,  
 P. Klunzinger,  Z. Koczor-Benda,  Joong Hoon Koh,  D. Kosenkov,  
 Saikiran Kotaru,  L. Koulias,  T. Kowalczyk,  C. M. Krauter,  K. Kue,  
 A. Kunitsa,  T. Kus,  A. Landau,  K. V. Lawler,  D. Lefrancois,  S. Lehtola,  
 Rain Li,  Shaozhi Li,  Yi-Pei Li,  Jiashu Liang,  M. Liebenthal,  
 Hung-Hsuan Lin,  You-Sheng Lin,  Fenglai Liu,  Kuan-Yu Liu,  
 M. Loipersberger,  A. Luenser,  C. Malbon,  A. Manjanath,  P. Manohar,  
 E. Mansoor,  S. F. Manzer,  Shan-Ping Mao,  A. V. Marenich,  T. Markovich,  
 S. Mason,  F. Matz,  S. A. Maurer,  P. F. McLaughlin,  M. F. S. J. Menger,  
 J.-M. Mewes,  S. A. Mewes,  P. Morgante,  Mohammad Mostafanejad,  
 J. W. Mullinax,  K. J. Oosterbaan,  G. Paran,  V. Parravicini,  
 Alexander C. Paul,  Suranjan K. Paul,  F. Pavosevic,  Zheng Pei,  S. Prager,  
 E. I. Proynov,  E. Ramos,  B. Rana,  A. E. Rask,  A. Rettig,  R. M. Richard,  
 F. Rob,  E. Rossomme,  T. Scheele,  M. Scheurer,  M. Schneider,  
 P. E. Schneider,  N. Sergueev,  S. M. Sharada,  Hengyuan Shen,  
 W. Skomorowski,  D. W. Small,  C. J. Stein,  Yingli Su,  Yu-Chuan Su,  
 E. J. Sundstrom,  Zhen Tao,  J. Thirman,  Hung-Yi Tsai,  T. Tsuchimochi,  
 N. M. Tubman,  C. Utku,  S. P. Veccham,  O. Vydrov,  J. Wenzel,  
 Jonathan Wong,  J. Witte,  A. Yamada,  Chou-Hsun Yang,  Kun Yao,  
 S. Yeganeh,  S. R. Yost,  A. Zech,  F. Zeller,  Igor Ying Zhang,  
 Xing Zhang,  Yu Zhang,  D. Zuev,  A. Aspuru-Guzik,  A. T. Bell,  
 N. A. Besley,  K. B. Bravaya,  B. R. Brooks,  D. Casanova,  Jeng-Da Chai,  
 Hsing-Ta Chen,  S. Coriani,  C. J. Cramer,  A. E. DePrince, III,  
 R. A. DiStasio Jr.,  A. Dreuw,  B. D. Dunietz,  T. R. Furlani,  
 W. A. Goddard III,  S. Grimme,  S. Hammes-Schiffer,  T. Head-Gordon,  
 W. J. Hehre,  Chao-Ping Hsu,  T.-C. Jagau,  Yousung Jung,  A. Klamt,  
 Jing Kong,  D. S. Lambrecht,  Xiangyuan Li,  WanZhen Liang,  N. J. Mayhall,  
 C. W. McCurdy,  J. B. Neaton,  T. Neudecker,  C. Ochsenfeld,  
 J. A. Parkhill,  R. Peverati,  V. A. Rassolov,  Haisheng Ren,  Yihan Shao,  
 L. V. Slipchenko,  R. P. Steele,  J. E. Subotnik,  A. J. W. Thom,  
 A. Tkatchenko,  D. G. Truhlar,  T. Van Voorhis,  Fan Wang,  
 T. A. Wesolowski,  K. B. Whaley,  H. L. Woodcock III,  P. M. Zimmerman,  
 S. Faraji,  P. M. W. Gill,  M. Head-Gordon,  J. M. Herbert,  A. I. Krylov

 Contributors to earlier versions of Q-Chem not listed above: 
 R. D. Adamson,  B. Austin,  R. Baer,  J. Baker,  G. J. O. Beran,  
 K. Brandhorst,  S. T. Brown,  E. F. C. Byrd,  Arup K. Chakraborty,  
 G. K. L. Chan,  Chun-Min Chang,  Yunqing Chen,  C.-L. Cheng,  
 Siu Hung Chien,  D. M. Chipman,  D. L. Crittenden,  H. Dachsel,  
 R. J. Doerksen,  A. D. Dutoi,  R. G. Edgar,  J. Fosso-Tande,  
 L. Fusti-Molnar,  D. Ghosh,  A. Ghysels,  A. Golubeva-Zadorozhnaya,  
 J. Gonthier,  M. S. Gordon,  S. R. Gwaltney,  G. Hawkins,  J. E. Herr,  
 A. Heyden,  S. Hirata,  E. G. Hohenstein,  G. Kedziora,  F. J. Keil,  
 C. Kelley,  Jihan Kim,  R. A. King,  R. Z. Khaliullin,  P. P. Korambath,  
 W. Kurlancheek,  A. Laurent,  A. M. Lee,  M. S. Lee,  S. V. Levchenko,  
 Ching Yeh Lin,  D. Liotard,  E. Livshits,  R. C. Lochan,  I. Lotan,  
 L. A. Martinez-Martinez,  P. E. Maslen,  N. Nair,  D. P. O'Neill,  
 D. Neuhauser,  E. Neuscamman,  C. M. Oana,  R. Olivares-Amaya,  R. Olson,  
 T. M. Perrine,  B. Peters,  P. A. Pieniazek,  A. Prociuk,  Y. M. Rhee,  
 J. Ritchie,  M. A. Rohrdanz,  E. Rosta,  N. J. Russ,  H. F. Schaefer III,  
 M. W. Schmidt,  N. E. Schultz,  S. Sharma,  N. Shenvi,  C. D. Sherrill,  
 A. C. Simmonett,  A. Sodt,  T. Stein,  D. Stuck,  K. S. Thanthiriwatte,  
 V. Vanovschi,  L. Vogt,  Tao Wang,  A. Warshel,  M. A. Watson,  
 C. F. Williams,  Q. Wu,  X. Xu,  Jun Yang,  W. Zhang,  Yan Zhao

   Please cite Q-Chem as follows:
  "Software for the frontiers of quantum chemistry:
   An overview of developments in the Q-Chem 5 package"
   J. Chem. Phys. 155, 084801 (2021)
   https://doi.org/10.1063/5.0055522 (open access)

 Q-Chem 6.0.1 for Intel X86 EM64T Linux

 Parts of Q-Chem use Armadillo 9.900.5 (Nocturnal Misbehaviour).
 http://arma.sourceforge.net/

 Q-Chem begins on Fri Jan 26 12:54:03 2024  

 Host: atlas-269
0

     Scratch files written to ./qchem109780//
 Processing $rem in /scratch/abel/SOFTWARE/qchem/config/preferences:
 Processing $rem in /dipc/acebg/.qchemrc:
 Core orbitals will be frozen

 Checking the input file for inconsistencies... 	...done.

--------------------------------------------------------------
User input:
--------------------------------------------------------------
$comment
 RAS-SF CALCULATION
$end

$molecule
 READ quinoline.molecule
$end

$rem
!**CALCULATION TYPE***     
JOBTYPE            sp    
!BASIS              def2-TZVP
BASIS             STO-3G

!***SCF REFERENCE***
INPUT_BOHR 	    TRUE
!SKIP_SCFMAN        FALSE
UNRESTRICTED       FALSE
!SCF_GUESS          core
!SCF_GUESS_MIX      FALSE
!SCF_GUESS_ALWAYS   FALSE
MAX_SCF_CYCLES     500
!SCF_CONVERGENCE    10
SCF_ALGORITHM      DIIS_GDM !DIIS,DM,DIIS_DM,GDM,DIIS_GDM,GD

!SYMMETRY           TRUE   !use of symmetry for calculating integrals
!SYM_IGNORE         FALSE  !turn off using symmetry
!SYM_TOL            5      !tolerance for determining point group
!USE_ABELIAN_SUBGROUP      !define to use abelian group

!THRESH             14
!SCF_FINAL_PRINT     1 !0,1,2,3

!****CCSD****
CORRELATION        CCSD
!CC_CONVERGENCE     6
!CC_MAX_ITER        200
CC_PRINT	   2
!CHOLESKY_TOL       3 !Toler. decomposition 2e integrals
CC_REF_PROP  	   1 !one-particle CCSD properties calculation
!CC_REF_PROP_TE	   0 !two-particle CCSD properties calculation
!CC_FNO_THRESH
!CC_BACKEND	   XM !Used to specify the computational back-end of CCMAN2.

!****EOM****
METHOD             EOM-MP2
EE_STATES	   [20,20]
CC_STATE_TO_OPT    [1,1]
CC_EOM_PROP        1
CC_EOM_PROP_TE	   1
CC_TRANS_PROP      1
CALC_SOC           TRUE   !calculate SOC for EOM-CC, RAS-CI, ADC, TDDFT/TDA and TDDFT

!****MEMORY****
MEM_TOTAL          90000 !Default 2000 MB
MEM_STATIC         7000  !Default 64 MB
CC_MEMORY          72000

!**Molecular Properties and Analysis **                                                                                          
!POP_MULLIKEN       TRUE   !Run Mulliken population analysis
!LOWDIN_POPULATION  TRUE   !Run Löwdin population analysis
GUI                0       !Checkpoints generation
!STATE_ANALYSIS     TRUE

!**Wave function analysis**
!PLOTS = 0     ! Note: This can be omitted, default is 0
!NTO_PAIRS = 2 ! Note: This can be omitted, default is 2
!GUI 0
!MOLDEN_FORMAT      TRUE
!PRINT_ORBITALS     15
$end

!$plots
!   grid_points 100 100 100
!   grid_range  (-10,10) (-10,10) (-10,10)
!$end

--------------------------------------------------------------
 ----------------------------------------------------------------
             Standard Nuclear Orientation (Bohr)
    I     Atom           X                Y                Z
 ----------------------------------------------------------------
    1      C      -0.0559353627    -1.3989916065    -0.0000000000
    2      C      -0.0782415914     1.3256554364     0.0000000000
    3      C       2.3016375305    -2.6538713366    -0.0000000000
    4      C       4.6667611846    -1.2654684416    -0.0000000000
    5      C       4.6497706855     1.3016649328    -0.0000000000
    6      C       2.2722800840     2.6377967747    -0.0000000000
    7      N      -2.2102262665     2.6945577754     0.0000000000
    8      C      -2.3995793248    -2.6420616021     0.0000000000
    9      C      -4.6640560358    -1.1648929097     0.0000000000
   10      C      -4.4878393265     1.4051065478     0.0000000000
   11      H      -2.4867924844    -4.6867516752     0.0000000000
   12      H      -6.4947443947    -2.0790860337     0.0000000000
   13      H      -6.1538984074     2.5944746854     0.0000000000
   14      H       2.3432526882    -4.7016054474    -0.0000000000
   15      H       6.4266657394    -2.3097175760    -0.0000000000
   16      H       6.3951035242     2.3693643728    -0.0000000000
   17      H       2.2132101396     4.6817904753    -0.0000000000
 ----------------------------------------------------------------
 Molecular Point Group                 Cs    NOp =  2
 Largest Abelian Subgroup              Cs    NOp =  2
 Nuclear Repulsion Energy =         458.56962217 hartrees
 There are       35 alpha and       33 beta electrons
 Requested basis set is STO-3G
 There are 27 shells and 57 basis functions
WARNING: MEM_STATIC is adjusted to be 2000 MB!
 Total memory of 90000 MB is distributed as follows: 
   MEM_STATIC is set to 2000 MB
   QALLOC/CCMAN JOB total memory use is  88000 MB
 Warning: actual memory use might exceed 90000 MB

 Total QAlloc Memory Limit  90000 MB
 Mega-Array Size      1956 MB
 MEM_STATIC part      2000 MB

 A cutoff of  1.0D-14 yielded    344 shell pairs
 There are      1679 function pairs
 Smallest overlap matrix eigenvalue = 1.78E-01

 Scale SEOQF with 1.000000e-01/1.000000e-01/1.000000e+00

 Standard Electronic Orientation quadrupole field applied
 Nucleus-field energy     =     0.0000000148 hartrees
 Guess from superposition of atomic densities
 Warning:  Energy on first SCF cycle will be non-variational
 SAD guess density has 68.000000 electrons

 -----------------------------------------------------------------------
  General SCF calculation program by
  Eric Jon Sundstrom, Paul Horn, Yuezhi Mao, Dmitri Zuev, Alec White,
  David Stuck, Shaama M.S., Shane Yost, Joonho Lee, David Small,
  Daniel Levine, Susi Lehtola, Hugh Burton, Evgeny Epifanovsky,
  Bang C. Huynh
 -----------------------------------------------------------------------
 Hartree-Fock
 Orthonormalizing orbitals
 A restricted open-shell SCF calculation will be
 performed using DIIS, GDM
 SCF converges when RMS gradient is below 1.0e-08
 ---------------------------------------
  Cycle       Energy         DIIS error
 ---------------------------------------
    1    -392.2309983214      1.87e-01  
    2    -392.6650892248      1.64e-01  
    3    -393.9019891733      4.98e-02  
    4    -394.0449320974      3.81e-02  
    5    -394.2325128560      1.81e-02  
    6    -394.2819761159      9.93e-03  Done DIIS. Switching to GDM
 ---------------------------------------
  Cycle       Energy        RMS Gradient
 ---------------------------------------
    1    -394.2819761159      1.20e-01   Normal BFGS step
    2    -394.2948787265      1.25e-01   Normal BFGS step
    3    -394.3185203529      5.84e-02   Normal BFGS step
    4    -394.3238368357      4.24e-02   Normal BFGS step
    5    -394.3262858236      4.28e-02   Normal BFGS step
    6    -394.3304638616      1.87e-02   Normal BFGS step
    7    -394.3314481666      8.06e-03   Normal BFGS step
    8    -394.3318248787      2.90e-03   Normal BFGS step
    9    -394.3318527876      1.15e-03   Normal BFGS step
   10    -394.3318571795      2.45e-04   Normal BFGS step
   11    -394.3318575536      1.46e-04   Normal BFGS step
   12    -394.3318576511      5.86e-05   Normal BFGS step
   13    -394.3318576656      2.36e-05   Normal BFGS step
   14    -394.3318576684      9.21e-06   Normal BFGS step
   15    -394.3318576688      4.09e-06   Normal BFGS step
   16    -394.3318576688      1.04e-06   Normal BFGS step
   17    -394.3318576689      2.35e-07   Normal BFGS step
   18    -394.3318576689      8.07e-08   Normal BFGS step
   19    -394.3318576689      2.59e-08   Normal BFGS step
   20    -394.3318576689      1.51e-08   Normal BFGS step
   21    -394.3318576689      2.90e-09  Convergence criterion met
The disked orbital energies are calculated using alpha and beta Focks
 ---------------------------------------
 SCF time:   CPU 2.36s  wall 3.00s 
<S^2> =          2.000000000
 SCF   energy in the final basis set =     -394.3318576689
 Total energy in the final basis set =     -394.3318576689
 mp2 is not implemented in computing transition properties!


 ------------------------------------------------------------------------------

   CCMAN2: suite of methods based on coupled cluster
           and equation of motion theories.

   Components:
   * libvmm-1.3-trunk
     by Evgeny Epifanovsky, Ilya Kaliman.
   * libtensor-2.5-trunk
     by Evgeny Epifanovsky, Michael Wormit, Dmitry Zuev, Sam Manzer, 
        Ilya Kaliman.
   * libcc-2.5-trunk
     by Evgeny Epifanovsky, Arik Landau, Tomasz Kus, Kirill Khistyaev, 
        Dmitry Zuev, Prashant Manohar, Xintian Feng, Anna Krylov, 
        Matthew Goldey, Alec White, Thomas Jagau, Kaushik Nanda, 
        Anastasia Gunina, Alexander Kunitsa, Joonho Lee.

   CCMAN original authors:
   Anna I. Krylov, C. David Sherrill, Steven R. Gwaltney,
   Edward F. C. Byrd (2000)
   Sergey V. Levchenko, Lyudmila V. Slipchenko, Tao Wang,
   Ana-Maria C. Cristian (2003)
   Piotr A. Pieniazek, C. Melania Oana, Evgeny Epifanovsky (2007)
   Prashant Manohar (2009)

 ------------------------------------------------------------------------------


 Allocating and initializing 72000MB of RAM...
 Calculation will run on 1 core.

 
 Alpha MOs, Restricted
 -- Doubly Occupied --           
-15.326 -11.080 -11.061 -11.051 -11.045 -11.039 -11.038 -11.037
  1 A'    2 A'    3 A'    4 A'    5 A'    6 A'    7 A'    8 A'                 
-11.038 -11.034  -1.194  -1.090  -1.032  -0.973  -0.955  -0.841
  9 A'   10 A'   11 A'   12 A'   13 A'   14 A'   15 A'   16 A'                 
 -0.786  -0.778  -0.678  -0.653  -0.634  -0.573  -0.570  -0.534
 17 A'   18 A'   19 A'   20 A'   21 A'   22 A'   23 A'   24 A'                 
 -0.519  -0.508  -0.515  -0.465  -0.432  -0.424  -0.329  -0.350
 25 A'   26 A'    1 A"   27 A'   28 A'    2 A"   29 A'    3 A"                 
 -0.312
  4 A"                                                                         
 -- Singly Occupied (Occupied) --
 -0.359  -0.191
  5 A"    6 A"                                                                 
 -- Virtual --                   
  0.250   0.246   0.351   0.496   0.579   0.590   0.630   0.632
  7 A"    8 A"    9 A"   10 A"   30 A'   31 A'   32 A'   33 A'                 
  0.656   0.671   0.718   0.720   0.751   0.761   0.850   0.873
 34 A'   35 A'   36 A'   37 A'   38 A'   39 A'   40 A'   41 A'                 
  0.879   0.928   0.970   1.035   1.093   1.144
 42 A'   43 A'   44 A'   45 A'   46 A'   47 A'                                 
 
 Beta MOs, Restricted
 -- Doubly Occupied --           
-15.324 -11.079 -11.060 -11.051 -11.042 -11.038 -11.036 -11.035
  1 A'    2 A'    3 A'    4 A'    5 A'    6 A'    7 A'    8 A'                 
-11.020 -11.016  -1.183  -1.057  -1.017  -0.964  -0.897  -0.819
  9 A'   10 A'   11 A'   12 A'   13 A'   14 A'   15 A'   16 A'                 
 -0.777  -0.751  -0.663  -0.644  -0.626  -0.569  -0.555  -0.524
 17 A'   18 A'   19 A'   20 A'   21 A'   22 A'   23 A'   24 A'                 
 -0.511  -0.499  -0.478  -0.456  -0.423  -0.355  -0.323  -0.302
 25 A'   26 A'    1 A"   27 A'   28 A'    2 A"   29 A'    3 A"                 
 -0.285
  4 A"                                                                         
 -- Singly Occupied (Vacant) --  
  0.151   0.312
  5 A"    6 A"                                                                 
 -- Virtual --                   
  0.276   0.309   0.418   0.546   0.584   0.602   0.653   0.652
  7 A"    8 A"    9 A"   10 A"   30 A'   31 A'   32 A'   33 A'                 
  0.669   0.706   0.728   0.730   0.765   0.773   0.862   0.886
 34 A'   35 A'   36 A'   37 A'   38 A'   39 A'   40 A'   41 A'                 
  0.886   0.938   0.980   1.040   1.100   1.154
 42 A'   43 A'   44 A'   45 A'   46 A'   47 A'                                 

 Occupation and symmetry of molecular orbitals

 Point group: Cs (2 irreducible representations).

                           A'   A"    All 
 ------------------------------------------
 All molecular orbitals:
  - Alpha                  47   10    57  
  - Beta                   47   10    57  
 ------------------------------------------
 Alpha orbitals:
  - Frozen occupied        10   0     10  
  - Active occupied        19   6     25  
  - Active virtual         18   4     22  
  - Frozen virtual         0    0     0   
 ------------------------------------------
 Beta orbitals:
  - Frozen occupied        10   0     10  
  - Active occupied        19   4     23  
  - Active virtual         18   6     24  
  - Frozen virtual         0    0     0   
 ------------------------------------------

 Import integrals:   CPU 0.00 s  wall 0.00 s

 Molecular orbitals will be canonicalized.
 Import integrals:   CPU 0.63 s  wall 0.70 s

 Computing CCSD intermediates for later calculations in double precision
 Finished.

 MP2 amplitudes:   CPU 0.57 s  wall 0.64 s

        Solving for EOMEE-CCSD A' transitions.

Running a double precision version
        EOMEE-CCSD/MP2 right amplitudes will be solved using Davidson.
        Amplitudes will be solved using standard  algorithm.
     Hard-coded thresholds: 
     LinDepThresh=1.00e-15  NormThresh=1.00e-06  ReorthogonThresh=1.00e-02

      Roots     MaxVec    MaxIter   Precond   Conv      Shift    
      20        120       60        1         1.00e-05  0.00e+00  
 ------------------------------------------------------------------------------
      Iter ConvRoots NVecs ResNorm^2 Current eigenvalues (eV)
 ------------------------------------------------------------------------------
      0    0      20    1.40e-01   5.4705   6.3268   6.7415   7.4189   8.3932   8.6002   10.0534   10.6573   11.4691   11.5499   11.9489   12.1832   12.4708   13.0410   13.3779   13.4476   14.0042   14.3382   14.5514   15.5296   
      1    0      40    1.61e-02   2.7259   3.3971   4.0430   4.5256   5.4998   5.5805   6.4310   7.5577   8.0576   8.2206   8.4247   8.4719   9.1006   9.4114   9.7728   10.2607   10.4589   10.8163   11.1207   11.5602   
      2    0      60    7.04e-03   2.1227   2.4725   3.5438   4.1706   4.9425   5.1127   5.6406   6.7995   7.0768   7.1218   7.4185   7.9002   8.1057   8.6664   9.0660   9.3823   9.8692   10.0784   10.2642   10.7073   
Found complex roots...
      3    0      80    4.69e-03   1.9892   2.1999   3.4341   4.1044   4.8298   5.0236   5.3916   6.3721   6.5450   6.7704   6.8916   7.2098   7.8421   8.0255   8.4923   8.8894   9.4266   9.6061   9.9956   10.4277   
      4    0      100   4.40e-03   1.9483   2.1068   3.3872   4.0919   4.7992   4.9682   5.1743   6.0918   6.1624   6.2763   6.6346   7.1193   7.2971   7.8787   8.0327   8.4093   9.2071   9.4215   9.5900   9.8790   
      5    0      120   3.63e-03   1.9290   2.0637   3.3644   4.0820   4.7569   4.8502   5.0569   5.4836   5.8404   6.1537   6.5667   7.0494   7.1206   7.2656   7.9839   8.2391   8.4257   8.6231   9.0649   9.2610   
      6    0      40    1.20e-03   1.9258   2.0548   3.3611   4.0799   4.7078   4.8225   5.0341   5.3237   5.7583   6.1235   6.5556   7.0215   7.0736   7.1297   7.8699   8.0078   8.1760   8.3779   8.7944   9.1488   
      7    2      60    8.69e-04   1.9244*  2.0506   3.3588   4.0786*  4.6712   4.8143   5.0220   5.2541   5.7209   6.1013   6.5459   6.9894   7.0400   7.0711   7.6241   7.9787   7.9963   8.1714   8.6018   9.1090   
      8    4      78    7.01e-04   1.9241*  2.0504*  3.3578*  4.0780*  4.6576   4.8125   5.0151   5.2332   5.7054   6.0917   6.5404   6.9553   7.0189   7.0475   7.4993   7.7866   7.9839   8.0548   8.4862   9.0310   
      9    5      94    5.42e-04   1.9241*  2.0506*  3.3576*  4.0780*  4.6549   4.8119*  5.0116   5.2254   5.7018   6.0880   6.5384   6.9345   7.0125   7.0356   7.4266   7.6388   7.9761   7.9942   8.4016   8.6661   
      10   7      109   2.45e-04   1.9241*  2.0506*  3.3575*  4.0779*  4.6542*  4.8117*  5.0105*  5.2229   5.7010   6.0869   6.5370   6.9263   7.0094   7.0287   7.4037   7.5992   7.9628   7.9844   8.3143   8.5020   
      11   12     120   7.87e-05   1.9241*  2.0507*  3.3575*  4.0779*  4.6538*  4.8116*  5.0102*  5.2222*  5.7009*  6.0866*  6.5368*  6.9240   7.0087   7.0271*  7.3922   7.5813   7.9568   7.9831   8.2618   8.4736   
      12   15     28    2.83e-05   1.9241*  2.0506*  3.3575*  4.0779*  4.6539*  4.8116*  5.0101*  5.2221*  5.7010*  6.0866*  6.5366*  6.9236*  7.0086*  7.0265*  7.3909   7.5793   7.9549   7.9827*  8.2435   8.4652   
      13   15     33    1.49e-05   1.9241*  2.0506*  3.3575*  4.0779*  4.6539*  4.8116*  5.0101*  5.2222*  5.7011*  6.0866*  6.5366*  6.9234*  7.0087*  7.0266*  7.3894   7.5770   7.9545   7.9829*  8.2320   8.4607   
      14   18     38    6.29e-06   1.9241*  2.0506*  3.3575*  4.0779*  4.6539*  4.8116*  5.0101*  5.2222*  5.7011*  6.0866*  6.5365*  6.9234*  7.0087*  7.0263*  7.3890*  7.5768*  7.9543*  7.9830*  8.2267   8.4591   
      15   18     40    3.74e-06   1.9241*  2.0506*  3.3575*  4.0779*  4.6539*  4.8116*  5.0101*  5.2222*  5.7011*  6.0866*  6.5366*  6.9234*  7.0088*  7.0263*  7.3889*  7.5766*  7.9538*  7.9829*  8.2263   8.4589   
      16   19     42    2.23e-06   1.9241*  2.0506*  3.3575*  4.0779*  4.6539*  4.8116*  5.0101*  5.2222*  5.7011*  6.0866*  6.5366*  6.9234*  7.0088*  7.0263*  7.3889*  7.5766*  7.9541*  7.9829*  8.2251   8.4588*  
      17   19     43    1.69e-06   1.9241*  2.0506*  3.3575*  4.0779*  4.6539*  4.8116*  5.0101*  5.2222*  5.7011*  6.0866*  6.5366*  6.9234*  7.0088*  7.0263*  7.3889*  7.5766*  7.9539*  7.9829*  8.2251   8.4587*  
      18   20     44    1.50e-06   1.9241*  2.0506*  3.3575*  4.0779*  4.6539*  4.8116*  5.0101*  5.2222*  5.7011*  6.0866*  6.5366*  6.9234*  7.0088*  7.0263*  7.3888*  7.5766*  7.9540*  7.9829*  8.2246*  8.4586*  

     Davidson procedure converged

 EOMEE transition 1/A'
 Total energy = -394.81235211 a.u.  Excitation energy = 1.9241 eV.
 R0^2 = 0.0306  R1^2 = 0.8401  R2^2 = 0.1599  Res^2 = 3.50e-07
 Conv-d = yes

 Amplitude    Transitions between orbitals
 -0.5976       4 (A") B                  ->    5 (A") B                   
 -0.4833       6 (A") A                  ->    8 (A") A                   
 -0.3126       6 (A") A                  ->    7 (A") A                   
 -0.1712       2 (A") B                  ->    5 (A") B                   
 -0.1608       3 (A") B                  ->    5 (A") B                   
  0.1571       6 (A") A                  ->    9 (A") A                   
 -0.1481       2 (A") B                  ->    7 (A") B                   
  0.1366       4 (A") A                  ->    9 (A") A                   

              Summary of significant orbitals:

               Number  Type             Irrep      Energy
               32      Occ  Alpha       4 (A")     -0.3153
               35      Occ  Alpha       6 (A")     -0.1423
               27      Occ  Beta        2 (A")     -0.3541
               32      Occ  Beta        3 (A")     -0.3017
               33      Occ  Beta        4 (A")     -0.2853
               40      Vir  Alpha       7 (A")      0.2458
               41      Vir  Alpha       8 (A")      0.2502
               42      Vir  Alpha       9 (A")      0.3507
               40      Vir  Beta        5 (A")      0.1035
               43      Vir  Beta        7 (A")      0.2792


 EOMEE transition 2/A'
 Total energy = -394.80770083 a.u.  Excitation energy = 2.0506 eV.
 R0^2 = 0.1062  R1^2 = 0.7471  R2^2 = 0.2529  Res^2 = 1.75e-07
 Conv-d = yes

 Amplitude    Transitions between orbitals
  0.5742       3 (A") B                  ->    5 (A") B                   
  0.4832       6 (A") A                  ->    7 (A") A                   
 -0.3217       6 (A") A                  ->    8 (A") A                   
 -0.1354       4 (A") B                  ->    5 (A") B                   
 -0.1101       2 (A") B                  ->    5 (A") B                   

              Summary of significant orbitals:

               Number  Type             Irrep      Energy
               35      Occ  Alpha       6 (A")     -0.1423
               27      Occ  Beta        2 (A")     -0.3541
               32      Occ  Beta        3 (A")     -0.3017
               33      Occ  Beta        4 (A")     -0.2853
               40      Vir  Alpha       7 (A")      0.2458
               41      Vir  Alpha       8 (A")      0.2502
               40      Vir  Beta        5 (A")      0.1035


 EOMEE transition 3/A'
 Total energy = -394.75967578 a.u.  Excitation energy = 3.3575 eV.
 R0^2 = 0.0000  R1^2 = 0.8569  R2^2 = 0.1431  Res^2 = 1.32e-07
 Conv-d = yes

 Amplitude    Transitions between orbitals
  0.6020       2 (A") B                  ->    5 (A") B                   
 -0.4628       6 (A") A                  ->    9 (A") A                   
  0.2498       4 (A") A                  ->    8 (A") A                   
  0.2420       4 (A") B                  ->    7 (A") B                   
 -0.1733       5 (A") A                  ->    7 (A") A                   
 -0.1701       3 (A") B                  ->    6 (A") B                   
 -0.1589       6 (A") A                  ->    8 (A") A                   
 -0.1377       4 (A") B                  ->    5 (A") B                   

              Summary of significant orbitals:

               Number  Type             Irrep      Energy
               32      Occ  Alpha       4 (A")     -0.3153
               33      Occ  Alpha       5 (A")     -0.2901
               35      Occ  Alpha       6 (A")     -0.1423
               27      Occ  Beta        2 (A")     -0.3541
               32      Occ  Beta        3 (A")     -0.3017
               33      Occ  Beta        4 (A")     -0.2853
               40      Vir  Alpha       7 (A")      0.2458
               41      Vir  Alpha       8 (A")      0.2502
               42      Vir  Alpha       9 (A")      0.3507
               40      Vir  Beta        5 (A")      0.1035
               41      Vir  Beta        6 (A")      0.2257
               43      Vir  Beta        7 (A")      0.2792


 EOMEE transition 4/A'
 Total energy = -394.73320145 a.u.  Excitation energy = 4.0779 eV.
 R0^2 = 0.0002  R1^2 = 0.8933  R2^2 = 0.1067  Res^2 = 3.31e-07
 Conv-d = yes

 Amplitude    Transitions between orbitals
  0.6613       6 (A") A                  ->    8 (A") A                   
 -0.6295       4 (A") B                  ->    5 (A") B                   
  0.1238       6 (A") A                  ->    7 (A") A                   
  0.0906       3 (A") B                  ->    5 (A") B                   

              Summary of significant orbitals:

               Number  Type             Irrep      Energy
               35      Occ  Alpha       6 (A")     -0.1423
               32      Occ  Beta        3 (A")     -0.3017
               33      Occ  Beta        4 (A")     -0.2853
               40      Vir  Alpha       7 (A")      0.2458
               41      Vir  Alpha       8 (A")      0.2502
               40      Vir  Beta        5 (A")      0.1035


 EOMEE transition 5/A'
 Total energy = -394.71203310 a.u.  Excitation energy = 4.6539 eV.
 R0^2 = 0.0094  R1^2 = 0.5193  R2^2 = 0.4807  Res^2 = 4.53e-07
 Conv-d = yes

 Amplitude    Transitions between orbitals
 -0.4702       6 (A") A                  ->    7 (A") A                   
 -0.2723       3 (A") B                  ->    6 (A") B                   
  0.2565       5 (A") A                  ->    8 (A") A                   
 -0.1631       5 (A") A                  ->    7 (A") A                   
  0.1575       3 (A") B                  ->    7 (A") B                   
  0.1331       6 (A") A                  ->    8 (A") A                   
  0.1318       4 (A") A                  ->    7 (A") A                   
 -0.3418       6 (A") A      4 (A") B    ->    8 (A") A      5 (A") B     
  0.3418       6 (A") A      4 (A") B    ->    5 (A") B      8 (A") A     
  0.3418       4 (A") B      6 (A") A    ->    8 (A") A      5 (A") B     
 -0.3418       4 (A") B      6 (A") A    ->    5 (A") B      8 (A") A     
 -0.2523       6 (A") A      3 (A") B    ->    7 (A") A      5 (A") B     
  0.2523       6 (A") A      3 (A") B    ->    5 (A") B      7 (A") A     
  0.2523       3 (A") B      6 (A") A    ->    7 (A") A      5 (A") B     
 -0.2523       3 (A") B      6 (A") A    ->    5 (A") B      7 (A") A     
  0.1435       6 (A") A      1 (A") B    ->    10 (A") A     5 (A") B     
 -0.1435       6 (A") A      1 (A") B    ->    5 (A") B      10 (A") A    
 -0.1435       1 (A") B      6 (A") A    ->    10 (A") A     5 (A") B     
  0.1435       1 (A") B      6 (A") A    ->    5 (A") B      10 (A") A    
  0.1205       6 (A") A      2 (A") B    ->    8 (A") A      5 (A") B     
 -0.1205       6 (A") A      2 (A") B    ->    5 (A") B      8 (A") A     
 -0.1205       2 (A") B      6 (A") A    ->    8 (A") A      5 (A") B     
  0.1205       2 (A") B      6 (A") A    ->    5 (A") B      8 (A") A     
  0.1197       6 (A") A      2 (A") B    ->    9 (A") A      5 (A") B     
 -0.1197       6 (A") A      2 (A") B    ->    5 (A") B      9 (A") A     
 -0.1197       2 (A") B      6 (A") A    ->    9 (A") A      5 (A") B     
  0.1197       2 (A") B      6 (A") A    ->    5 (A") B      9 (A") A     
 -0.1191       6 (A") A      4 (A") B    ->    7 (A") A      5 (A") B     
  0.1191       6 (A") A      4 (A") B    ->    5 (A") B      7 (A") A     
  0.1191       4 (A") B      6 (A") A    ->    7 (A") A      5 (A") B     
 -0.1191       4 (A") B      6 (A") A    ->    5 (A") B      7 (A") A     
  0.1107       6 (A") A      3 (A") B    ->    8 (A") A      5 (A") B     
 -0.1107       6 (A") A      3 (A") B    ->    5 (A") B      8 (A") A     
 -0.1107       3 (A") B      6 (A") A    ->    8 (A") A      5 (A") B     
  0.1107       3 (A") B      6 (A") A    ->    5 (A") B      8 (A") A     
 -0.1066       6 (A") A      4 (A") B    ->    9 (A") A      5 (A") B     
  0.1066       6 (A") A      4 (A") B    ->    5 (A") B      9 (A") A     
  0.1066       4 (A") B      6 (A") A    ->    9 (A") A      5 (A") B     
 -0.1066       4 (A") B      6 (A") A    ->    5 (A") B      9 (A") A     

              Summary of significant orbitals:

               Number  Type             Irrep      Energy
               32      Occ  Alpha       4 (A")     -0.3153
               33      Occ  Alpha       5 (A")     -0.2901
               35      Occ  Alpha       6 (A")     -0.1423
               28      Occ  Beta        1 (A")     -0.4783
               27      Occ  Beta        2 (A")     -0.3541
               32      Occ  Beta        3 (A")     -0.3017
               33      Occ  Beta        4 (A")     -0.2853
               40      Vir  Alpha       7 (A")      0.2458
               41      Vir  Alpha       8 (A")      0.2502
               42      Vir  Alpha       9 (A")      0.3507
               43      Vir  Alpha      10 (A")      0.4966
               40      Vir  Beta        5 (A")      0.1035
               41      Vir  Beta        6 (A")      0.2257
               43      Vir  Beta        7 (A")      0.2792


 EOMEE transition 6/A'
 Total energy = -394.70623609 a.u.  Excitation energy = 4.8116 eV.
 R0^2 = 0.0010  R1^2 = 0.8260  R2^2 = 0.1740  Res^2 = 1.33e-07
 Conv-d = yes

 Amplitude    Transitions between orbitals
  0.5326       3 (A") B                  ->    6 (A") B                   
  0.5245       5 (A") A                  ->    7 (A") A                   
 -0.2480       6 (A") A                  ->    7 (A") A                   
  0.2286       1 (A") B                  ->    5 (A") B                   
 -0.1637       6 (A") A                  ->    10 (A") A                  
  0.1361       3 (A") B                  ->    5 (A") B                   
 -0.1275       6 (A") A                  ->    9 (A") A                   
  0.1234       4 (A") B                  ->    6 (A") B                   
  0.1209       2 (A") B                  ->    5 (A") B                   
 -0.1097       4 (A") B                  ->    5 (A") B                   

              Summary of significant orbitals:

               Number  Type             Irrep      Energy
               33      Occ  Alpha       5 (A")     -0.2901
               35      Occ  Alpha       6 (A")     -0.1423
               28      Occ  Beta        1 (A")     -0.4783
               27      Occ  Beta        2 (A")     -0.3541
               32      Occ  Beta        3 (A")     -0.3017
               33      Occ  Beta        4 (A")     -0.2853
               40      Vir  Alpha       7 (A")      0.2458
               42      Vir  Alpha       9 (A")      0.3507
               43      Vir  Alpha      10 (A")      0.4966
               40      Vir  Beta        5 (A")      0.1035
               41      Vir  Beta        6 (A")      0.2257


 EOMEE transition 7/A'
 Total energy = -394.69894231 a.u.  Excitation energy = 5.0101 eV.
 R0^2 = 0.0041  R1^2 = 0.6491  R2^2 = 0.3509  Res^2 = 5.01e-07
 Conv-d = yes

 Amplitude    Transitions between orbitals
  0.4904       4 (A") B                  ->    6 (A") B                   
 -0.3839       3 (A") B                  ->    5 (A") B                   
  0.3050       6 (A") A                  ->    7 (A") A                   
  0.2951       5 (A") A                  ->    8 (A") A                   
 -0.1224       2 (A") B                  ->    8 (A") B                   
 -0.1154       3 (A") A                  ->    9 (A") A                   
 -0.1124       4 (A") B                  ->    8 (A") B                   
  0.1007       3 (A") A                  ->    8 (A") A                   

              Summary of significant orbitals:

               Number  Type             Irrep      Energy
               30      Occ  Alpha       3 (A")     -0.4187
               33      Occ  Alpha       5 (A")     -0.2901
               35      Occ  Alpha       6 (A")     -0.1423
               27      Occ  Beta        2 (A")     -0.3541
               32      Occ  Beta        3 (A")     -0.3017
               33      Occ  Beta        4 (A")     -0.2853
               40      Vir  Alpha       7 (A")      0.2458
               41      Vir  Alpha       8 (A")      0.2502
               42      Vir  Alpha       9 (A")      0.3507
               40      Vir  Beta        5 (A")      0.1035
               41      Vir  Beta        6 (A")      0.2257
               42      Vir  Beta        8 (A")      0.3946


 EOMEE transition 8/A'
 Total energy = -394.69114926 a.u.  Excitation energy = 5.2222 eV.
 R0^2 = 0.0183  R1^2 = 0.5156  R2^2 = 0.4844  Res^2 = 9.99e-07
 Conv-d = yes

 Amplitude    Transitions between orbitals
  0.4718       3 (A") B                  ->    5 (A") B                   
 -0.3487       6 (A") A                  ->    7 (A") A                   
  0.1941       2 (A") B                  ->    6 (A") B                   
  0.1600       5 (A") A                  ->    8 (A") A                   
 -0.1418       2 (A") B                  ->    8 (A") B                   
 -0.1285       5 (A") A                  ->    9 (A") A                   
 -0.1116       3 (A") A                  ->    9 (A") A                   
  0.3711       6 (A") A      4 (A") B    ->    8 (A") A      5 (A") B     
 -0.3711       6 (A") A      4 (A") B    ->    5 (A") B      8 (A") A     
 -0.3711       4 (A") B      6 (A") A    ->    8 (A") A      5 (A") B     
  0.3711       4 (A") B      6 (A") A    ->    5 (A") B      8 (A") A     
 -0.2705       6 (A") A      2 (A") B    ->    9 (A") A      5 (A") B     
  0.2705       6 (A") A      2 (A") B    ->    5 (A") B      9 (A") A     
  0.2705       2 (A") B      6 (A") A    ->    9 (A") A      5 (A") B     
 -0.2705       2 (A") B      6 (A") A    ->    5 (A") B      9 (A") A     
  0.1245       6 (A") A      2 (A") B    ->    8 (A") A      5 (A") B     
 -0.1245       6 (A") A      2 (A") B    ->    5 (A") B      8 (A") A     
 -0.1245       2 (A") B      6 (A") A    ->    8 (A") A      5 (A") B     
  0.1245       2 (A") B      6 (A") A    ->    5 (A") B      8 (A") A     
 -0.1101       3 (A") A      4 (A") B    ->    8 (A") A      8 (A") B     
  0.1101       3 (A") A      4 (A") B    ->    8 (A") B      8 (A") A     
  0.1101       4 (A") B      3 (A") A    ->    8 (A") A      8 (A") B     
 -0.1101       4 (A") B      3 (A") A    ->    8 (A") B      8 (A") A     
  0.1080       5 (A") A      4 (A") B    ->    8 (A") A      6 (A") B     
 -0.1080       5 (A") A      4 (A") B    ->    6 (A") B      8 (A") A     
 -0.1080       4 (A") B      5 (A") A    ->    8 (A") A      6 (A") B     
  0.1080       4 (A") B      5 (A") A    ->    6 (A") B      8 (A") A     
  0.1077       3 (A") A      2 (A") B    ->    9 (A") A      8 (A") B     
 -0.1077       3 (A") A      2 (A") B    ->    8 (A") B      9 (A") A     
 -0.1077       2 (A") B      3 (A") A    ->    9 (A") A      8 (A") B     
  0.1077       2 (A") B      3 (A") A    ->    8 (A") B      9 (A") A     

              Summary of significant orbitals:

               Number  Type             Irrep      Energy
               30      Occ  Alpha       3 (A")     -0.4187
               33      Occ  Alpha       5 (A")     -0.2901
               35      Occ  Alpha       6 (A")     -0.1423
               27      Occ  Beta        2 (A")     -0.3541
               32      Occ  Beta        3 (A")     -0.3017
               33      Occ  Beta        4 (A")     -0.2853
               40      Vir  Alpha       7 (A")      0.2458
               41      Vir  Alpha       8 (A")      0.2502
               42      Vir  Alpha       9 (A")      0.3507
               40      Vir  Beta        5 (A")      0.1035
               41      Vir  Beta        6 (A")      0.2257
               42      Vir  Beta        8 (A")      0.3946


 EOMEE transition 9/A'
 Total energy = -394.67354868 a.u.  Excitation energy = 5.7011 eV.
 R0^2 = 0.0000  R1^2 = 0.5847  R2^2 = 0.4153  Res^2 = 2.57e-07
 Conv-d = yes

 Amplitude    Transitions between orbitals
 -0.3590       4 (A") B                  ->    7 (A") B                   
 -0.3398       4 (A") A                  ->    8 (A") A                   
  0.2513       3 (A") B                  ->    8 (A") B                   
 -0.2506       3 (A") A                  ->    7 (A") A                   
 -0.2033       1 (A") B                  ->    5 (A") B                   
  0.1351       6 (A") A                  ->    10 (A") A                  
  0.1257       2 (A") B                  ->    9 (A") B                   
  0.1216       2 (A") B                  ->    7 (A") B                   
 -0.1172       2 (A") A                  ->    9 (A") A                   
 -0.1080       4 (A") A                  ->    9 (A") A                   
  0.1828       6 (A") A      3 (A") B    ->    7 (A") A      6 (A") B     
 -0.1828       6 (A") A      3 (A") B    ->    6 (A") B      7 (A") A     
 -0.1828       3 (A") B      6 (A") A    ->    7 (A") A      6 (A") B     
  0.1828       3 (A") B      6 (A") A    ->    6 (A") B      7 (A") A     
  0.1781       5 (A") A      3 (A") B    ->    7 (A") A      5 (A") B     
 -0.1781       5 (A") A      3 (A") B    ->    5 (A") B      7 (A") A     
 -0.1781       3 (A") B      5 (A") A    ->    7 (A") A      5 (A") B     
  0.1781       3 (A") B      5 (A") A    ->    5 (A") B      7 (A") A     
  0.1769       3 (A") A      3 (A") B    ->    7 (A") A      5 (A") B     
 -0.1769       3 (A") A      3 (A") B    ->    5 (A") B      7 (A") A     
 -0.1769       3 (A") B      3 (A") A    ->    7 (A") A      5 (A") B     
  0.1769       3 (A") B      3 (A") A    ->    5 (A") B      7 (A") A     
 -0.1742       6 (A") A      3 (A") B    ->    7 (A") A      8 (A") B     
  0.1742       6 (A") A      3 (A") B    ->    8 (A") B      7 (A") A     
  0.1742       3 (A") B      6 (A") A    ->    7 (A") A      8 (A") B     
 -0.1742       3 (A") B      6 (A") A    ->    8 (A") B      7 (A") A     
  0.1565       3 (A") A      4 (A") B    ->    8 (A") A      5 (A") B     
 -0.1565       3 (A") A      4 (A") B    ->    5 (A") B      8 (A") A     
 -0.1565       4 (A") B      3 (A") A    ->    8 (A") A      5 (A") B     
  0.1565       4 (A") B      3 (A") A    ->    5 (A") B      8 (A") A     
 -0.1474       6 (A") A      4 (A") B    ->    8 (A") A      8 (A") B     
  0.1474       6 (A") A      4 (A") B    ->    8 (A") B      8 (A") A     
  0.1474       4 (A") B      6 (A") A    ->    8 (A") A      8 (A") B     
 -0.1474       4 (A") B      6 (A") A    ->    8 (A") B      8 (A") A     
  0.1342       5 (A") A      4 (A") B    ->    8 (A") A      5 (A") B     
 -0.1342       5 (A") A      4 (A") B    ->    5 (A") B      8 (A") A     
 -0.1342       4 (A") B      5 (A") A    ->    8 (A") A      5 (A") B     
  0.1342       4 (A") B      5 (A") A    ->    5 (A") B      8 (A") A     
  0.1284       6 (A") A      4 (A") B    ->    8 (A") A      6 (A") B     
 -0.1284       6 (A") A      4 (A") B    ->    6 (A") B      8 (A") A     
 -0.1284       4 (A") B      6 (A") A    ->    8 (A") A      6 (A") B     
  0.1284       4 (A") B      6 (A") A    ->    6 (A") B      8 (A") A     

              Summary of significant orbitals:

               Number  Type             Irrep      Energy
               31      Occ  Alpha       2 (A")     -0.4452
               30      Occ  Alpha       3 (A")     -0.4187
               32      Occ  Alpha       4 (A")     -0.3153
               33      Occ  Alpha       5 (A")     -0.2901
               35      Occ  Alpha       6 (A")     -0.1423
               28      Occ  Beta        1 (A")     -0.4783
               27      Occ  Beta        2 (A")     -0.3541
               32      Occ  Beta        3 (A")     -0.3017
               33      Occ  Beta        4 (A")     -0.2853
               40      Vir  Alpha       7 (A")      0.2458
               41      Vir  Alpha       8 (A")      0.2502
               42      Vir  Alpha       9 (A")      0.3507
               43      Vir  Alpha      10 (A")      0.4966
               40      Vir  Beta        5 (A")      0.1035
               41      Vir  Beta        6 (A")      0.2257
               43      Vir  Beta        7 (A")      0.2792
               42      Vir  Beta        8 (A")      0.3946
               44      Vir  Beta        9 (A")      0.4348


 EOMEE transition 10/A'
 Total energy = -394.65938161 a.u.  Excitation energy = 6.0866 eV.
 R0^2 = 0.0043  R1^2 = 0.6655  R2^2 = 0.3345  Res^2 = 5.51e-07
 Conv-d = yes

 Amplitude    Transitions between orbitals
  0.3739       4 (A") B                  ->    6 (A") B                   
  0.3285       5 (A") A                  ->    8 (A") A                   
 -0.2853       2 (A") B                  ->    6 (A") B                   
 -0.2667       4 (A") A                  ->    7 (A") A                   
 -0.2488       3 (A") B                  ->    7 (A") B                   
  0.2180       5 (A") A                  ->    9 (A") A                   
 -0.1960       3 (A") A                  ->    8 (A") A                   
  0.1895       3 (A") B                  ->    5 (A") B                   
  0.1752       4 (A") B                  ->    8 (A") B                   

              Summary of significant orbitals:

               Number  Type             Irrep      Energy
               30      Occ  Alpha       3 (A")     -0.4187
               32      Occ  Alpha       4 (A")     -0.3153
               33      Occ  Alpha       5 (A")     -0.2901
               27      Occ  Beta        2 (A")     -0.3541
               32      Occ  Beta        3 (A")     -0.3017
               33      Occ  Beta        4 (A")     -0.2853
               40      Vir  Alpha       7 (A")      0.2458
               41      Vir  Alpha       8 (A")      0.2502
               42      Vir  Alpha       9 (A")      0.3507
               40      Vir  Beta        5 (A")      0.1035
               41      Vir  Beta        6 (A")      0.2257
               43      Vir  Beta        7 (A")      0.2792
               42      Vir  Beta        8 (A")      0.3946


 EOMEE transition 11/A'
 Total energy = -394.64284649 a.u.  Excitation energy = 6.5366 eV.
 R0^2 = 0.0000  R1^2 = 0.7099  R2^2 = 0.2901  Res^2 = 1.91e-07
 Conv-d = yes

 Amplitude    Transitions between orbitals
  0.4612       1 (A") B                  ->    5 (A") B                   
 -0.2693       4 (A") B                  ->    7 (A") B                   
 -0.2692       6 (A") A                  ->    10 (A") A                  
 -0.2649       4 (A") A                  ->    8 (A") A                   
 -0.1932       2 (A") B                  ->    7 (A") B                   
  0.1853       4 (A") A                  ->    9 (A") A                   
 -0.1725       5 (A") A                  ->    7 (A") A                   
  0.1625       2 (A") A                  ->    8 (A") A                   
 -0.1595       3 (A") B                  ->    6 (A") B                   
  0.1511       2 (A") B                  ->    5 (A") B                   
  0.1498       4 (A") B                  ->    9 (A") B                   
  0.1309       2 (A") B                  ->    9 (A") B                   
 -0.1065       2 (A") B                  ->    10 (A") B                  

              Summary of significant orbitals:

               Number  Type             Irrep      Energy
               31      Occ  Alpha       2 (A")     -0.4452
               32      Occ  Alpha       4 (A")     -0.3153
               33      Occ  Alpha       5 (A")     -0.2901
               35      Occ  Alpha       6 (A")     -0.1423
               28      Occ  Beta        1 (A")     -0.4783
               27      Occ  Beta        2 (A")     -0.3541
               32      Occ  Beta        3 (A")     -0.3017
               33      Occ  Beta        4 (A")     -0.2853
               40      Vir  Alpha       7 (A")      0.2458
               41      Vir  Alpha       8 (A")      0.2502
               42      Vir  Alpha       9 (A")      0.3507
               43      Vir  Alpha      10 (A")      0.4966
               40      Vir  Beta        5 (A")      0.1035
               41      Vir  Beta        6 (A")      0.2257
               43      Vir  Beta        7 (A")      0.2792
               44      Vir  Beta        9 (A")      0.4348
               45      Vir  Beta       10 (A")      0.5737


 EOMEE transition 12/A'
 Total energy = -394.62862971 a.u.  Excitation energy = 6.9234 eV.
 R0^2 = 0.0000  R1^2 = 0.5767  R2^2 = 0.4233  Res^2 = 3.55e-06
 Conv-d = yes

 Amplitude    Transitions between orbitals
  0.4040       4 (A") A                  ->    7 (A") A                   
  0.3920       3 (A") B                  ->    7 (A") B                   
  0.2446       6 (A") A                  ->    9 (A") A                   
  0.2189       2 (A") B                  ->    5 (A") B                   
  0.1919       4 (A") B                  ->    6 (A") B                   
  0.1165       3 (A") B                  ->    9 (A") B                   
  0.1110       2 (A") A                  ->    7 (A") A                   
 -0.1074       2 (A") A                  ->    8 (A") A                   
 -0.1031       2 (A") B                  ->    6 (A") B                   
  0.2564       6 (A") A      4 (A") B    ->    8 (A") A      5 (A") B     
 -0.2564       6 (A") A      4 (A") B    ->    5 (A") B      8 (A") A     
 -0.2564       4 (A") B      6 (A") A    ->    8 (A") A      5 (A") B     
  0.2564       4 (A") B      6 (A") A    ->    5 (A") B      8 (A") A     
 -0.1957       6 (A") A      2 (A") B    ->    8 (A") A      5 (A") B     
  0.1957       6 (A") A      2 (A") B    ->    5 (A") B      8 (A") A     
  0.1957       2 (A") B      6 (A") A    ->    8 (A") A      5 (A") B     
 -0.1957       2 (A") B      6 (A") A    ->    5 (A") B      8 (A") A     
  0.1826       6 (A") A      4 (A") B    ->    9 (A") A      5 (A") B     
 -0.1826       6 (A") A      4 (A") B    ->    5 (A") B      9 (A") A     
 -0.1826       4 (A") B      6 (A") A    ->    9 (A") A      5 (A") B     
  0.1826       4 (A") B      6 (A") A    ->    5 (A") B      9 (A") A     
 -0.1650       6 (A") A      3 (A") B    ->    7 (A") A      5 (A") B     
  0.1650       6 (A") A      3 (A") B    ->    5 (A") B      7 (A") A     
  0.1650       3 (A") B      6 (A") A    ->    7 (A") A      5 (A") B     
 -0.1650       3 (A") B      6 (A") A    ->    5 (A") B      7 (A") A     

              Summary of significant orbitals:

               Number  Type             Irrep      Energy
               31      Occ  Alpha       2 (A")     -0.4452
               32      Occ  Alpha       4 (A")     -0.3153
               35      Occ  Alpha       6 (A")     -0.1423
               27      Occ  Beta        2 (A")     -0.3541
               32      Occ  Beta        3 (A")     -0.3017
               33      Occ  Beta        4 (A")     -0.2853
               40      Vir  Alpha       7 (A")      0.2458
               41      Vir  Alpha       8 (A")      0.2502
               42      Vir  Alpha       9 (A")      0.3507
               40      Vir  Beta        5 (A")      0.1035
               41      Vir  Beta        6 (A")      0.2257
               43      Vir  Beta        7 (A")      0.2792
               44      Vir  Beta        9 (A")      0.4348


 EOMEE transition 13/A'
 Total energy = -394.62549268 a.u.  Excitation energy = 7.0088 eV.
 R0^2 = 0.0000  R1^2 = 0.5018  R2^2 = 0.4982  Res^2 = 7.31e-07
 Conv-d = yes

 Amplitude    Transitions between orbitals
  0.2651       2 (A") B                  ->    7 (A") B                   
  0.2627       1 (A") B                  ->    5 (A") B                   
 -0.2045       4 (A") A                  ->    9 (A") A                   
 -0.1917       4 (A") B                  ->    9 (A") B                   
 -0.1905       2 (A") A                  ->    8 (A") A                   
  0.1565       2 (A") A                  ->    9 (A") A                   
 -0.1521       1 (A") A                  ->    8 (A") A                   
  0.1513       2 (A") B                  ->    5 (A") B                   
  0.1414       6 (A") A                  ->    9 (A") A                   
 -0.1295       2 (A") B                  ->    9 (A") B                   
  0.1246       4 (A") B                  ->    10 (A") B                  
  0.1226       1 (A") A                  ->    9 (A") A                   
 -0.1188       6 (A") A                  ->    10 (A") A                  
  0.1060       3 (A") A                  ->    8 (A") A                   
  0.2363       6 (A") A      4 (A") B    ->    7 (A") A      5 (A") B     
 -0.2363       6 (A") A      4 (A") B    ->    5 (A") B      7 (A") A     
 -0.2363       4 (A") B      6 (A") A    ->    7 (A") A      5 (A") B     
  0.2363       4 (A") B      6 (A") A    ->    5 (A") B      7 (A") A     
  0.1911       6 (A") A      3 (A") B    ->    8 (A") A      5 (A") B     
 -0.1911       6 (A") A      3 (A") B    ->    5 (A") B      8 (A") A     
 -0.1911       3 (A") B      6 (A") A    ->    8 (A") A      5 (A") B     
  0.1911       3 (A") B      6 (A") A    ->    5 (A") B      8 (A") A     
  0.1348       6 (A") A      2 (A") B    ->    8 (A") A      8 (A") B     
 -0.1348       6 (A") A      2 (A") B    ->    8 (A") B      8 (A") A     
 -0.1348       2 (A") B      6 (A") A    ->    8 (A") A      8 (A") B     
  0.1348       2 (A") B      6 (A") A    ->    8 (A") B      8 (A") A     
 -0.1346       5 (A") A      2 (A") B    ->    8 (A") A      5 (A") B     
  0.1346       5 (A") A      2 (A") B    ->    5 (A") B      8 (A") A     
  0.1346       2 (A") B      5 (A") A    ->    8 (A") A      5 (A") B     
 -0.1346       2 (A") B      5 (A") A    ->    5 (A") B      8 (A") A     
  0.1331       6 (A") A      2 (A") B    ->    9 (A") A      6 (A") B     
 -0.1331       6 (A") A      2 (A") B    ->    6 (A") B      9 (A") A     
 -0.1331       2 (A") B      6 (A") A    ->    9 (A") A      6 (A") B     
  0.1331       2 (A") B      6 (A") A    ->    6 (A") B      9 (A") A     
 -0.1329       6 (A") A      2 (A") B    ->    9 (A") A      8 (A") B     
  0.1329       6 (A") A      2 (A") B    ->    8 (A") B      9 (A") A     
  0.1329       2 (A") B      6 (A") A    ->    9 (A") A      8 (A") B     
 -0.1329       2 (A") B      6 (A") A    ->    8 (A") B      9 (A") A     
  0.1323       3 (A") A      2 (A") B    ->    9 (A") A      5 (A") B     
 -0.1323       3 (A") A      2 (A") B    ->    5 (A") B      9 (A") A     
 -0.1323       2 (A") B      3 (A") A    ->    9 (A") A      5 (A") B     
  0.1323       2 (A") B      3 (A") A    ->    5 (A") B      9 (A") A     
 -0.1223       3 (A") A      2 (A") B    ->    8 (A") A      5 (A") B     
  0.1223       3 (A") A      2 (A") B    ->    5 (A") B      8 (A") A     
  0.1223       2 (A") B      3 (A") A    ->    8 (A") A      5 (A") B     
 -0.1223       2 (A") B      3 (A") A    ->    5 (A") B      8 (A") A     
  0.1215       5 (A") A      2 (A") B    ->    9 (A") A      5 (A") B     
 -0.1215       5 (A") A      2 (A") B    ->    5 (A") B      9 (A") A     
 -0.1215       2 (A") B      5 (A") A    ->    9 (A") A      5 (A") B     
  0.1215       2 (A") B      5 (A") A    ->    5 (A") B      9 (A") A     
 -0.1174       6 (A") A      2 (A") B    ->    8 (A") A      6 (A") B     
  0.1174       6 (A") A      2 (A") B    ->    6 (A") B      8 (A") A     
  0.1174       2 (A") B      6 (A") A    ->    8 (A") A      6 (A") B     
 -0.1174       2 (A") B      6 (A") A    ->    6 (A") B      8 (A") A     
 -0.1168       6 (A") A      4 (A") B    ->    8 (A") A      6 (A") B     
  0.1168       6 (A") A      4 (A") B    ->    6 (A") B      8 (A") A     
  0.1168       4 (A") B      6 (A") A    ->    8 (A") A      6 (A") B     
 -0.1168       4 (A") B      6 (A") A    ->    6 (A") B      8 (A") A     
  0.1153       6 (A") A      4 (A") B    ->    9 (A") A      6 (A") B     
 -0.1153       6 (A") A      4 (A") B    ->    6 (A") B      9 (A") A     
 -0.1153       4 (A") B      6 (A") A    ->    9 (A") A      6 (A") B     
  0.1153       4 (A") B      6 (A") A    ->    6 (A") B      9 (A") A     
  0.1141       3 (A") A      4 (A") B    ->    9 (A") A      5 (A") B     
 -0.1141       3 (A") A      4 (A") B    ->    5 (A") B      9 (A") A     
 -0.1141       4 (A") B      3 (A") A    ->    9 (A") A      5 (A") B     
  0.1141       4 (A") B      3 (A") A    ->    5 (A") B      9 (A") A     
 -0.1096       6 (A") A      2 (A") B    ->    7 (A") A      5 (A") B     
  0.1096       6 (A") A      2 (A") B    ->    5 (A") B      7 (A") A     
  0.1096       2 (A") B      6 (A") A    ->    7 (A") A      5 (A") B     
 -0.1096       2 (A") B      6 (A") A    ->    5 (A") B      7 (A") A     
 -0.1073       6 (A") A      4 (A") B    ->    9 (A") A      8 (A") B     
  0.1073       6 (A") A      4 (A") B    ->    8 (A") B      9 (A") A     
  0.1073       4 (A") B      6 (A") A    ->    9 (A") A      8 (A") B     
 -0.1073       4 (A") B      6 (A") A    ->    8 (A") B      9 (A") A     
  0.1063       5 (A") A      4 (A") B    ->    9 (A") A      5 (A") B     
 -0.1063       5 (A") A      4 (A") B    ->    5 (A") B      9 (A") A     
 -0.1063       4 (A") B      5 (A") A    ->    9 (A") A      5 (A") B     
  0.1063       4 (A") B      5 (A") A    ->    5 (A") B      9 (A") A     
  0.1055       6 (A") A      4 (A") B    ->    8 (A") A      8 (A") B     
 -0.1055       6 (A") A      4 (A") B    ->    8 (A") B      8 (A") A     
 -0.1055       4 (A") B      6 (A") A    ->    8 (A") A      8 (A") B     
  0.1055       4 (A") B      6 (A") A    ->    8 (A") B      8 (A") A     

              Summary of significant orbitals:

               Number  Type             Irrep      Energy
               24      Occ  Alpha       1 (A")     -0.5399
               31      Occ  Alpha       2 (A")     -0.4452
               30      Occ  Alpha       3 (A")     -0.4187
               32      Occ  Alpha       4 (A")     -0.3153
               33      Occ  Alpha       5 (A")     -0.2901
               35      Occ  Alpha       6 (A")     -0.1423
               28      Occ  Beta        1 (A")     -0.4783
               27      Occ  Beta        2 (A")     -0.3541
               32      Occ  Beta        3 (A")     -0.3017
               33      Occ  Beta        4 (A")     -0.2853
               40      Vir  Alpha       7 (A")      0.2458
               41      Vir  Alpha       8 (A")      0.2502
               42      Vir  Alpha       9 (A")      0.3507
               43      Vir  Alpha      10 (A")      0.4966
               40      Vir  Beta        5 (A")      0.1035
               41      Vir  Beta        6 (A")      0.2257
               43      Vir  Beta        7 (A")      0.2792
               42      Vir  Beta        8 (A")      0.3946
               44      Vir  Beta        9 (A")      0.4348
               45      Vir  Beta       10 (A")      0.5737


 EOMEE transition 14/A'
 Total energy = -394.62484965 a.u.  Excitation energy = 7.0263 eV.
 R0^2 = 0.0000  R1^2 = 0.7295  R2^2 = 0.2705  Res^2 = 7.76e-07
 Conv-d = yes

 Amplitude    Transitions between orbitals
  0.5332       6 (A") A                  ->    9 (A") A                   
  0.5204       2 (A") B                  ->    5 (A") B                   
 -0.1792       4 (A") B                  ->    7 (A") B                   
 -0.1475       4 (A") A                  ->    7 (A") A                   
 -0.1205       3 (A") B                  ->    8 (A") B                   
  0.1040       6 (A") A                  ->    10 (A") A                  

              Summary of significant orbitals:

               Number  Type             Irrep      Energy
               32      Occ  Alpha       4 (A")     -0.3153
               35      Occ  Alpha       6 (A")     -0.1423
               27      Occ  Beta        2 (A")     -0.3541
               32      Occ  Beta        3 (A")     -0.3017
               33      Occ  Beta        4 (A")     -0.2853
               40      Vir  Alpha       7 (A")      0.2458
               42      Vir  Alpha       9 (A")      0.3507
               43      Vir  Alpha      10 (A")      0.4966
               40      Vir  Beta        5 (A")      0.1035
               43      Vir  Beta        7 (A")      0.2792
               42      Vir  Beta        8 (A")      0.3946


 EOMEE transition 15/A'
 Total energy = -394.61152530 a.u.  Excitation energy = 7.3888 eV.
 R0^2 = 0.0000  R1^2 = 0.5091  R2^2 = 0.4909  Res^2 = 1.20e-06
 Conv-d = yes

 Amplitude    Transitions between orbitals
 -0.3912       6 (A") A                  ->    9 (A") A                   
 -0.2584       4 (A") A                  ->    8 (A") A                   
 -0.1950       1 (A") B                  ->    5 (A") B                   
 -0.1927       4 (A") B                  ->    7 (A") B                   
  0.1740       2 (A") B                  ->    7 (A") B                   
 -0.1546       2 (A") A                  ->    8 (A") A                   
  0.1509       3 (A") A                  ->    7 (A") A                   
 -0.1502       4 (A") A                  ->    9 (A") A                   
 -0.1491       3 (A") B                  ->    8 (A") B                   
 -0.1369       4 (A") B                  ->    9 (A") B                   
 -0.1277       2 (A") B                  ->    5 (A") B                   
 -0.1171       6 (A") A                  ->    8 (A") A                   
  0.2467       6 (A") A      3 (A") B    ->    8 (A") A      5 (A") B     
 -0.2467       6 (A") A      3 (A") B    ->    5 (A") B      8 (A") A     
 -0.2467       3 (A") B      6 (A") A    ->    8 (A") A      5 (A") B     
  0.2467       3 (A") B      6 (A") A    ->    5 (A") B      8 (A") A     
  0.2384       6 (A") A      4 (A") B    ->    7 (A") A      5 (A") B     
 -0.2384       6 (A") A      4 (A") B    ->    5 (A") B      7 (A") A     
 -0.2384       4 (A") B      6 (A") A    ->    7 (A") A      5 (A") B     
  0.2384       4 (A") B      6 (A") A    ->    5 (A") B      7 (A") A     
 -0.2003       3 (A") A      3 (A") B    ->    7 (A") A      5 (A") B     
  0.2003       3 (A") A      3 (A") B    ->    5 (A") B      7 (A") A     
  0.2003       3 (A") B      3 (A") A    ->    7 (A") A      5 (A") B     
 -0.2003       3 (A") B      3 (A") A    ->    5 (A") B      7 (A") A     
  0.1895       6 (A") A      3 (A") B    ->    7 (A") A      8 (A") B     
 -0.1895       6 (A") A      3 (A") B    ->    8 (A") B      7 (A") A     
 -0.1895       3 (A") B      6 (A") A    ->    7 (A") A      8 (A") B     
  0.1895       3 (A") B      6 (A") A    ->    8 (A") B      7 (A") A     
 -0.1835       6 (A") A      3 (A") B    ->    7 (A") A      6 (A") B     
  0.1835       6 (A") A      3 (A") B    ->    6 (A") B      7 (A") A     
  0.1835       3 (A") B      6 (A") A    ->    7 (A") A      6 (A") B     
 -0.1835       3 (A") B      6 (A") A    ->    6 (A") B      7 (A") A     
 -0.1455       5 (A") A      3 (A") B    ->    7 (A") A      5 (A") B     
  0.1455       5 (A") A      3 (A") B    ->    5 (A") B      7 (A") A     
  0.1455       3 (A") B      5 (A") A    ->    7 (A") A      5 (A") B     
 -0.1455       3 (A") B      5 (A") A    ->    5 (A") B      7 (A") A     
  0.1133       6 (A") A      1 (A") B    ->    7 (A") A      5 (A") B     
 -0.1133       6 (A") A      1 (A") B    ->    5 (A") B      7 (A") A     
 -0.1133       1 (A") B      6 (A") A    ->    7 (A") A      5 (A") B     
  0.1133       1 (A") B      6 (A") A    ->    5 (A") B      7 (A") A     

              Summary of significant orbitals:

               Number  Type             Irrep      Energy
               31      Occ  Alpha       2 (A")     -0.4452
               30      Occ  Alpha       3 (A")     -0.4187
               32      Occ  Alpha       4 (A")     -0.3153
               33      Occ  Alpha       5 (A")     -0.2901
               35      Occ  Alpha       6 (A")     -0.1423
               28      Occ  Beta        1 (A")     -0.4783
               27      Occ  Beta        2 (A")     -0.3541
               32      Occ  Beta        3 (A")     -0.3017
               33      Occ  Beta        4 (A")     -0.2853
               40      Vir  Alpha       7 (A")      0.2458
               41      Vir  Alpha       8 (A")      0.2502
               42      Vir  Alpha       9 (A")      0.3507
               40      Vir  Beta        5 (A")      0.1035
               41      Vir  Beta        6 (A")      0.2257
               43      Vir  Beta        7 (A")      0.2792
               42      Vir  Beta        8 (A")      0.3946
               44      Vir  Beta        9 (A")      0.4348


 EOMEE transition 16/A'
 Total energy = -394.60462418 a.u.  Excitation energy = 7.5766 eV.
 R0^2 = 0.0000  R1^2 = 0.5323  R2^2 = 0.4677  Res^2 = 2.18e-06
 Conv-d = yes

 Amplitude    Transitions between orbitals
  0.3140       3 (A") A                  ->    7 (A") A                   
 -0.2448       3 (A") B                  ->    8 (A") B                   
 -0.2228       4 (A") A                  ->    8 (A") A                   
 -0.2147       2 (A") A                  ->    8 (A") A                   
 -0.2142       4 (A") B                  ->    9 (A") B                   
 -0.1813       4 (A") B                  ->    7 (A") B                   
 -0.1692       4 (A") A                  ->    9 (A") A                   
  0.1662       2 (A") B                  ->    7 (A") B                   
 -0.1592       3 (A") B                  ->    6 (A") B                   
  0.1516       1 (A") B                  ->    5 (A") B                   
  0.1252       1 (A") B                  ->    7 (A") B                   
 -0.1116       4 (A") A                  ->    7 (A") A                   
 -0.2347       6 (A") A      4 (A") B    ->    7 (A") A      5 (A") B     
  0.2347       6 (A") A      4 (A") B    ->    5 (A") B      7 (A") A     
  0.2347       4 (A") B      6 (A") A    ->    7 (A") A      5 (A") B     
 -0.2347       4 (A") B      6 (A") A    ->    5 (A") B      7 (A") A     
 -0.2142       6 (A") A      1 (A") B    ->    7 (A") A      5 (A") B     
  0.2142       6 (A") A      1 (A") B    ->    5 (A") B      7 (A") A     
  0.2142       1 (A") B      6 (A") A    ->    7 (A") A      5 (A") B     
 -0.2142       1 (A") B      6 (A") A    ->    5 (A") B      7 (A") A     
 -0.2008       6 (A") A      3 (A") B    ->    8 (A") A      5 (A") B     
  0.2008       6 (A") A      3 (A") B    ->    5 (A") B      8 (A") A     
  0.2008       3 (A") B      6 (A") A    ->    8 (A") A      5 (A") B     
 -0.2008       3 (A") B      6 (A") A    ->    5 (A") B      8 (A") A     
  0.1464       6 (A") A      3 (A") B    ->    10 (A") A     5 (A") B     
 -0.1464       6 (A") A      3 (A") B    ->    5 (A") B      10 (A") A    
 -0.1464       3 (A") B      6 (A") A    ->    10 (A") A     5 (A") B     
  0.1464       3 (A") B      6 (A") A    ->    5 (A") B      10 (A") A    
  0.1217       5 (A") A      4 (A") B    ->    8 (A") A      5 (A") B     
 -0.1217       5 (A") A      4 (A") B    ->    5 (A") B      8 (A") A     
 -0.1217       4 (A") B      5 (A") A    ->    8 (A") A      5 (A") B     
  0.1217       4 (A") B      5 (A") A    ->    5 (A") B      8 (A") A     
  0.1181       6 (A") A      4 (A") B    ->    8 (A") A      6 (A") B     
 -0.1181       6 (A") A      4 (A") B    ->    6 (A") B      8 (A") A     
 -0.1181       4 (A") B      6 (A") A    ->    8 (A") A      6 (A") B     
  0.1181       4 (A") B      6 (A") A    ->    6 (A") B      8 (A") A     

              Summary of significant orbitals:

               Number  Type             Irrep      Energy
               31      Occ  Alpha       2 (A")     -0.4452
               30      Occ  Alpha       3 (A")     -0.4187
               32      Occ  Alpha       4 (A")     -0.3153
               33      Occ  Alpha       5 (A")     -0.2901
               35      Occ  Alpha       6 (A")     -0.1423
               28      Occ  Beta        1 (A")     -0.4783
               27      Occ  Beta        2 (A")     -0.3541
               32      Occ  Beta        3 (A")     -0.3017
               33      Occ  Beta        4 (A")     -0.2853
               40      Vir  Alpha       7 (A")      0.2458
               41      Vir  Alpha       8 (A")      0.2502
               42      Vir  Alpha       9 (A")      0.3507
               43      Vir  Alpha      10 (A")      0.4966
               40      Vir  Beta        5 (A")      0.1035
               41      Vir  Beta        6 (A")      0.2257
               43      Vir  Beta        7 (A")      0.2792
               42      Vir  Beta        8 (A")      0.3946
               44      Vir  Beta        9 (A")      0.4348


 EOMEE transition 17/A'
 Total energy = -394.59075717 a.u.  Excitation energy = 7.9540 eV.
 R0^2 = 0.0001  R1^2 = 0.3633  R2^2 = 0.6367  Res^2 = 5.05e-06
 Conv-d = yes

 Amplitude    Transitions between orbitals
  0.4016       6 (A") A      3 (A") B    ->    7 (A") A      5 (A") B     
 -0.4016       6 (A") A      3 (A") B    ->    5 (A") B      7 (A") A     
 -0.4016       3 (A") B      6 (A") A    ->    7 (A") A      5 (A") B     
  0.4016       3 (A") B      6 (A") A    ->    5 (A") B      7 (A") A     
 -0.2290       6 (A") A      3 (A") B    ->    8 (A") A      6 (A") B     
  0.2290       6 (A") A      3 (A") B    ->    6 (A") B      8 (A") A     
  0.2290       3 (A") B      6 (A") A    ->    8 (A") A      6 (A") B     
 -0.2290       3 (A") B      6 (A") A    ->    6 (A") B      8 (A") A     
 -0.2228       5 (A") A      4 (A") B    ->    7 (A") A      5 (A") B     
  0.2228       5 (A") A      4 (A") B    ->    5 (A") B      7 (A") A     
  0.2228       4 (A") B      5 (A") A    ->    7 (A") A      5 (A") B     
 -0.2228       4 (A") B      5 (A") A    ->    5 (A") B      7 (A") A     
 -0.1374       5 (A") A      3 (A") B    ->    8 (A") A      5 (A") B     
  0.1374       5 (A") A      3 (A") B    ->    5 (A") B      8 (A") A     
  0.1374       3 (A") B      5 (A") A    ->    8 (A") A      5 (A") B     
 -0.1374       3 (A") B      5 (A") A    ->    5 (A") B      8 (A") A     
  0.1371       6 (A") A      4 (A") B    ->    7 (A") A      8 (A") B     
 -0.1371       6 (A") A      4 (A") B    ->    8 (A") B      7 (A") A     
 -0.1371       4 (A") B      6 (A") A    ->    7 (A") A      8 (A") B     
  0.1371       4 (A") B      6 (A") A    ->    8 (A") B      7 (A") A     
 -0.1370       6 (A") A      4 (A") B    ->    8 (A") A      5 (A") B     
  0.1370       6 (A") A      4 (A") B    ->    5 (A") B      8 (A") A     
  0.1370       4 (A") B      6 (A") A    ->    8 (A") A      5 (A") B     
 -0.1370       4 (A") B      6 (A") A    ->    5 (A") B      8 (A") A     
  0.1271       3 (A") B      4 (A") B    ->    5 (A") B      6 (A") B     
 -0.1271       3 (A") B      4 (A") B    ->    6 (A") B      5 (A") B     
 -0.1271       4 (A") B      3 (A") B    ->    5 (A") B      6 (A") B     
  0.1271       4 (A") B      3 (A") B    ->    6 (A") B      5 (A") B     
 -0.1253       6 (A") A      4 (A") B    ->    7 (A") A      6 (A") B     
  0.1253       6 (A") A      4 (A") B    ->    6 (A") B      7 (A") A     
  0.1253       4 (A") B      6 (A") A    ->    7 (A") A      6 (A") B     
 -0.1253       4 (A") B      6 (A") A    ->    6 (A") B      7 (A") A     
 -0.1164       3 (A") A      4 (A") B    ->    7 (A") A      5 (A") B     
  0.1164       3 (A") A      4 (A") B    ->    5 (A") B      7 (A") A     
  0.1164       4 (A") B      3 (A") A    ->    7 (A") A      5 (A") B     
 -0.1164       4 (A") B      3 (A") A    ->    5 (A") B      7 (A") A     
 -0.1157       5 (A") A      1 (A") B    ->    7 (A") A      5 (A") B     
  0.1157       5 (A") A      1 (A") B    ->    5 (A") B      7 (A") A     
  0.1157       1 (A") B      5 (A") A    ->    7 (A") A      5 (A") B     
 -0.1157       1 (A") B      5 (A") A    ->    5 (A") B      7 (A") A     
 -0.1091       5 (A") A      6 (A") A    ->    7 (A") A      8 (A") A     
  0.1091       5 (A") A      6 (A") A    ->    8 (A") A      7 (A") A     
  0.1091       6 (A") A      5 (A") A    ->    7 (A") A      8 (A") A     
 -0.1091       6 (A") A      5 (A") A    ->    8 (A") A      7 (A") A     
 -0.1071       3 (A") A      3 (A") B    ->    8 (A") A      5 (A") B     
  0.1071       3 (A") A      3 (A") B    ->    5 (A") B      8 (A") A     
  0.1071       3 (A") B      3 (A") A    ->    8 (A") A      5 (A") B     
 -0.1071       3 (A") B      3 (A") A    ->    5 (A") B      8 (A") A     

              Summary of significant orbitals:

               Number  Type             Irrep      Energy
               30      Occ  Alpha       3 (A")     -0.4187
               33      Occ  Alpha       5 (A")     -0.2901
               35      Occ  Alpha       6 (A")     -0.1423
               28      Occ  Beta        1 (A")     -0.4783
               32      Occ  Beta        3 (A")     -0.3017
               33      Occ  Beta        4 (A")     -0.2853
               40      Vir  Alpha       7 (A")      0.2458
               41      Vir  Alpha       8 (A")      0.2502
               40      Vir  Beta        5 (A")      0.1035
               41      Vir  Beta        6 (A")      0.2257
               42      Vir  Beta        8 (A")      0.3946


 EOMEE transition 18/A'
 Total energy = -394.58969408 a.u.  Excitation energy = 7.9829 eV.
 R0^2 = 0.0002  R1^2 = 0.8308  R2^2 = 0.1692  Res^2 = 1.58e-06
 Conv-d = yes

 Amplitude    Transitions between orbitals
  0.5946       5 (A") A                  ->    8 (A") A                   
 -0.5347       4 (A") B                  ->    6 (A") B                   
  0.2804       4 (A") A                  ->    7 (A") A                   
  0.1418       3 (A") A                  ->    8 (A") A                   
  0.1374       5 (A") A                  ->    9 (A") A                   
  0.1172       6 (A") A                  ->    7 (A") A                   
  0.1137       5 (A") A                  ->    7 (A") A                   

              Summary of significant orbitals:

               Number  Type             Irrep      Energy
               30      Occ  Alpha       3 (A")     -0.4187
               32      Occ  Alpha       4 (A")     -0.3153
               33      Occ  Alpha       5 (A")     -0.2901
               35      Occ  Alpha       6 (A")     -0.1423
               33      Occ  Beta        4 (A")     -0.2853
               40      Vir  Alpha       7 (A")      0.2458
               41      Vir  Alpha       8 (A")      0.2502
               42      Vir  Alpha       9 (A")      0.3507
               41      Vir  Beta        6 (A")      0.2257


 EOMEE transition 19/A'
 Total energy = -394.58081261 a.u.  Excitation energy = 8.2246 eV.
 R0^2 = 0.0036  R1^2 = 0.5939  R2^2 = 0.4061  Res^2 = 7.15e-06
 Conv-d = yes

 Amplitude    Transitions between orbitals
  0.3287       1 (A") B                  ->    6 (A") B                   
  0.2432       2 (A") B                  ->    6 (A") B                   
  0.2332       3 (A") B                  ->    6 (A") B                   
  0.2235       5 (A") A                  ->    8 (A") A                   
 -0.2180       5 (A") A                  ->    7 (A") A                   
 -0.2085       4 (A") B                  ->    8 (A") B                   
 -0.2052       5 (A") A                  ->    10 (A") A                  
  0.1995       3 (A") A                  ->    8 (A") A                   
  0.1798       2 (A") A                  ->    7 (A") A                   
 -0.1579       5 (A") A                  ->    9 (A") A                   
  0.1365       3 (A") B                  ->    9 (A") B                   
 -0.1112       3 (A") B                  ->    7 (A") B                   
 -0.1013       6 (A") A                  ->    10 (A") A                  
 -0.2749       6 (A") A      4 (A") B    ->    8 (A") A      5 (A") B     
  0.2749       6 (A") A      4 (A") B    ->    5 (A") B      8 (A") A     
  0.2749       4 (A") B      6 (A") A    ->    8 (A") A      5 (A") B     
 -0.2749       4 (A") B      6 (A") A    ->    5 (A") B      8 (A") A     
  0.1441       6 (A") A      4 (A") B    ->    9 (A") A      5 (A") B     
 -0.1441       6 (A") A      4 (A") B    ->    5 (A") B      9 (A") A     
 -0.1441       4 (A") B      6 (A") A    ->    9 (A") A      5 (A") B     
  0.1441       4 (A") B      6 (A") A    ->    5 (A") B      9 (A") A     
 -0.1435       6 (A") A      2 (A") B    ->    8 (A") A      5 (A") B     
  0.1435       6 (A") A      2 (A") B    ->    5 (A") B      8 (A") A     
  0.1435       2 (A") B      6 (A") A    ->    8 (A") A      5 (A") B     
 -0.1435       2 (A") B      6 (A") A    ->    5 (A") B      8 (A") A     
  0.1252       6 (A") A      3 (A") B    ->    7 (A") A      7 (A") B     
 -0.1252       6 (A") A      3 (A") B    ->    7 (A") B      7 (A") A     
 -0.1252       3 (A") B      6 (A") A    ->    7 (A") A      7 (A") B     
  0.1252       3 (A") B      6 (A") A    ->    7 (A") B      7 (A") A     
  0.1219       6 (A") A      3 (A") B    ->    7 (A") A      5 (A") B     
 -0.1219       6 (A") A      3 (A") B    ->    5 (A") B      7 (A") A     
 -0.1219       3 (A") B      6 (A") A    ->    7 (A") A      5 (A") B     
  0.1219       3 (A") B      6 (A") A    ->    5 (A") B      7 (A") A     
 -0.1185       6 (A") A      1 (A") B    ->    8 (A") A      5 (A") B     
  0.1185       6 (A") A      1 (A") B    ->    5 (A") B      8 (A") A     
  0.1185       1 (A") B      6 (A") A    ->    8 (A") A      5 (A") B     
 -0.1185       1 (A") B      6 (A") A    ->    5 (A") B      8 (A") A     
  0.1161       4 (A") A      3 (A") B    ->    7 (A") A      5 (A") B     
 -0.1161       4 (A") A      3 (A") B    ->    5 (A") B      7 (A") A     
 -0.1161       3 (A") B      4 (A") A    ->    7 (A") A      5 (A") B     
  0.1161       3 (A") B      4 (A") A    ->    5 (A") B      7 (A") A     
 -0.1091       6 (A") A      3 (A") B    ->    8 (A") A      5 (A") B     
  0.1091       6 (A") A      3 (A") B    ->    5 (A") B      8 (A") A     
  0.1091       3 (A") B      6 (A") A    ->    8 (A") A      5 (A") B     
 -0.1091       3 (A") B      6 (A") A    ->    5 (A") B      8 (A") A     

              Summary of significant orbitals:

               Number  Type             Irrep      Energy
               31      Occ  Alpha       2 (A")     -0.4452
               30      Occ  Alpha       3 (A")     -0.4187
               32      Occ  Alpha       4 (A")     -0.3153
               33      Occ  Alpha       5 (A")     -0.2901
               35      Occ  Alpha       6 (A")     -0.1423
               28      Occ  Beta        1 (A")     -0.4783
               27      Occ  Beta        2 (A")     -0.3541
               32      Occ  Beta        3 (A")     -0.3017
               33      Occ  Beta        4 (A")     -0.2853
               40      Vir  Alpha       7 (A")      0.2458
               41      Vir  Alpha       8 (A")      0.2502
               42      Vir  Alpha       9 (A")      0.3507
               43      Vir  Alpha      10 (A")      0.4966
               40      Vir  Beta        5 (A")      0.1035
               41      Vir  Beta        6 (A")      0.2257
               43      Vir  Beta        7 (A")      0.2792
               42      Vir  Beta        8 (A")      0.3946
               44      Vir  Beta        9 (A")      0.4348


 EOMEE transition 20/A'
 Total energy = -394.57221363 a.u.  Excitation energy = 8.4586 eV.
 R0^2 = 0.0028  R1^2 = 0.7819  R2^2 = 0.2181  Res^2 = 3.67e-06
 Conv-d = yes

 Amplitude    Transitions between orbitals
 -0.5687       5 (A") A                  ->    7 (A") A                   
  0.4831       3 (A") B                  ->    6 (A") B                   
 -0.1772       1 (A") B                  ->    6 (A") B                   
 -0.1582       2 (A") B                  ->    6 (A") B                   
 -0.1473       2 (A") A                  ->    7 (A") A                   
 -0.1428       3 (A") A                  ->    7 (A") A                   
 -0.1278       3 (A") B                  ->    8 (A") B                   
 -0.1171       3 (A") B                  ->    9 (A") B                   
 -0.1124       6 (A") A                  ->    10 (A") A                  
  0.1042       5 (A") A                  ->    10 (A") A                  
  0.1041       5 (A") A                  ->    9 (A") A                   

              Summary of significant orbitals:

               Number  Type             Irrep      Energy
               31      Occ  Alpha       2 (A")     -0.4452
[...]
 <Sz=-1.00|(-0.000000,0.000000)(0.052469,-2.096964)(0.000000,-0.000000)
 <Sz=0.00|(-0.052469,-2.096964)(-0.000000,0.000000)(0.052469,-2.096964)
 <Sz=1.00|(0.000000,0.000000)(-0.052469,-2.096964)(-0.000000,-0.000000)
 Singlet part of <S|| Hso(L0) ||S'> = (-0.000000,-0.000000) (excluded from all matrix elements)
 L-/L+ Averaged reduced matrix elements:
 <S|| Hso(L-) ||S'> = (0.074202,2.965554)
 <S|| Hso(L+) ||S'> = (0.074202,-2.965554)
 ______________________________________________________________
 B(Ket)->A(Bra) transition SO matrices
Full 2e SOC is not implemented withing libqints. 
I will do mean-field SOC with libqints, which is usually as good as full 2e SOC
 Analysing Sz ans S^2 of the pair of states...
 Ket state:  Computed S^2 = 2.200523 will be treated as 2.000000 Sz = 1.000000
 Bra state:  Computed S^2 = 2.045418 will be treated as 2.000000 Sz = 1.000000
 Clebsh-Gordan coefficient: <1.000,1.000;1.000,0.000|1.000,1.000> = 0.707
 _________________________________________________
 One-electron SO (cm-1)
 Reduced matrix elements:
 <S|| Hso(L-) ||S'> = (0.266897,-6.481750)
 <S|| Hso(L0) ||S'> = (0.000000,0.000000)
 <S|| Hso(L+) ||S'> = (0.266897,6.481750)
 SOCC = 9.174346
 Actual matrix elements:
       |Sz=-1.00>           |Sz=0.00>           |Sz=1.00>
 <Sz=-1.00|(-0.000000,-0.000000)(0.188725,4.583289)(0.000000,0.000000)
 <Sz=0.00|(-0.188725,4.583289)(-0.000000,-0.000000)(0.188725,4.583289)
 <Sz=1.00|(0.000000,-0.000000)(-0.188725,4.583289)(-0.000000,0.000000)
 _________________________________________________
 Mean-field SO (cm-1)
 Reduced matrix elements:
 <S|| Hso(L-) ||S'> = (0.162579,-3.517491)
 <S|| Hso(L0) ||S'> = (0.000000,0.000000)
 <S|| Hso(L+) ||S'> = (0.156974,3.506409)
 SOCC = 4.971785
 Actual matrix elements:
       |Sz=-1.00>           |Sz=0.00>           |Sz=1.00>
 <Sz=-1.00|(-0.000000,-0.000000)(0.112979,2.483324)(0.000000,0.000000)
 <Sz=0.00|(-0.112979,2.483324)(-0.000000,-0.000000)(0.112979,2.483324)
 <Sz=1.00|(0.000000,-0.000000)(-0.112979,2.483324)(-0.000000,0.000000)
 Singlet part of <S|| Hso(L0) ||S'> = (-0.000000,-0.000000) (excluded from all matrix elements)
 L-/L+ Averaged reduced matrix elements:
 <S|| Hso(L-) ||S'> = (0.159776,-3.511950)
 <S|| Hso(L+) ||S'> = (0.159776,3.511950)
 ______________________________________________________________
   Arithmetically averaged transition SO matrices
   (The phases shown, Ket and Bra assingment are from A(Ket)->B(Bra))
 _________________________________________________
 One-electron SO (cm-1)
 SOCC = 8.394385
 Actual matrix elements:
       |Sz=-1.00>           |Sz=0.00>           |Sz=1.00>
 <Sz=-1.00|(-0.000000,0.000000)(-0.022881,-4.197130)(0.000000,-0.000000)
 <Sz=0.00|(0.022881,-4.197130)(-0.000000,0.000000)(-0.022881,-4.197130)
 <Sz=1.00|(0.000000,-0.000000)(0.022881,-4.197130)(-0.000000,-0.000000)
 _________________________________________________
 Mean-field SO (cm-1)
 SOCC = 4.580687
 Actual matrix elements:
       |Sz=-1.00>           |Sz=0.00>           |Sz=1.00>
 <Sz=-1.00|(-0.000000,0.000000)(-0.030255,-2.290144)(0.000000,-0.000000)
 <Sz=0.00|(0.030255,-2.290144)(-0.000000,0.000000)(-0.030255,-2.290144)
 <Sz=1.00|(0.000000,-0.000000)(0.030255,-2.290144)(-0.000000,-0.000000)
 ______________________________________________________________

 ------------------------------------------------------------------------------
 State A: eomee_mp2/uhfref: 1/A'
 State B: eomee_mp2/uhfref: 19/A"
 Energy GAP = 0.290166 a.u. = 7.895815 eV
 Transition dipole moment (a.u.):
   A->B: 0.069719 (X 0.000000, Y 0.000000, Z -0.069719)
   B->A: 0.060834 (X 0.000000, Y 0.000000, Z -0.060834)
 Oscillator strength (a.u.): 0.000820
 Transition angular momentum against gauge origin (a.u.):
   A->B:  (X 0.263296i, Y 0.091978i, Z 0.000000i)
   B->A:  (X -0.242687i, Y -0.075991i, Z 0.000000i)
 Norm of one-particle transition density matrix:
   A->B: 0.410269;   B->A: 0.415729
   ||gamma^AB||*||gamma^BA||: 0.170561

 ______________________________________________________________
 A(Ket)->B(Bra) transition SO matrices
Full 2e SOC is not implemented withing libqints. 
I will do mean-field SOC with libqints, which is usually as good as full 2e SOC
 Analysing Sz ans S^2 of the pair of states...
 Ket state:  Computed S^2 = 2.045418 will be treated as 2.000000 Sz = 1.000000
WARNING! The deviation of S^2 from the correct value is large, indicating a significant spin contamination. The results may be unreliable
 Bra state:  Computed S^2 = 3.067632 will be treated as 2.000000 Sz = 1.000000
 Clebsh-Gordan coefficient: <1.000,1.000;1.000,0.000|1.000,1.000> = 0.707
 _________________________________________________
 One-electron SO (cm-1)
 Reduced matrix elements:
 <S|| Hso(L-) ||S'> = (0.081015,11.555369)
 <S|| Hso(L0) ||S'> = (0.000000,-0.000000)
 <S|| Hso(L+) ||S'> = (0.081015,-11.555369)
 SOCC = 16.342162
 Actual matrix elements:
       |Sz=-1.00>           |Sz=0.00>           |Sz=1.00>
 <Sz=-1.00|(-0.000000,-0.000000)(0.057286,-8.170880)(0.000000,-0.000000)
 <Sz=0.00|(-0.057286,-8.170880)(-0.000000,0.000000)(0.057286,-8.170880)
 <Sz=1.00|(0.000000,0.000000)(-0.057286,-8.170880)(-0.000000,-0.000000)
 _________________________________________________
 Mean-field SO (cm-1)
 Reduced matrix elements:
 <S|| Hso(L-) ||S'> = (-0.004512,6.307299)
 <S|| Hso(L0) ||S'> = (0.000000,-0.000000)
 <S|| Hso(L+) ||S'> = (-0.008517,-6.315837)
 SOCC = 8.925910
 Actual matrix elements:
       |Sz=-1.00>           |Sz=0.00>           |Sz=1.00>
 <Sz=-1.00|(0.000000,-0.000000)(-0.004606,-4.462952)(-0.000000,-0.000000)
 <Sz=0.00|(0.004606,-4.462952)(0.000000,0.000000)(-0.004606,-4.462952)
 <Sz=1.00|(-0.000000,0.000000)(0.004606,-4.462952)(0.000000,-0.000000)
 Singlet part of <S|| Hso(L0) ||S'> = (-0.000000,-0.000000) (excluded from all matrix elements)
 L-/L+ Averaged reduced matrix elements:
 <S|| Hso(L-) ||S'> = (-0.006515,6.311568)
 <S|| Hso(L+) ||S'> = (-0.006515,-6.311568)
 ______________________________________________________________
 B(Ket)->A(Bra) transition SO matrices
Full 2e SOC is not implemented withing libqints. 
I will do mean-field SOC with libqints, which is usually as good as full 2e SOC
 Analysing Sz ans S^2 of the pair of states...
WARNING! The deviation of S^2 from the correct value is large, indicating a significant spin contamination. The results may be unreliable
 Ket state:  Computed S^2 = 3.067632 will be treated as 2.000000 Sz = 1.000000
 Bra state:  Computed S^2 = 2.045418 will be treated as 2.000000 Sz = 1.000000
 Clebsh-Gordan coefficient: <1.000,1.000;1.000,0.000|1.000,1.000> = 0.707
 _________________________________________________
 One-electron SO (cm-1)
 Reduced matrix elements:
 <S|| Hso(L-) ||S'> = (-0.168847,-12.278895)
 <S|| Hso(L0) ||S'> = (0.000000,0.000000)
 <S|| Hso(L+) ||S'> = (-0.168847,12.278895)
 SOCC = 17.366621
 Actual matrix elements:
       |Sz=-1.00>           |Sz=0.00>           |Sz=1.00>
 <Sz=-1.00|(0.000000,0.000000)(-0.119393,8.682490)(-0.000000,0.000000)
 <Sz=0.00|(0.119393,8.682490)(0.000000,-0.000000)(-0.119393,8.682490)
 <Sz=1.00|(-0.000000,-0.000000)(0.119393,8.682490)(0.000000,0.000000)
 _________________________________________________
 Mean-field SO (cm-1)
 Reduced matrix elements:
 <S|| Hso(L-) ||S'> = (-0.043687,-6.685449)
 <S|| Hso(L0) ||S'> = (0.000000,0.000000)
 <S|| Hso(L+) ||S'> = (-0.049132,6.677929)
 SOCC = 9.449563
 Actual matrix elements:
       |Sz=-1.00>           |Sz=0.00>           |Sz=1.00>
 <Sz=-1.00|(0.000000,0.000000)(-0.032816,4.724668)(-0.000000,0.000000)
 <Sz=0.00|(0.032816,4.724668)(0.000000,-0.000000)(-0.032816,4.724668)
 <Sz=1.00|(-0.000000,-0.000000)(0.032816,4.724668)(0.000000,0.000000)
 Singlet part of <S|| Hso(L0) ||S'> = (-0.000000,0.000000) (excluded from all matrix elements)
 L-/L+ Averaged reduced matrix elements:
 <S|| Hso(L-) ||S'> = (-0.046409,-6.681689)
 <S|| Hso(L+) ||S'> = (-0.046409,6.681689)
 ______________________________________________________________
   Arithmetically averaged transition SO matrices
   (The phases shown, Ket and Bra assingment are from A(Ket)->B(Bra))
 _________________________________________________
 One-electron SO (cm-1)
 SOCC = 16.854296
 Actual matrix elements:
       |Sz=-1.00>           |Sz=0.00>           |Sz=1.00>
 <Sz=-1.00|(0.000000,-0.000000)(0.088340,-8.426685)(0.000000,-0.000000)
 <Sz=0.00|(-0.088340,-8.426685)(0.000000,0.000000)(0.088340,-8.426685)
 <Sz=1.00|(-0.000000,-0.000000)(-0.088340,-8.426685)(0.000000,-0.000000)
 _________________________________________________
 Mean-field SO (cm-1)
 SOCC = 9.187663
 Actual matrix elements:
       |Sz=-1.00>           |Sz=0.00>           |Sz=1.00>
 <Sz=-1.00|(0.000000,-0.000000)(0.014105,-4.593810)(-0.000000,-0.000000)
 <Sz=0.00|(-0.014105,-4.593810)(0.000000,0.000000)(0.014105,-4.593810)
 <Sz=1.00|(-0.000000,-0.000000)(-0.014105,-4.593810)(0.000000,-0.000000)
 ______________________________________________________________

 ------------------------------------------------------------------------------
 State A: eomee_mp2/uhfref: 1/A'
 State B: eomee_mp2/uhfref: 20/A"
 Energy GAP = 0.295040 a.u. = 8.028455 eV
 Transition dipole moment (a.u.):
   A->B: 0.013946 (X 0.000000, Y 0.000000, Z -0.013946)
   B->A: 0.012282 (X 0.000000, Y 0.000000, Z -0.012282)
 Oscillator strength (a.u.): 0.000034
 Transition angular momentum against gauge origin (a.u.):
   A->B:  (X -0.005185i, Y 0.033542i, Z 0.000000i)
   B->A:  (X 0.019801i, Y -0.020695i, Z 0.000000i)
 Norm of one-particle transition density matrix:
   A->B: 0.238394;   B->A: 0.277643
   ||gamma^AB||*||gamma^BA||: 0.066188

 ______________________________________________________________
 A(Ket)->B(Bra) transition SO matrices
Full 2e SOC is not implemented withing libqints. 
I will do mean-field SOC with libqints, which is usually as good as full 2e SOC
 Analysing Sz ans S^2 of the pair of states...
 Ket state:  Computed S^2 = 2.045418 will be treated as 2.000000 Sz = 1.000000
WARNING! The deviation of S^2 from the correct value is large, indicating a significant spin contamination. The results may be unreliable
 Bra state:  Computed S^2 = 3.375211 will be treated as 2.000000 Sz = 1.000000
 Clebsh-Gordan coefficient: <1.000,1.000;1.000,0.000|1.000,1.000> = 0.707
 _________________________________________________
 One-electron SO (cm-1)
 Reduced matrix elements:
 <S|| Hso(L-) ||S'> = (0.189255,-1.327813)
 <S|| Hso(L0) ||S'> = (0.000000,0.000000)
 <S|| Hso(L+) ||S'> = (0.189255,1.327813)
 SOCC = 1.896789
 Actual matrix elements:
       |Sz=-1.00>           |Sz=0.00>           |Sz=1.00>
 <Sz=-1.00|(-0.000000,-0.000000)(0.133823,0.938906)(0.000000,0.000000)
 <Sz=0.00|(-0.133823,0.938906)(-0.000000,-0.000000)(0.133823,0.938906)
 <Sz=1.00|(0.000000,-0.000000)(-0.133823,0.938906)(-0.000000,0.000000)
 _________________________________________________
 Mean-field SO (cm-1)
 Reduced matrix elements:
 <S|| Hso(L-) ||S'> = (0.096891,-0.692166)
 <S|| Hso(L0) ||S'> = (0.000000,0.000000)
 <S|| Hso(L+) ||S'> = (0.112777,0.685065)
 SOCC = 0.985070
 Actual matrix elements:
       |Sz=-1.00>           |Sz=0.00>           |Sz=1.00>
 <Sz=-1.00|(-0.000000,-0.000000)(0.074129,0.486925)(0.000000,0.000000)
 <Sz=0.00|(-0.074129,0.486925)(-0.000000,-0.000000)(0.074129,0.486925)
 <Sz=1.00|(0.000000,-0.000000)(-0.074129,0.486925)(-0.000000,0.000000)
 Singlet part of <S|| Hso(L0) ||S'> = (-0.000000,-0.000000) (excluded from all matrix elements)
 L-/L+ Averaged reduced matrix elements:
 <S|| Hso(L-) ||S'> = (0.104834,-0.688616)
 <S|| Hso(L+) ||S'> = (0.104834,0.688616)
 ______________________________________________________________
 B(Ket)->A(Bra) transition SO matrices
Full 2e SOC is not implemented withing libqints. 
I will do mean-field SOC with libqints, which is usually as good as full 2e SOC
 Analysing Sz ans S^2 of the pair of states...
WARNING! The deviation of S^2 from the correct value is large, indicating a significant spin contamination. The results may be unreliable
 Ket state:  Computed S^2 = 3.375211 will be treated as 2.000000 Sz = 1.000000
 Bra state:  Computed S^2 = 2.045418 will be treated as 2.000000 Sz = 1.000000
 Clebsh-Gordan coefficient: <1.000,1.000;1.000,0.000|1.000,1.000> = 0.707
 _________________________________________________
 One-electron SO (cm-1)
 Reduced matrix elements:
 <S|| Hso(L-) ||S'> = (-0.284894,1.959469)
 <S|| Hso(L0) ||S'> = (0.000000,-0.000000)
 <S|| Hso(L+) ||S'> = (-0.284894,-1.959469)
 SOCC = 2.800244
 Actual matrix elements:
       |Sz=-1.00>           |Sz=0.00>           |Sz=1.00>
 <Sz=-1.00|(0.000000,0.000000)(-0.201451,-1.385554)(-0.000000,-0.000000)
 <Sz=0.00|(0.201451,-1.385554)(0.000000,0.000000)(-0.201451,-1.385554)
 <Sz=1.00|(-0.000000,0.000000)(0.201451,-1.385554)(0.000000,-0.000000)
 _________________________________________________
 Mean-field SO (cm-1)
 Reduced matrix elements:
 <S|| Hso(L-) ||S'> = (-0.082798,1.013598)
 <S|| Hso(L0) ||S'> = (0.000000,-0.000000)
 <S|| Hso(L+) ||S'> = (-0.068459,-1.023459)
 SOCC = 1.444382
 Actual matrix elements:
       |Sz=-1.00>           |Sz=0.00>           |Sz=1.00>
 <Sz=-1.00|(0.000000,0.000000)(-0.053477,-0.720208)(-0.000000,-0.000000)
 <Sz=0.00|(0.053477,-0.720208)(0.000000,0.000000)(-0.053477,-0.720208)
 <Sz=1.00|(-0.000000,0.000000)(0.053477,-0.720208)(0.000000,-0.000000)
 Singlet part of <S|| Hso(L0) ||S'> = (-0.000000,0.000000) (excluded from all matrix elements)
 L-/L+ Averaged reduced matrix elements:
 <S|| Hso(L-) ||S'> = (-0.075628,1.018528)
 <S|| Hso(L+) ||S'> = (-0.075628,-1.018528)
 ______________________________________________________________
   Arithmetically averaged transition SO matrices
   (The phases shown, Ket and Bra assingment are from A(Ket)->B(Bra))
 _________________________________________________
 One-electron SO (cm-1)
 SOCC = 2.348514
 Actual matrix elements:
       |Sz=-1.00>           |Sz=0.00>           |Sz=1.00>
 <Sz=-1.00|(0.000000,-0.000000)(0.167637,1.162230)(0.000000,0.000000)
 <Sz=0.00|(-0.167637,1.162230)(0.000000,-0.000000)(0.167637,1.162230)
 <Sz=1.00|(-0.000000,0.000000)(-0.167637,1.162230)(0.000000,0.000000)
 _________________________________________________
 Mean-field SO (cm-1)
 SOCC = 1.213859
 Actual matrix elements:
       |Sz=-1.00>           |Sz=0.00>           |Sz=1.00>
 <Sz=-1.00|(-0.000000,-0.000000)(0.063803,0.603567)(0.000000,0.000000)
 <Sz=0.00|(-0.063803,0.603567)(-0.000000,-0.000000)(0.063803,0.603567)
 <Sz=1.00|(-0.000000,0.000000)(-0.063803,0.603567)(-0.000000,0.000000)
 ______________________________________________________________


 All requested transition properties have been computed

 Transition Properties:   CPU 108.43 s  wall 109.14 s

 Total ccman2 time:   CPU 811.18 s  wall 806.42 s

 
 --------------------------------------------------------------
             Orbital Energies (a.u.) and Symmetries
 --------------------------------------------------------------
 
 Alpha MOs, Restricted
 -- Doubly Occupied --           
-15.326 -11.080 -11.061 -11.051 -11.045 -11.039 -11.038 -11.037
  1 A'    2 A'    3 A'    4 A'    5 A'    6 A'    7 A'    8 A'                 
-11.038 -11.034  -1.194  -1.090  -1.032  -0.973  -0.955  -0.841
  9 A'   10 A'   11 A'   12 A'   13 A'   14 A'   15 A'   16 A'                 
 -0.786  -0.778  -0.678  -0.653  -0.634  -0.573  -0.570  -0.534
 17 A'   18 A'   19 A'   20 A'   21 A'   22 A'   23 A'   24 A'                 
 -0.519  -0.508  -0.515  -0.465  -0.432  -0.424  -0.329  -0.350
 25 A'   26 A'    1 A"   27 A'   28 A'    2 A"   29 A'    3 A"                 
 -0.312
  4 A"                                                                         
 -- Singly Occupied (Occupied) --
 -0.359  -0.191
  5 A"    6 A"                                                                 
 -- Virtual --                   
  0.250   0.246   0.351   0.496   0.579   0.590   0.630   0.632
  7 A"    8 A"    9 A"   10 A"   30 A'   31 A'   32 A'   33 A'                 
  0.656   0.671   0.718   0.720   0.751   0.761   0.850   0.873
 34 A'   35 A'   36 A'   37 A'   38 A'   39 A'   40 A'   41 A'                 
  0.879   0.928   0.970   1.035   1.093   1.144
 42 A'   43 A'   44 A'   45 A'   46 A'   47 A'                                 
 
 Beta MOs, Restricted
 -- Doubly Occupied --           
-15.324 -11.079 -11.060 -11.051 -11.042 -11.038 -11.036 -11.035
  1 A'    2 A'    3 A'    4 A'    5 A'    6 A'    7 A'    8 A'                 
-11.020 -11.016  -1.183  -1.057  -1.017  -0.964  -0.897  -0.819
  9 A'   10 A'   11 A'   12 A'   13 A'   14 A'   15 A'   16 A'                 
 -0.777  -0.751  -0.663  -0.644  -0.626  -0.569  -0.555  -0.524
 17 A'   18 A'   19 A'   20 A'   21 A'   22 A'   23 A'   24 A'                 
 -0.511  -0.499  -0.478  -0.456  -0.423  -0.355  -0.323  -0.302
 25 A'   26 A'    1 A"   27 A'   28 A'    2 A"   29 A'    3 A"                 
 -0.285
  4 A"                                                                         
 -- Singly Occupied (Vacant) --  
  0.151   0.312
  5 A"    6 A"                                                                 
 -- Virtual --                   
  0.276   0.309   0.418   0.546   0.584   0.602   0.653   0.652
  7 A"    8 A"    9 A"   10 A"   30 A'   31 A'   32 A'   33 A'                 
  0.669   0.706   0.728   0.730   0.765   0.773   0.862   0.886
 34 A'   35 A'   36 A'   37 A'   38 A'   39 A'   40 A'   41 A'                 
  0.886   0.938   0.980   1.040   1.100   1.154
 42 A'   43 A'   44 A'   45 A'   46 A'   47 A'                                 
 --------------------------------------------------------------
 
          Ground-State Mulliken Net Atomic Charges

     Atom                 Charge (a.u.)
  ----------------------------------------
      1 C                    -0.007266
      2 C                     0.089068
      3 C                    -0.055240
      4 C                    -0.055581
      5 C                    -0.057323
      6 C                    -0.045113
      7 N                    -0.244452
      8 C                    -0.052444
      9 C                    -0.075060
     10 C                     0.022820
     11 H                     0.067025
     12 H                     0.070119
     13 H                     0.072165
     14 H                     0.060352
     15 H                     0.067392
     16 H                     0.068429
     17 H                     0.075108
  ----------------------------------------
  Sum of atomic charges =     0.000000

 -----------------------------------------------------------------
                    Cartesian Multipole Moments
 -----------------------------------------------------------------
    Charge (ESU x 10^10)
                -0.0000
    Dipole Moment (Debye)
         X       0.6518      Y      -1.7997      Z      -0.0000
       Tot       1.9141
    Quadrupole Moments (Debye-Ang)
        XX     -47.9583     XY       2.4445     YY     -54.5491
        XZ      -0.0000     YZ       0.0000     ZZ     -54.9688
    Octopole Moments (Debye-Ang^2)
       XXX      -3.5292    XXY       0.1110    XYY       5.2659
       YYY      -9.3037    XXZ       0.0000    XYZ      -0.0000
       YYZ       0.0000    XZZ      -1.0417    YZZ       1.6565
       ZZZ       0.0000
    Hexadecapole Moments (Debye-Ang^3)
      XXXX   -1029.8050   XXXY      -3.9011   XXYY    -253.6829
      XYYY      12.6404   YYYY    -457.0828   XXXZ       0.0000
      XXYZ       0.0000   XYYZ       0.0000   YYYZ       0.0000
      XXZZ    -203.2621   XYZZ      -1.7416   YYZZ     -88.1864
      XZZZ       0.0000   YZZZ      -0.0000   ZZZZ     -43.3776
 -----------------------------------------------------------------
 Total job time:  835.98s(wall), 839.06s(cpu) 
 Fri Jan 26 13:07:59 2024

        *************************************************************
        *                                                           *
        *  Thank you very much for using Q-Chem.  Have a nice day.  *
        *                                                           *
        *************************************************************


