                  Welcome to Q-Chem
     A Quantum Leap Into The Future Of Chemistry


 Q-Chem 6.0 (devel), Q-Chem, Inc., Pleasanton, CA (2022)

 E. Epifanovsky,  A. T. B. Gilbert,  Xintian Feng,  Joonho Lee,  Yuezhi Mao,  
 N. Mardirossian,  P. Pokhilko,  A. White,  M. Wormit,  M. P. Coons,  
 A. L. Dempwolff,  Zhengting Gan,  D. Hait,  P. R. Horn,  L. D. Jacobson,  
 I. Kaliman,  J. Kussmann,  A. W. Lange,  Ka Un Lao,  D. S. Levine,  Jie Liu,  
 S. C. McKenzie,  A. F. Morrison,  K. Nanda,  F. Plasser,  D. R. Rehn,  
 M. L. Vidal,  Zhi-Qiang You,  Ying Zhu,  B. Alam,  B. Albrecht,  
 A. Aldossary,  E. Alguire,  J. H. Andersen,  V. Athavale,  D. Barton,  
 K. Begam,  A. Behn,  N. Bellonzi,  Y. A. Bernard,  E. J. Berquist,  
 H. Burton,  A. Carreras,  K. Carter-Fenk,  Romit Chakraborty,  
 Chandrima Chakravarty,  Junhan Chen,  A. D. Chien,  K. D. Closser,  
 V. Cofer-Shabica,  L. Cunha,  S. Dasgupta,  Jia Deng,  M. de Wergifosse,  
 M. Diedenhofen,  Hainam Do,  S. Ehlert,  Po-Tung Fang,  S. Fatehi,  
 Qingguo Feng,  T. Friedhoff,  B. Ganoe,  J. Gayvert,  Qinghui Ge,  
 G. Gidofalvi,  M. Goldey,  J. Gomes,  C. Gonzalez-Espinoza,  S. Gulania,  
 A. Gunina,  J. A. Gyamfi,  M. W. D. Hanson-Heine,  P. H. P. Harbach,  
 A. W. Hauser,  M. F. Herbst,  M. Hernandez Vera,  M. Hodecker,  
 Z. C. Holden,  S. Houck,  Xunkun Huang,  Kerwin Hui,  B. C. Huynh,  
 K. Ikeda,  M. Ivanov,  Hyunjun Ji,  Zuxin Jin,  Hanjie Jiang,  B. Kaduk,  
 S. Kaehler,  R. Kang,  K. Khistyaev,  Jaehoon Kim,  Yongbin Kim,  
 P. Klunzinger,  Z. Koczor-Benda,  Joong Hoon Koh,  D. Kosenkov,  
 Saikiran Kotaru,  L. Koulias,  T. Kowalczyk,  C. M. Krauter,  K. Kue,  
 A. Kunitsa,  T. Kus,  A. Landau,  K. V. Lawler,  D. Lefrancois,  S. Lehtola,  
 Rain Li,  Shaozhi Li,  Yi-Pei Li,  Jiashu Liang,  M. Liebenthal,  
 Hung-Hsuan Lin,  You-Sheng Lin,  Fenglai Liu,  Kuan-Yu Liu,  
 M. Loipersberger,  A. Luenser,  C. Malbon,  A. Manjanath,  P. Manohar,  
 E. Mansoor,  S. F. Manzer,  Shan-Ping Mao,  A. V. Marenich,  T. Markovich,  
 S. Mason,  F. Matz,  S. A. Maurer,  P. F. McLaughlin,  M. F. S. J. Menger,  
 J.-M. Mewes,  S. A. Mewes,  P. Morgante,  Mohammad Mostafanejad,  
 J. W. Mullinax,  K. J. Oosterbaan,  G. Paran,  V. Parravicini,  
 Alexander C. Paul,  Suranjan K. Paul,  F. Pavosevic,  Zheng Pei,  S. Prager,  
 E. I. Proynov,  E. Ramos,  B. Rana,  A. E. Rask,  A. Rettig,  R. M. Richard,  
 F. Rob,  E. Rossomme,  T. Scheele,  M. Scheurer,  M. Schneider,  
 P. E. Schneider,  N. Sergueev,  S. M. Sharada,  Hengyuan Shen,  
 W. Skomorowski,  D. W. Small,  C. J. Stein,  Yingli Su,  Yu-Chuan Su,  
 E. J. Sundstrom,  Zhen Tao,  J. Thirman,  Hung-Yi Tsai,  T. Tsuchimochi,  
 N. M. Tubman,  C. Utku,  S. P. Veccham,  O. Vydrov,  J. Wenzel,  
 Jonathan Wong,  J. Witte,  A. Yamada,  Chou-Hsun Yang,  Kun Yao,  
 S. Yeganeh,  S. R. Yost,  A. Zech,  F. Zeller,  Igor Ying Zhang,  
 Xing Zhang,  Yu Zhang,  D. Zuev,  A. Aspuru-Guzik,  A. T. Bell,  
 N. A. Besley,  K. B. Bravaya,  B. R. Brooks,  D. Casanova,  Jeng-Da Chai,  
 Hsing-Ta Chen,  S. Coriani,  C. J. Cramer,  A. E. DePrince, III,  
 R. A. DiStasio Jr.,  A. Dreuw,  B. D. Dunietz,  T. R. Furlani,  
 W. A. Goddard III,  S. Grimme,  S. Hammes-Schiffer,  T. Head-Gordon,  
 W. J. Hehre,  Chao-Ping Hsu,  T.-C. Jagau,  Yousung Jung,  A. Klamt,  
 Jing Kong,  D. S. Lambrecht,  Xiangyuan Li,  WanZhen Liang,  N. J. Mayhall,  
 C. W. McCurdy,  J. B. Neaton,  T. Neudecker,  C. Ochsenfeld,  
 J. A. Parkhill,  R. Peverati,  V. A. Rassolov,  Haisheng Ren,  Yihan Shao,  
 L. V. Slipchenko,  R. P. Steele,  J. E. Subotnik,  A. J. W. Thom,  
 A. Tkatchenko,  D. G. Truhlar,  T. Van Voorhis,  Fan Wang,  
 T. A. Wesolowski,  K. B. Whaley,  H. L. Woodcock III,  P. M. Zimmerman,  
 S. Faraji,  P. M. W. Gill,  M. Head-Gordon,  J. M. Herbert,  A. I. Krylov

 Contributors to earlier versions of Q-Chem not listed above: 
 R. D. Adamson,  B. Austin,  R. Baer,  J. Baker,  G. J. O. Beran,  
 K. Brandhorst,  S. T. Brown,  E. F. C. Byrd,  Arup K. Chakraborty,  
 G. K. L. Chan,  Chun-Min Chang,  Yunqing Chen,  C.-L. Cheng,  
 Siu Hung Chien,  D. M. Chipman,  D. L. Crittenden,  H. Dachsel,  
 R. J. Doerksen,  A. D. Dutoi,  R. G. Edgar,  J. Fosso-Tande,  
 L. Fusti-Molnar,  D. Ghosh,  A. Ghysels,  A. Golubeva-Zadorozhnaya,  
 J. Gonthier,  M. S. Gordon,  S. R. Gwaltney,  G. Hawkins,  J. E. Herr,  
 A. Heyden,  S. Hirata,  E. G. Hohenstein,  G. Kedziora,  F. J. Keil,  
 C. Kelley,  Jihan Kim,  R. A. King,  R. Z. Khaliullin,  P. P. Korambath,  
 W. Kurlancheek,  A. Laurent,  A. M. Lee,  M. S. Lee,  S. V. Levchenko,  
 Ching Yeh Lin,  D. Liotard,  E. Livshits,  R. C. Lochan,  I. Lotan,  
 L. A. Martinez-Martinez,  P. E. Maslen,  N. Nair,  D. P. O'Neill,  
 D. Neuhauser,  E. Neuscamman,  C. M. Oana,  R. Olivares-Amaya,  R. Olson,  
 T. M. Perrine,  B. Peters,  P. A. Pieniazek,  A. Prociuk,  Y. M. Rhee,  
 J. Ritchie,  M. A. Rohrdanz,  E. Rosta,  N. J. Russ,  H. F. Schaefer III,  
 M. W. Schmidt,  N. E. Schultz,  S. Sharma,  N. Shenvi,  C. D. Sherrill,  
 A. C. Simmonett,  A. Sodt,  T. Stein,  D. Stuck,  K. S. Thanthiriwatte,  
 V. Vanovschi,  L. Vogt,  Tao Wang,  A. Warshel,  M. A. Watson,  
 C. F. Williams,  Q. Wu,  X. Xu,  Jun Yang,  W. Zhang,  Yan Zhao

   Please cite Q-Chem as follows:
  "Software for the frontiers of quantum chemistry:
   An overview of developments in the Q-Chem 5 package"
   J. Chem. Phys. 155, 084801 (2021)
   https://doi.org/10.1063/5.0055522 (open access)

 Q-Chem 6.0.1 for Intel X86 EM64T Linux

 Parts of Q-Chem use Armadillo 9.900.5 (Nocturnal Misbehaviour).
 http://arma.sourceforge.net/

 Q-Chem begins on Fri Jan 26 13:31:27 2024  

 Host: atlas-269
0

     Scratch files written to ./qchem111861//
 Processing $rem in /scratch/abel/SOFTWARE/qchem/config/preferences:
 Processing $rem in /dipc/acebg/.qchemrc:
 Core orbitals will be frozen

 Checking the input file for inconsistencies... 	...done.

--------------------------------------------------------------
User input:
--------------------------------------------------------------
$comment
 RAS-SF CALCULATION
$end

$molecule
 READ quinoline_singlet.molecule
$end

$rem
!**CALCULATION TYPE***     
JOBTYPE            sp    
!BASIS              def2-TZVP
BASIS             STO-3G

!***SCF REFERENCE***
INPUT_BOHR 	    TRUE
!SKIP_SCFMAN        FALSE
UNRESTRICTED       FALSE
!SCF_GUESS          core
!SCF_GUESS_MIX      FALSE
!SCF_GUESS_ALWAYS   FALSE
MAX_SCF_CYCLES     500
!SCF_CONVERGENCE    10
SCF_ALGORITHM      DIIS_GDM !DIIS,DM,DIIS_DM,GDM,DIIS_GDM,GD

!SYMMETRY           TRUE   !use of symmetry for calculating integrals
!SYM_IGNORE         FALSE  !turn off using symmetry
!SYM_TOL            5      !tolerance for determining point group
!USE_ABELIAN_SUBGROUP      !define to use abelian group

!THRESH             14
!SCF_FINAL_PRINT     1 !0,1,2,3

!****CCSD****
CORRELATION        CCSD
!CC_CONVERGENCE     6
!CC_MAX_ITER        200
CC_PRINT	   2
!CHOLESKY_TOL       3 !Toler. decomposition 2e integrals
CC_REF_PROP  	   1 !one-particle CCSD properties calculation
!CC_REF_PROP_TE	   0 !two-particle CCSD properties calculation
!CC_FNO_THRESH
!CC_BACKEND	   XM !Used to specify the computational back-end of CCMAN2.

!****EOM****
METHOD             EOM-MP2
SF_STATES	   [20,20]
CC_STATE_TO_OPT    [1,1]
CC_EOM_PROP        1
CC_EOM_PROP_TE	   1
CC_TRANS_PROP      1
CALC_SOC           TRUE   !calculate SOC for EOM-CC, RAS-CI, ADC, TDDFT/TDA and TDDFT

!****MEMORY****
MEM_TOTAL          90000 !Default 2000 MB
MEM_STATIC         7000  !Default 64 MB
CC_MEMORY          72000

!**Molecular Properties and Analysis **                                                                                          
!POP_MULLIKEN       TRUE   !Run Mulliken population analysis
!LOWDIN_POPULATION  TRUE   !Run Löwdin population analysis
GUI                0       !Checkpoints generation
!STATE_ANALYSIS     TRUE

!**Wave function analysis**
!PLOTS = 0     ! Note: This can be omitted, default is 0
!NTO_PAIRS = 2 ! Note: This can be omitted, default is 2
!GUI 0
!MOLDEN_FORMAT      TRUE
!PRINT_ORBITALS     15
$end

!$plots
!   grid_points 100 100 100
!   grid_range  (-10,10) (-10,10) (-10,10)
!$end

--------------------------------------------------------------
 ----------------------------------------------------------------
             Standard Nuclear Orientation (Bohr)
    I     Atom           X                Y                Z
 ----------------------------------------------------------------
    1      C      -0.0559353627    -1.3989916065    -0.0000000000
    2      C      -0.0782415914     1.3256554364     0.0000000000
    3      C       2.3016375305    -2.6538713366    -0.0000000000
    4      C       4.6667611846    -1.2654684416    -0.0000000000
    5      C       4.6497706855     1.3016649328    -0.0000000000
    6      C       2.2722800840     2.6377967747    -0.0000000000
    7      N      -2.2102262665     2.6945577754     0.0000000000
    8      C      -2.3995793248    -2.6420616021     0.0000000000
    9      C      -4.6640560358    -1.1648929097     0.0000000000
   10      C      -4.4878393265     1.4051065478     0.0000000000
   11      H      -2.4867924844    -4.6867516752     0.0000000000
   12      H      -6.4947443947    -2.0790860337     0.0000000000
   13      H      -6.1538984074     2.5944746854     0.0000000000
   14      H       2.3432526882    -4.7016054474    -0.0000000000
   15      H       6.4266657394    -2.3097175760    -0.0000000000
   16      H       6.3951035242     2.3693643728    -0.0000000000
   17      H       2.2132101396     4.6817904753    -0.0000000000
 ----------------------------------------------------------------
 Molecular Point Group                 Cs    NOp =  2
 Largest Abelian Subgroup              Cs    NOp =  2
 Nuclear Repulsion Energy =         458.56962217 hartrees
 There are       34 alpha and       34 beta electrons
 Requested basis set is STO-3G
 There are 27 shells and 57 basis functions
WARNING: MEM_STATIC is adjusted to be 2000 MB!
 Total memory of 90000 MB is distributed as follows: 
   MEM_STATIC is set to 2000 MB
   QALLOC/CCMAN JOB total memory use is  88000 MB
 Warning: actual memory use might exceed 90000 MB

 Total QAlloc Memory Limit  90000 MB
 Mega-Array Size      1956 MB
 MEM_STATIC part      2000 MB

 A cutoff of  1.0D-14 yielded    344 shell pairs
 There are      1679 function pairs
 Smallest overlap matrix eigenvalue = 1.78E-01

 Scale SEOQF with 1.000000e-01/1.000000e-01/1.000000e+00

 Standard Electronic Orientation quadrupole field applied
 Nucleus-field energy     =     0.0000000148 hartrees
 Guess from superposition of atomic densities
 Warning:  Energy on first SCF cycle will be non-variational
 SAD guess density has 68.000000 electrons

 -----------------------------------------------------------------------
  General SCF calculation program by
  Eric Jon Sundstrom, Paul Horn, Yuezhi Mao, Dmitri Zuev, Alec White,
  David Stuck, Shaama M.S., Shane Yost, Joonho Lee, David Small,
  Daniel Levine, Susi Lehtola, Hugh Burton, Evgeny Epifanovsky,
  Bang C. Huynh
 -----------------------------------------------------------------------
 Hartree-Fock
 A restricted SCF calculation will be
 performed using DIIS, GDM
 SCF converges when RMS gradient is below 1.0e-08
 ---------------------------------------
  Cycle       Energy         DIIS error
 ---------------------------------------
    1    -394.8507897908      1.55e-01  
    2    -394.2952280444      1.27e-02  
    3    -394.3799200864      6.57e-03  Done DIIS. Switching to GDM
 ---------------------------------------
  Cycle       Energy        RMS Gradient
 ---------------------------------------
    1    -394.3799200864      5.80e-02   Normal BFGS step
    2    -394.3941706000      5.74e-02   Normal BFGS step
    3    -394.4018200530      4.18e-03   Normal BFGS step
    4    -394.4020734445      3.48e-03   Normal BFGS step
    5    -394.4021678002      1.31e-03   Normal BFGS step
    6    -394.4021852287      4.12e-04   Normal BFGS step
    7    -394.4021882816      1.98e-04   Normal BFGS step
    8    -394.4021886648      6.84e-05   Normal BFGS step
    9    -394.4021887461      1.68e-05   Normal BFGS step
   10    -394.4021887522      1.14e-05   Normal BFGS step
   11    -394.4021887529      3.19e-06   Normal BFGS step
   12    -394.4021887530      9.32e-07   Normal BFGS step
   13    -394.4021887530      2.73e-07   Normal BFGS step
   14    -394.4021887530      1.62e-07   Normal BFGS step
   15    -394.4021887530      6.67e-08   Normal BFGS step
   16    -394.4021887530      2.51e-08   Normal BFGS step
   17    -394.4021887530      1.03e-08   Normal BFGS step
   18    -394.4021887530      1.91e-09  Convergence criterion met
 ---------------------------------------
 SCF time:   CPU 1.68s  wall 3.00s 
 SCF   energy in the final basis set =     -394.4021887530
 Total energy in the final basis set =     -394.4021887530
 mp2 is not implemented in computing transition properties!


 ------------------------------------------------------------------------------

   CCMAN2: suite of methods based on coupled cluster
           and equation of motion theories.

   Components:
   * libvmm-1.3-trunk
     by Evgeny Epifanovsky, Ilya Kaliman.
   * libtensor-2.5-trunk
     by Evgeny Epifanovsky, Michael Wormit, Dmitry Zuev, Sam Manzer, 
        Ilya Kaliman.
   * libcc-2.5-trunk
     by Evgeny Epifanovsky, Arik Landau, Tomasz Kus, Kirill Khistyaev, 
        Dmitry Zuev, Prashant Manohar, Xintian Feng, Anna Krylov, 
        Matthew Goldey, Alec White, Thomas Jagau, Kaushik Nanda, 
        Anastasia Gunina, Alexander Kunitsa, Joonho Lee.

   CCMAN original authors:
   Anna I. Krylov, C. David Sherrill, Steven R. Gwaltney,
   Edward F. C. Byrd (2000)
   Sergey V. Levchenko, Lyudmila V. Slipchenko, Tao Wang,
   Ana-Maria C. Cristian (2003)
   Piotr A. Pieniazek, C. Melania Oana, Evgeny Epifanovsky (2007)
   Prashant Manohar (2009)

 ------------------------------------------------------------------------------


 Allocating and initializing 72000MB of RAM...
 Calculation will run on 1 core.

 
 Alpha MOs, Restricted
 -- Occupied --                  
-15.330 -11.074 -11.069 -11.055 -11.052 -11.044 -11.040 -11.039
  1 A'    2 A'    3 A'    4 A'    5 A'    6 A'    7 A'    8 A'                 
-11.037 -11.034  -1.191  -1.074  -1.029  -0.970  -0.928  -0.832
  9 A'   10 A'   11 A'   12 A'   13 A'   14 A'   15 A'   16 A'                 
 -0.783  -0.765  -0.672  -0.650  -0.633  -0.573  -0.562  -0.529
 17 A'   18 A'   19 A'   20 A'   21 A'   22 A'   23 A'   24 A'                 
 -0.518  -0.506  -0.505  -0.461  -0.428  -0.406  -0.348  -0.328
 25 A'   26 A'    1 A"   27 A'   28 A'    2 A"    3 A"   29 A'                 
 -0.285  -0.214
  4 A"    5 A"                                                                 
 -- Virtual --                   
  0.160   0.246   0.309   0.396   0.533   0.579   0.595   0.637
  6 A"    7 A"    8 A"    9 A"   10 A"   30 A'   31 A'   32 A'                 
  0.647   0.661   0.690   0.721   0.725   0.755   0.769   0.853
 33 A'   34 A'   35 A'   36 A'   37 A'   38 A'   39 A'   40 A'                 
  0.880   0.881   0.931   0.972   1.033   1.095   1.149
 41 A'   42 A'   43 A'   44 A'   45 A'   46 A'   47 A'                         
 
 Beta MOs, Restricted
 -- Occupied --                  
-15.330 -11.074 -11.069 -11.055 -11.052 -11.044 -11.040 -11.039
  1 A'    2 A'    3 A'    4 A'    5 A'    6 A'    7 A'    8 A'                 
-11.037 -11.034  -1.191  -1.074  -1.029  -0.970  -0.928  -0.832
  9 A'   10 A'   11 A'   12 A'   13 A'   14 A'   15 A'   16 A'                 
 -0.783  -0.765  -0.672  -0.650  -0.633  -0.573  -0.562  -0.529
 17 A'   18 A'   19 A'   20 A'   21 A'   22 A'   23 A'   24 A'                 
 -0.518  -0.506  -0.505  -0.461  -0.428  -0.406  -0.348  -0.328
 25 A'   26 A'    1 A"   27 A'   28 A'    2 A"    3 A"   29 A'                 
 -0.285  -0.214
  4 A"    5 A"                                                                 
 -- Virtual --                   
  0.160   0.246   0.309   0.396   0.533   0.579   0.595   0.637
  6 A"    7 A"    8 A"    9 A"   10 A"   30 A'   31 A'   32 A'                 
  0.647   0.661   0.690   0.721   0.725   0.755   0.769   0.853
 33 A'   34 A'   35 A'   36 A'   37 A'   38 A'   39 A'   40 A'                 
  0.880   0.881   0.931   0.972   1.033   1.095   1.149
 41 A'   42 A'   43 A'   44 A'   45 A'   46 A'   47 A'                         

 Occupation and symmetry of molecular orbitals

 Point group: Cs (2 irreducible representations).

                           A'   A"    All 
 ------------------------------------------
 All molecular orbitals:
  - Alpha                  47   10    57  
  - Beta                   47   10    57  
 ------------------------------------------
 Alpha orbitals:
  - Frozen occupied        10   0     10  
  - Active occupied        19   5     24  
  - Active virtual         18   5     23  
  - Frozen virtual         0    0     0   
 ------------------------------------------
 Beta orbitals:
  - Frozen occupied        10   0     10  
  - Active occupied        19   5     24  
  - Active virtual         18   5     23  
  - Frozen virtual         0    0     0   
 ------------------------------------------

 Import integrals:   CPU 0.00 s  wall 0.00 s

 Import integrals:   CPU 0.51 s  wall 0.55 s

 Computing CCSD intermediates for later calculations in double precision
 Finished.

 MP2 amplitudes:   CPU 0.46 s  wall 0.50 s

        Solving for EOMSF-CCSD A' transitions.

Running a double precision version
       EOMSF-CCSD/MP2 right amplitudes will be solved using Davidson.
        Amplitudes will be solved using standard  algorithm.
     Hard-coded thresholds: 
     LinDepThresh=1.00e-15  NormThresh=1.00e-06  ReorthogonThresh=1.00e-02

      Roots     MaxVec    MaxIter   Precond   Conv      Shift    
      20        120       60        1         1.00e-05  0.00e+00  
 ------------------------------------------------------------------------------
      Iter ConvRoots NVecs ResNorm^2 Current eigenvalues (eV)
 ------------------------------------------------------------------------------
      0    0      40    1.18e-01   3.8578   6.1293   7.9491   8.5795   8.6141   8.8861   10.2912   10.7456   10.9366   11.4980   11.9291   12.2247   13.8787   14.2421   15.8917   15.9626   16.7345   17.4700   17.8691   18.1244   
      1    0      60    1.35e-02   2.5236   4.6936   5.2495   6.1352   6.4914   6.6646   8.1681   8.3560   8.3965   8.7913   9.2944   9.6411   10.5510   10.6154   12.1293   12.3298   12.8383   13.4168   13.9217   14.5138   
      2    0      80    3.22e-03   2.2434   4.3875   4.6856   5.6587   6.0758   6.4344   7.5615   7.7400   7.8862   8.2063   8.9408   9.0116   9.7074   10.0284   11.5211   11.6087   12.1892   12.4048   12.9834   13.6974   
      3    0      100   9.13e-04   2.2199   4.3565   4.5969   5.5962   6.0182   6.4211   7.4345   7.6078   7.8391   8.0459   8.8031   8.9816   9.5580   9.9770   11.4340   11.4734   12.0185   12.2541   12.6528   13.5280   
      4    0      120   1.90e-03   2.2177   4.3528   4.5735   5.5875   6.0117   6.4194   7.4103   7.5854   7.8289   7.9788   8.7795   8.9745   9.5354   9.9609   11.3684   11.4264   11.8524   11.9719   12.3559   12.5073   
      5    4      40    6.07e-04   2.2175*  4.3521*  4.5687   5.5860   6.0108*  6.4188*  7.4048   7.5807   7.8259   7.9529   8.7746   8.9720   9.5305   9.9552   11.0716   11.3433   11.4196   11.9435   12.2511   12.4218   
      6    7      56    2.61e-04   2.2175*  4.3521*  4.5678*  5.5856*  6.0107*  6.4188*  7.4024   7.5791   7.8245   7.9428   8.7731   8.9710*  9.5284   9.9506   10.6593   11.3394   11.4119   11.9349   12.2309   12.4042   
      7    13     69    5.73e-05   2.2175*  4.3521*  4.5672*  5.5856*  6.0107*  6.4187*  7.4022*  7.5789*  7.8241*  7.9405   8.7728*  8.9708*  9.5281*  9.9490*  10.5590   11.3323   11.4078   11.9274   12.2248   12.3826   
      8    14     76    2.85e-05   2.2175*  4.3521*  4.5672*  5.5856*  6.0107*  6.4187*  7.4022*  7.5789*  7.8241*  7.9406*  8.7728*  8.9708*  9.5282*  9.9487*  10.5410   11.3319   11.4047   11.9273   12.2203   12.3761   
      9    15     82    2.03e-05   2.2175*  4.3521*  4.5672*  5.5856*  6.0107*  6.4187*  7.4022*  7.5789*  7.8241*  7.9405*  8.7727*  8.9708*  9.5282*  9.9487*  10.5371   11.3281   11.4034*  11.9224   12.2168   12.3698   
Found complex roots...
      10   18     87    9.47e-06   2.2175*  4.3521*  4.5672*  5.5856*  6.0107*  6.4187*  7.4022*  7.5789*  7.8241*  7.9404*  8.7727*  8.9708*  9.5282*  9.9486*  10.5359*  11.3266*  11.4024*  11.9220*  12.2093   12.3520   
      11   18     89    7.28e-06   2.2175*  4.3521*  4.5672*  5.5856*  6.0107*  6.4187*  7.4021*  7.5789*  7.8240*  7.9404*  8.7727*  8.9708*  9.5282*  9.9486*  10.5357*  11.3270*  11.4031*  11.9219*  12.2102   12.3496   
      12   19     91    4.52e-06   2.2175*  4.3521*  4.5672*  5.5856*  6.0107*  6.4187*  7.4021*  7.5789*  7.8241*  7.9404*  8.7727*  8.9708*  9.5282*  9.9486*  10.5357*  11.3267*  11.4030*  11.9219*  12.2093*  12.3462   
      13   19     92    3.65e-06   2.2175*  4.3521*  4.5672*  5.5856*  6.0107*  6.4187*  7.4021*  7.5789*  7.8240*  7.9404*  8.7727*  8.9708*  9.5282*  9.9486*  10.5357*  11.3267*  11.4031*  11.9219*  12.2093*  12.3454   
      14   19     93    2.67e-06   2.2175*  4.3521*  4.5672*  5.5856*  6.0107*  6.4187*  7.4021*  7.5789*  7.8240*  7.9404*  8.7727*  8.9708*  9.5282*  9.9486*  10.5357*  11.3267*  11.4032*  11.9219*  12.2092*  12.3433   
      15   20     94    2.02e-06   2.2175*  4.3521*  4.5672*  5.5856*  6.0107*  6.4187*  7.4021*  7.5789*  7.8240*  7.9404*  8.7727*  8.9708*  9.5282*  9.9486*  10.5357*  11.3267*  11.4032*  11.9219*  12.2092*  12.3421*  

     Davidson procedure converged

 EOMSF transition 1/A'
 Total energy = -394.91589337 a.u.  Excitation energy = 2.2175 eV.
 R1^2 = 0.9300  R2^2 = 0.0700  Res^2 = 5.64e-07
 Conv-d = yes

 Amplitude    Transitions between orbitals
 -0.8983       5 (A") A                  ->    6 (A") B                   
  0.2301       3 (A") A                  ->    8 (A") B                   
 -0.1708       4 (A") A                  ->    7 (A") B                   
  0.1305       2 (A") A                  ->    9 (A") B                   

              Summary of significant orbitals:

               Number  Type             Irrep      Energy
               30      Occ  Alpha       2 (A")     -0.4064
               31      Occ  Alpha       3 (A")     -0.3483
               33      Occ  Alpha       4 (A")     -0.2851
               34      Occ  Alpha       5 (A")     -0.2138
               35      Vir  Beta        6 (A")      0.1598
               36      Vir  Beta        7 (A")      0.2461
               37      Vir  Beta        8 (A")      0.3086
               38      Vir  Beta        9 (A")      0.3962


 EOMSF transition 2/A'
 Total energy = -394.83744783 a.u.  Excitation energy = 4.3521 eV.
 R1^2 = 0.9285  R2^2 = 0.0715  Res^2 = 2.67e-06
 Conv-d = yes

 Amplitude    Transitions between orbitals
  0.6894       3 (A") A                  ->    6 (A") B                   
 -0.6238       5 (A") A                  ->    8 (A") B                   
 -0.1110       1 (A") A                  ->    9 (A") B                   
  0.0990       2 (A") A                  ->    10 (A") B                  

              Summary of significant orbitals:

               Number  Type             Irrep      Energy
               27      Occ  Alpha       1 (A")     -0.5052
               30      Occ  Alpha       2 (A")     -0.4064
               31      Occ  Alpha       3 (A")     -0.3483
               34      Occ  Alpha       5 (A")     -0.2138
               35      Vir  Beta        6 (A")      0.1598
               37      Vir  Beta        8 (A")      0.3086
               38      Vir  Beta        9 (A")      0.3962
               39      Vir  Beta       10 (A")      0.5327


 EOMSF transition 3/A'
 Total energy = -394.82954306 a.u.  Excitation energy = 4.5672 eV.
 R1^2 = 0.8424  R2^2 = 0.1576  Res^2 = 8.35e-07
 Conv-d = yes

 Amplitude    Transitions between orbitals
 -0.6869       4 (A") A                  ->    6 (A") B                   
 -0.5793       5 (A") A                  ->    7 (A") B                   
  0.1191       2 (A") A                  ->    8 (A") B                   
  0.1018       3 (A") A                  ->    9 (A") B                   

              Summary of significant orbitals:

               Number  Type             Irrep      Energy
               30      Occ  Alpha       2 (A")     -0.4064
               31      Occ  Alpha       3 (A")     -0.3483
               33      Occ  Alpha       4 (A")     -0.2851
               34      Occ  Alpha       5 (A")     -0.2138
               35      Vir  Beta        6 (A")      0.1598
               36      Vir  Beta        7 (A")      0.2461
               37      Vir  Beta        8 (A")      0.3086
               38      Vir  Beta        9 (A")      0.3962


 EOMSF transition 4/A'
 Total energy = -394.79211687 a.u.  Excitation energy = 5.5856 eV.
 R1^2 = 0.8784  R2^2 = 0.1216  Res^2 = 1.15e-06
 Conv-d = yes

 Amplitude    Transitions between orbitals
 -0.8824       4 (A") A                  ->    7 (A") B                   
  0.1931       5 (A") A                  ->    6 (A") B                   
  0.1881       2 (A") A                  ->    9 (A") B                   
 -0.0934       1 (A") A                  ->    10 (A") B                  

              Summary of significant orbitals:

               Number  Type             Irrep      Energy
               27      Occ  Alpha       1 (A")     -0.5052
               30      Occ  Alpha       2 (A")     -0.4064
               33      Occ  Alpha       4 (A")     -0.2851
               34      Occ  Alpha       5 (A")     -0.2138
               35      Vir  Beta        6 (A")      0.1598
               36      Vir  Beta        7 (A")      0.2461
               38      Vir  Beta        9 (A")      0.3962
               39      Vir  Beta       10 (A")      0.5327


 EOMSF transition 5/A'
 Total energy = -394.77649411 a.u.  Excitation energy = 6.0107 eV.
 R1^2 = 0.8848  R2^2 = 0.1152  Res^2 = 3.55e-06
 Conv-d = yes

 Amplitude    Transitions between orbitals
  0.6092       2 (A") A                  ->    6 (A") B                   
 -0.4780       5 (A") A                  ->    9 (A") B                   
 -0.3323       4 (A") A                  ->    8 (A") B                   
  0.3076       3 (A") A                  ->    7 (A") B                   
 -0.1496       4 (A") A                  ->    6 (A") B                   
  0.1367       5 (A") A                  ->    7 (A") B                   
 -0.1132       1 (A") A                  ->    8 (A") B                   

              Summary of significant orbitals:

               Number  Type             Irrep      Energy
               27      Occ  Alpha       1 (A")     -0.5052
               30      Occ  Alpha       2 (A")     -0.4064
               31      Occ  Alpha       3 (A")     -0.3483
               33      Occ  Alpha       4 (A")     -0.2851
               34      Occ  Alpha       5 (A")     -0.2138
               35      Vir  Beta        6 (A")      0.1598
               36      Vir  Beta        7 (A")      0.2461
               37      Vir  Beta        8 (A")      0.3086
               38      Vir  Beta        9 (A")      0.3962


 EOMSF transition 6/A'
 Total energy = -394.76150057 a.u.  Excitation energy = 6.4187 eV.
 R1^2 = 0.9244  R2^2 = 0.0756  Res^2 = 1.14e-06
 Conv-d = yes

 Amplitude    Transitions between orbitals
  0.7040       5 (A") A                  ->    7 (A") B                   
 -0.5995       4 (A") A                  ->    6 (A") B                   
 -0.1739       2 (A") A                  ->    6 (A") B                   
  0.1182       5 (A") A                  ->    9 (A") B                   

              Summary of significant orbitals:

               Number  Type             Irrep      Energy
               30      Occ  Alpha       2 (A")     -0.4064
               33      Occ  Alpha       4 (A")     -0.2851
               34      Occ  Alpha       5 (A")     -0.2138
               35      Vir  Beta        6 (A")      0.1598
               36      Vir  Beta        7 (A")      0.2461
               38      Vir  Beta        9 (A")      0.3962


 EOMSF transition 7/A'
 Total energy = -394.72536115 a.u.  Excitation energy = 7.4021 eV.
 R1^2 = 0.8293  R2^2 = 0.1707  Res^2 = 1.31e-06
 Conv-d = yes

 Amplitude    Transitions between orbitals
 -0.5729       2 (A") A                  ->    7 (A") B                   
  0.5245       4 (A") A                  ->    9 (A") B                   
 -0.3226       3 (A") A                  ->    7 (A") B                   
  0.1512       4 (A") A                  ->    8 (A") B                   
  0.1362       3 (A") A                  ->    6 (A") B                   
  0.1279       1 (A") A                  ->    9 (A") B                   
 -0.1268       2 (A") A                  ->    10 (A") B                  
  0.1220       2 (A") A                  ->    6 (A") B                   

              Summary of significant orbitals:

               Number  Type             Irrep      Energy
               27      Occ  Alpha       1 (A")     -0.5052
               30      Occ  Alpha       2 (A")     -0.4064
               31      Occ  Alpha       3 (A")     -0.3483
               33      Occ  Alpha       4 (A")     -0.2851
               35      Vir  Beta        6 (A")      0.1598
               36      Vir  Beta        7 (A")      0.2461
               37      Vir  Beta        8 (A")      0.3086
               38      Vir  Beta        9 (A")      0.3962
               39      Vir  Beta       10 (A")      0.5327


 EOMSF transition 8/A'
 Total energy = -394.71886674 a.u.  Excitation energy = 7.5789 eV.
 R1^2 = 0.8206  R2^2 = 0.1794  Res^2 = 6.36e-07
 Conv-d = yes

 Amplitude    Transitions between orbitals
  0.4748       4 (A") A                  ->    8 (A") B                   
 -0.4456       3 (A") A                  ->    7 (A") B                   
  0.3099       2 (A") A                  ->    7 (A") B                   
  0.2628       2 (A") A                  ->    6 (A") B                   
 -0.2252       4 (A") A                  ->    9 (A") B                   
 -0.1944       1 (A") A                  ->    8 (A") B                   
  0.1687       3 (A") A                  ->    10 (A") B                  
 -0.1668       5 (A") A                  ->    9 (A") B                   
 -0.1377       2 (A") A                  ->    8 (A") B                   
  0.1336       1 (A") A                  ->    6 (A") B                   
  0.1291       5 (A") A                  ->    10 (A") B                  

              Summary of significant orbitals:

               Number  Type             Irrep      Energy
               27      Occ  Alpha       1 (A")     -0.5052
               30      Occ  Alpha       2 (A")     -0.4064
               31      Occ  Alpha       3 (A")     -0.3483
               33      Occ  Alpha       4 (A")     -0.2851
               34      Occ  Alpha       5 (A")     -0.2138
               35      Vir  Beta        6 (A")      0.1598
               36      Vir  Beta        7 (A")      0.2461
               37      Vir  Beta        8 (A")      0.3086
               38      Vir  Beta        9 (A")      0.3962
               39      Vir  Beta       10 (A")      0.5327


 EOMSF transition 9/A'
 Total energy = -394.70985614 a.u.  Excitation energy = 7.8240 eV.
 R1^2 = 0.8628  R2^2 = 0.1372  Res^2 = 5.68e-07
 Conv-d = yes

 Amplitude    Transitions between orbitals
 -0.6184       5 (A") A                  ->    8 (A") B                   
 -0.5375       3 (A") A                  ->    6 (A") B                   
 -0.2615       3 (A") A                  ->    8 (A") B                   
  0.1926       1 (A") A                  ->    6 (A") B                   
  0.1313       5 (A") A                  ->    10 (A") B                  
 -0.1265       5 (A") A                  ->    6 (A") B                   
 -0.1040       3 (A") A                  ->    9 (A") B                   
 -0.1012       2 (A") A                  ->    8 (A") B                   

              Summary of significant orbitals:

               Number  Type             Irrep      Energy
               27      Occ  Alpha       1 (A")     -0.5052
               30      Occ  Alpha       2 (A")     -0.4064
               31      Occ  Alpha       3 (A")     -0.3483
               34      Occ  Alpha       5 (A")     -0.2138
               35      Vir  Beta        6 (A")      0.1598
               37      Vir  Beta        8 (A")      0.3086
               38      Vir  Beta        9 (A")      0.3962
               39      Vir  Beta       10 (A")      0.5327


 EOMSF transition 10/A'
 Total energy = -394.70557868 a.u.  Excitation energy = 7.9404 eV.
 R1^2 = 0.7746  R2^2 = 0.2254  Res^2 = 1.85e-07
 Conv-d = yes

 Amplitude    Transitions between orbitals
 -0.5555       1 (A") A                  ->    6 (A") B                   
 -0.3353       5 (A") A                  ->    10 (A") B                  
  0.3181       2 (A") A                  ->    8 (A") B                   
  0.2814       3 (A") A                  ->    9 (A") B                   
 -0.2098       5 (A") A                  ->    8 (A") B                   
  0.1610       4 (A") A                  ->    8 (A") B                   
 -0.1551       3 (A") A                  ->    6 (A") B                   
 -0.1298       1 (A") A                  ->    8 (A") B                   
  0.1062       3 (A") A                  ->    10 (A") B                  
 -0.1007       3 (A") A                  ->    8 (A") B                   

              Summary of significant orbitals:

               Number  Type             Irrep      Energy
               27      Occ  Alpha       1 (A")     -0.5052
               30      Occ  Alpha       2 (A")     -0.4064
               31      Occ  Alpha       3 (A")     -0.3483
               33      Occ  Alpha       4 (A")     -0.2851
               34      Occ  Alpha       5 (A")     -0.2138
               35      Vir  Beta        6 (A")      0.1598
               37      Vir  Beta        8 (A")      0.3086
               38      Vir  Beta        9 (A")      0.3962
               39      Vir  Beta       10 (A")      0.5327


 EOMSF transition 11/A'
 Total energy = -394.67499396 a.u.  Excitation energy = 8.7727 eV.
 R1^2 = 0.8109  R2^2 = 0.1891  Res^2 = 1.08e-06
 Conv-d = yes

 Amplitude    Transitions between orbitals
 -0.6890       3 (A") A                  ->    8 (A") B                   
 -0.3235       1 (A") A                  ->    7 (A") B                   
  0.2522       3 (A") A                  ->    6 (A") B                   
 -0.2433       4 (A") A                  ->    10 (A") B                  
  0.2174       5 (A") A                  ->    8 (A") B                   
  0.1598       2 (A") A                  ->    9 (A") B                   
 -0.1096       5 (A") A                  ->    6 (A") B                   

              Summary of significant orbitals:

               Number  Type             Irrep      Energy
               27      Occ  Alpha       1 (A")     -0.5052
               30      Occ  Alpha       2 (A")     -0.4064
               31      Occ  Alpha       3 (A")     -0.3483
               33      Occ  Alpha       4 (A")     -0.2851
               34      Occ  Alpha       5 (A")     -0.2138
               35      Vir  Beta        6 (A")      0.1598
               36      Vir  Beta        7 (A")      0.2461
               37      Vir  Beta        8 (A")      0.3086
               38      Vir  Beta        9 (A")      0.3962
               39      Vir  Beta       10 (A")      0.5327


 EOMSF transition 12/A'
 Total energy = -394.66771359 a.u.  Excitation energy = 8.9708 eV.
 R1^2 = 0.9008  R2^2 = 0.0992  Res^2 = 2.11e-06
 Conv-d = yes

 Amplitude    Transitions between orbitals
 -0.5905       4 (A") A                  ->    8 (A") B                   
 -0.5764       3 (A") A                  ->    7 (A") B                   
  0.3413       5 (A") A                  ->    9 (A") B                   
  0.2660       2 (A") A                  ->    6 (A") B                   
  0.1013       2 (A") A                  ->    7 (A") B                   

              Summary of significant orbitals:

               Number  Type             Irrep      Energy
               30      Occ  Alpha       2 (A")     -0.4064
               31      Occ  Alpha       3 (A")     -0.3483
               33      Occ  Alpha       4 (A")     -0.2851
               34      Occ  Alpha       5 (A")     -0.2138
               35      Vir  Beta        6 (A")      0.1598
               36      Vir  Beta        7 (A")      0.2461
               37      Vir  Beta        8 (A")      0.3086
               38      Vir  Beta        9 (A")      0.3962


 EOMSF transition 13/A'
 Total energy = -394.64722921 a.u.  Excitation energy = 9.5282 eV.
 R1^2 = 0.7877  R2^2 = 0.2123  Res^2 = 2.35e-06
 Conv-d = yes

 Amplitude    Transitions between orbitals
 -0.5112       1 (A") A                  ->    7 (A") B                   
  0.4096       2 (A") A                  ->    9 (A") B                   
  0.3807       3 (A") A                  ->    8 (A") B                   
 -0.3582       4 (A") A                  ->    10 (A") B                  
  0.1372       4 (A") A                  ->    7 (A") B                   
  0.1033       5 (A") A                  ->    9 (A") B                   
  0.1029       5 (A") A                  ->    6 (A") B                   

              Summary of significant orbitals:

               Number  Type             Irrep      Energy
               27      Occ  Alpha       1 (A")     -0.5052
               30      Occ  Alpha       2 (A")     -0.4064
               31      Occ  Alpha       3 (A")     -0.3483
               33      Occ  Alpha       4 (A")     -0.2851
               34      Occ  Alpha       5 (A")     -0.2138
               35      Vir  Beta        6 (A")      0.1598
               36      Vir  Beta        7 (A")      0.2461
               37      Vir  Beta        8 (A")      0.3086
               38      Vir  Beta        9 (A")      0.3962
               39      Vir  Beta       10 (A")      0.5327


 EOMSF transition 14/A'
 Total energy = -394.63178021 a.u.  Excitation energy = 9.9486 eV.
 R1^2 = 0.8381  R2^2 = 0.1619  Res^2 = 1.71e-06
 Conv-d = yes

 Amplitude    Transitions between orbitals
 -0.6137       5 (A") A                  ->    9 (A") B                   
 -0.5121       2 (A") A                  ->    6 (A") B                   
 -0.2930       4 (A") A                  ->    8 (A") B                   
 -0.2875       3 (A") A                  ->    7 (A") B                   

              Summary of significant orbitals:

               Number  Type             Irrep      Energy
               30      Occ  Alpha       2 (A")     -0.4064
               31      Occ  Alpha       3 (A")     -0.3483
               33      Occ  Alpha       4 (A")     -0.2851
               34      Occ  Alpha       5 (A")     -0.2138
               35      Vir  Beta        6 (A")      0.1598
               36      Vir  Beta        7 (A")      0.2461
               37      Vir  Beta        8 (A")      0.3086
               38      Vir  Beta        9 (A")      0.3962


 EOMSF transition 15/A'
 Total energy = -394.61020455 a.u.  Excitation energy = 10.5357 eV.
 R1^2 = 0.1751  R2^2 = 0.8249  Res^2 = 5.48e-06
 Conv-d = yes

 Amplitude    Transitions between orbitals
  0.5192       3 (A") A      5 (A") A    ->    6 (A") A      6 (A") B     
 -0.5192       5 (A") A      3 (A") A    ->    6 (A") A      6 (A") B     
 -0.5192       3 (A") A      5 (A") A    ->    6 (A") B      6 (A") A     
  0.5192       5 (A") A      3 (A") A    ->    6 (A") B      6 (A") A     
  0.4585       5 (A") A      5 (A") B    ->    6 (A") B      8 (A") B     
 -0.4585       5 (A") A      5 (A") B    ->    8 (A") B      6 (A") B     
 -0.4585       5 (A") B      5 (A") A    ->    6 (A") B      8 (A") B     
  0.4585       5 (A") B      5 (A") A    ->    8 (A") B      6 (A") B     
 -0.2297       3 (A") A      5 (A") A    ->    8 (A") A      8 (A") B     
  0.2297       5 (A") A      3 (A") A    ->    8 (A") A      8 (A") B     
  0.2297       3 (A") A      5 (A") A    ->    8 (A") B      8 (A") A     
 -0.2297       5 (A") A      3 (A") A    ->    8 (A") B      8 (A") A     
 -0.2285       3 (A") A      3 (A") B    ->    6 (A") B      8 (A") B     
  0.2285       3 (A") A      3 (A") B    ->    8 (A") B      6 (A") B     
  0.2285       3 (A") B      3 (A") A    ->    6 (A") B      8 (A") B     
 -0.2285       3 (A") B      3 (A") A    ->    8 (A") B      6 (A") B     

              Summary of significant orbitals:

               Number  Type             Irrep      Energy
               31      Occ  Alpha       3 (A")     -0.3483
               34      Occ  Alpha       5 (A")     -0.2138
               31      Occ  Beta        3 (A")     -0.3483
               34      Occ  Beta        5 (A")     -0.2138
               35      Vir  Alpha       6 (A")      0.1598
               37      Vir  Alpha       8 (A")      0.3086
               35      Vir  Beta        6 (A")      0.1598
               37      Vir  Beta        8 (A")      0.3086


 EOMSF transition 16/A'
 Total energy = -394.58113558 a.u.  Excitation energy = 11.3267 eV.
 R1^2 = 0.7776  R2^2 = 0.2224  Res^2 = 9.40e-07
 Conv-d = yes

 Amplitude    Transitions between orbitals
 -0.5615       1 (A") A                  ->    6 (A") B                   
 -0.5287       2 (A") A                  ->    8 (A") B                   
 -0.2658       3 (A") A                  ->    9 (A") B                   
 -0.1558       2 (A") A                  ->    7 (A") B                   
  0.1529       5 (A") A                  ->    10 (A") B                  
 -0.1470       4 (A") A                  ->    9 (A") B                   
  0.1347       5 (A") A                  ->    9 (A") B                   
 -0.1080       1 (A") A                  ->    8 (A") B                   

              Summary of significant orbitals:

               Number  Type             Irrep      Energy
               27      Occ  Alpha       1 (A")     -0.5052
               30      Occ  Alpha       2 (A")     -0.4064
               31      Occ  Alpha       3 (A")     -0.3483
               33      Occ  Alpha       4 (A")     -0.2851
               34      Occ  Alpha       5 (A")     -0.2138
               35      Vir  Beta        6 (A")      0.1598
               36      Vir  Beta        7 (A")      0.2461
               37      Vir  Beta        8 (A")      0.3086
               38      Vir  Beta        9 (A")      0.3962
               39      Vir  Beta       10 (A")      0.5327


 EOMSF transition 17/A'
 Total energy = -394.57832474 a.u.  Excitation energy = 11.4032 eV.
 R1^2 = 0.8146  R2^2 = 0.1854  Res^2 = 1.52e-06
 Conv-d = yes

 Amplitude    Transitions between orbitals
 -0.6223       4 (A") A                  ->    9 (A") B                   
 -0.5966       2 (A") A                  ->    7 (A") B                   
  0.1301       2 (A") A                  ->    8 (A") B                   
  0.1186       2 (A") A                  ->    10 (A") B                  
  0.1155       1 (A") A                  ->    6 (A") B                   

              Summary of significant orbitals:

               Number  Type             Irrep      Energy
               27      Occ  Alpha       1 (A")     -0.5052
               30      Occ  Alpha       2 (A")     -0.4064
               33      Occ  Alpha       4 (A")     -0.2851
               35      Vir  Beta        6 (A")      0.1598
               36      Vir  Beta        7 (A")      0.2461
               37      Vir  Beta        8 (A")      0.3086
               38      Vir  Beta        9 (A")      0.3962
               39      Vir  Beta       10 (A")      0.5327


 EOMSF transition 18/A'
 Total energy = -394.55926204 a.u.  Excitation energy = 11.9219 eV.
 R1^2 = 0.7327  R2^2 = 0.2673  Res^2 = 2.41e-06
 Conv-d = yes

 Amplitude    Transitions between orbitals
 -0.5846       1 (A") A                  ->    8 (A") B                   
  0.3584       3 (A") A                  ->    10 (A") B                  
  0.3376       3 (A") A                  ->    9 (A") B                   
  0.1798       5 (A") A                  ->    9 (A") B                   
  0.1713       5 (A") A                  ->    10 (A") B                  
 -0.1494       2 (A") A                  ->    6 (A") B                   
  0.1378       1 (A") A                  ->    6 (A") B                   
 -0.1330       4 (A") A                  ->    8 (A") B                   

              Summary of significant orbitals:

               Number  Type             Irrep      Energy
               27      Occ  Alpha       1 (A")     -0.5052
               30      Occ  Alpha       2 (A")     -0.4064
               31      Occ  Alpha       3 (A")     -0.3483
               33      Occ  Alpha       4 (A")     -0.2851
               34      Occ  Alpha       5 (A")     -0.2138
               35      Vir  Beta        6 (A")      0.1598
               37      Vir  Beta        8 (A")      0.3086
               38      Vir  Beta        9 (A")      0.3962
               39      Vir  Beta       10 (A")      0.5327


 EOMSF transition 19/A'
 Total energy = -394.54870572 a.u.  Excitation energy = 12.2092 eV.
 R1^2 = 0.8022  R2^2 = 0.1978  Res^2 = 3.69e-06
 Conv-d = yes

 Amplitude    Transitions between orbitals
 -0.5954       5 (A") A                  ->    10 (A") B                  
 -0.4972       2 (A") A                  ->    8 (A") B                   
  0.3301       3 (A") A                  ->    9 (A") B                   
  0.2248       1 (A") A                  ->    6 (A") B                   
  0.1043       2 (A") A                  ->    9 (A") B                   
  0.1022       1 (A") A                  ->    7 (A") B                   

              Summary of significant orbitals:

               Number  Type             Irrep      Energy
               27      Occ  Alpha       1 (A")     -0.5052
               30      Occ  Alpha       2 (A")     -0.4064
               31      Occ  Alpha       3 (A")     -0.3483
               34      Occ  Alpha       5 (A")     -0.2138
               35      Vir  Beta        6 (A")      0.1598
               36      Vir  Beta        7 (A")      0.2461
               37      Vir  Beta        8 (A")      0.3086
               38      Vir  Beta        9 (A")      0.3962
               39      Vir  Beta       10 (A")      0.5327


 EOMSF transition 20/A'
 Total energy = -394.54382130 a.u.  Excitation energy = 12.3421 eV.
 R1^2 = 0.5685  R2^2 = 0.4315  Res^2 = 6.53e-06
 Conv-d = yes

 Amplitude    Transitions between orbitals
 -0.4276       2 (A") A                  ->    9 (A") B                   
 -0.4042       1 (A") A                  ->    7 (A") B                   
 -0.2491       5 (A") A                  ->    10 (A") B                  
  0.2437       4 (A") A                  ->    9 (A") B                   
  0.1591       1 (A") A                  ->    10 (A") B                  
 -0.1479       2 (A") A                  ->    8 (A") B                   
 -0.1075       1 (A") A                  ->    9 (A") B                   
  0.1060       2 (A") A                  ->    10 (A") B                  
 -0.1015       4 (A") A                  ->    7 (A") B                   
 -0.2840       4 (A") A      5 (A") A    ->    6 (A") A      6 (A") B     
  0.2840       5 (A") A      4 (A") A    ->    6 (A") A      6 (A") B     
  0.2840       4 (A") A      5 (A") A    ->    6 (A") B      6 (A") A     
 -0.2840       5 (A") A      4 (A") A    ->    6 (A") B      6 (A") A     
  0.2303       5 (A") A      5 (A") B    ->    6 (A") B      7 (A") B     
 -0.2303       5 (A") A      5 (A") B    ->    7 (A") B      6 (A") B     
 -0.2303       5 (A") B      5 (A") A    ->    6 (A") B      7 (A") B     
  0.2303       5 (A") B      5 (A") A    ->    7 (A") B      6 (A") B     
 -0.1254       2 (A") A      5 (A") A    ->    6 (A") A      6 (A") B     
  0.1254       5 (A") A      2 (A") A    ->    6 (A") A      6 (A") B     
  0.1254       2 (A") A      5 (A") A    ->    6 (A") B      6 (A") A     
 -0.1254       5 (A") A      2 (A") A    ->    6 (A") B      6 (A") A     
  0.1150       2 (A") A      4 (A") A    ->    6 (A") A      7 (A") B     
 -0.1150       4 (A") A      2 (A") A    ->    6 (A") A      7 (A") B     
 -0.1150       2 (A") A      4 (A") A    ->    7 (A") B      6 (A") A     
  0.1150       4 (A") A      2 (A") A    ->    7 (A") B      6 (A") A     
 -0.1149       5 (A") A      5 (A") B    ->    6 (A") B      9 (A") B     
  0.1149       5 (A") A      5 (A") B    ->    9 (A") B      6 (A") B     
  0.1149       5 (A") B      5 (A") A    ->    6 (A") B      9 (A") B     
 -0.1149       5 (A") B      5 (A") A    ->    9 (A") B      6 (A") B     
  0.1054       4 (A") A      5 (A") B    ->    7 (A") B      9 (A") B     
 -0.1054       4 (A") A      5 (A") B    ->    9 (A") B      7 (A") B     
 -0.1054       5 (A") B      4 (A") A    ->    7 (A") B      9 (A") B     
  0.1054       5 (A") B      4 (A") A    ->    9 (A") B      7 (A") B     

              Summary of significant orbitals:

               Number  Type             Irrep      Energy
               27      Occ  Alpha       1 (A")     -0.5052
               30      Occ  Alpha       2 (A")     -0.4064
               33      Occ  Alpha       4 (A")     -0.2851
               34      Occ  Alpha       5 (A")     -0.2138
               34      Occ  Beta        5 (A")     -0.2138
               35      Vir  Alpha       6 (A")      0.1598
               35      Vir  Beta        6 (A")      0.1598
               36      Vir  Beta        7 (A")      0.2461
               37      Vir  Beta        8 (A")      0.3086
               38      Vir  Beta        9 (A")      0.3962
               39      Vir  Beta       10 (A")      0.5327


Running a double precision version
      EOM-CCSD/MP2 left amplitudes will be solved using Davidson.
        Amplitudes will be solved using MOM  algorithm.
     Hard-coded thresholds: 
     LinDepThresh=1.00e-15  NormThresh=1.00e-06  ReorthogonThresh=1.00e-02

      Roots     MaxVec    MaxIter   Precond   Conv      Shift    
      20        120       60        1         1.00e-05  0.00e+00  
 ------------------------------------------------------------------------------
      Iter ConvRoots NVecs ResNorm^2 Current eigenvalues (eV)
 ------------------------------------------------------------------------------
      0    0      20    2.47e-03   2.2175   4.3521   4.5672   5.5856   6.0107   6.4187   7.4021   7.5789   7.8240   7.9404   8.7727   8.9708   9.5282   9.9486   10.5357   11.3267   11.4032   11.9219   12.2092   12.3421   
      1    0      40    2.29e-04   2.2175   4.3520   4.5672   5.5856   6.0107   6.4187   7.4022   7.5789   7.8242   7.9404   8.7728   8.9709   9.5283   9.9488   10.5356   11.3270   11.4031   11.9218   12.2093   12.3422   
      2    5      60    4.11e-05   2.2175*  4.3520   4.5673*  5.5856*  6.0107*  6.4188   7.4022*  7.5789   7.8241   7.9404   8.7727   8.9709   9.5281   9.9487   10.5356   11.3271   11.4032   11.9221   12.2092   12.3424   
      3    15     75    1.35e-05   2.2175*  4.3520*  4.5673*  5.5856*  6.0107*  6.4188*  7.4022*  7.5789*  7.8241*  7.9404*  8.7727*  8.9708*  9.5280*  9.9486*  10.5355*  11.3271   11.4031   11.9221   12.2092   12.3423   
      4    16     80    8.55e-06   2.2175*  4.3520*  4.5672*  5.5856*  6.0107*  6.4188*  7.4022*  7.5789*  7.8241*  7.9404*  8.7727*  8.9708*  9.5280*  9.9486*  10.5354*  11.3271*  11.4031   11.9220   12.2093   12.3423   
Found complex roots...
      5    18     84    6.76e-06   2.2175*  4.3520*  4.5672*  5.5856*  6.0107*  6.4188*  7.4022*  7.5789*  7.8241*  7.9404*  8.7727*  8.9708*  9.5280*  9.9486*  10.5354*  11.3271*  11.4031*  11.9220*  12.2093   12.3423   
Found complex roots...
      6    19     86    6.44e-06   2.2175*  4.3520*  4.5672*  5.5856*  6.0107*  6.4188*  7.4022*  7.5789*  7.8241*  7.9404*  8.7727*  8.9708*  9.5280*  9.9486*  10.5354*  11.3271*  11.4031*  11.9220*  12.2093*  12.3423   
      7    19     87    6.47e-06   2.2175*  4.3520*  4.5672*  5.5856*  6.0107*  6.4188*  7.4022*  7.5789*  7.8241*  7.9404*  8.7727*  8.9708*  9.5280*  9.9486*  10.5354*  11.3271*  11.4031*  11.9220*  12.2093*  12.3423   
      8    19     88    7.29e-06   2.2175*  4.3520*  4.5672*  5.5856*  6.0107*  6.4188*  7.4022*  7.5789*  7.8241*  7.9404*  8.7727*  8.9708*  9.5280*  9.9486*  10.5354*  11.3271*  11.4031*  11.9220*  12.2093*  12.3423   
      9    18     89    2.45e-04   2.2175*  4.3520*  4.5672*  5.5856*  6.0107*  6.4188*  7.4022*  7.5789*  7.8241*  7.9404*  8.7727*  8.9708*  9.5280*  9.9486*  10.5354*  11.3271*  11.4031*  11.9220*  12.2090   12.3421   
      10   18     91    9.73e-06   2.2175*  4.3520*  4.5672*  5.5856*  6.0107*  6.4188*  7.4022*  7.5789*  7.8241*  7.9404*  8.7727*  8.9708*  9.5280*  9.9486*  10.5355   11.3271*  11.4031*  11.9220*  12.2093*  12.3423   
Found complex roots...
      11   20     93    5.73e-06   2.2175*  4.3520*  4.5672*  5.5856*  6.0107*  6.4188*  7.4022*  7.5789*  7.8241*  7.9404*  8.7727*  8.9708*  9.5280*  9.9486*  10.5354*  11.3271*  11.4031*  11.9220*  12.2093*  12.3424*  

     Davidson procedure converged

 EOMSF-CCSD transition 1/A'
S^2 calculation will be performed in  double precision
 EOMSF-CCSD transition 2/A'
S^2 calculation will be performed in  double precision
 EOMSF-CCSD transition 3/A'
S^2 calculation will be performed in  double precision
 EOMSF-CCSD transition 4/A'
S^2 calculation will be performed in  double precision
 EOMSF-CCSD transition 5/A'
S^2 calculation will be performed in  double precision
 EOMSF-CCSD transition 6/A'
S^2 calculation will be performed in  double precision
 EOMSF-CCSD transition 7/A'
S^2 calculation will be performed in  double precision
 EOMSF-CCSD transition 8/A'
S^2 calculation will be performed in  double precision
 EOMSF-CCSD transition 9/A'
S^2 calculation will be performed in  double precision
 EOMSF-CCSD transition 10/A'
S^2 calculation will be performed in  double precision
 EOMSF-CCSD transition 11/A'
S^2 calculation will be performed in  double precision
 EOMSF-CCSD transition 12/A'
S^2 calculation will be performed in  double precision
 EOMSF-CCSD transition 13/A'
S^2 calculation will be performed in  double precision
 EOMSF-CCSD transition 14/A'
S^2 calculation will be performed in  double precision
 EOMSF-CCSD transition 15/A'
S^2 calculation will be performed in  double precision
 EOMSF-CCSD transition 16/A'
S^2 calculation will be performed in  double precision
 EOMSF-CCSD transition 17/A'
S^2 calculation will be performed in  double precision
 EOMSF-CCSD transition 18/A'
S^2 calculation will be performed in  double precision
 EOMSF-CCSD transition 19/A'
S^2 calculation will be performed in  double precision
 EOMSF-CCSD transition 20/A'
S^2 calculation will be performed in  double precision
 Excited state properties for  EOMSF-CCSD transition 1/A'
 Dipole moment (a.u.): 0.724797 (X 0.211746, Y -0.693177, Z 0.000000)
 R-squared (a.u.): 1265.891203 (XX 858.002936, YY 366.911678, ZZ 40.976589)
 Gauge origin (a.u.): (0.000000, 0.000000, 0.000000)
 Angular momentum (a.u.) against gauge origin: 
 (X 0.000000i, Y 0.000000i, Z -0.003234i)
 Traces of the OPDMs: Tr(AA) 33.000000, Tr(BB) 35.000000
 <S^2> = 2.000000
 Density matrix was written to a file for further analysis.

 Excited state properties for  EOMSF-CCSD transition 2/A'
 Dipole moment (a.u.): 0.737163 (X 0.040745, Y -0.736036, Z 0.000000)
 R-squared (a.u.): 1266.100789 (XX 858.234148, YY 366.947618, ZZ 40.919023)
 Gauge origin (a.u.): (0.000000, 0.000000, 0.000000)
 Angular momentum (a.u.) against gauge origin: 
 (X 0.000000i, Y 0.000000i, Z -0.003024i)
 Traces of the OPDMs: Tr(AA) 33.000000, Tr(BB) 35.000000
 <S^2> = 2.000000

 Excited state properties for  EOMSF-CCSD transition 3/A'
 Dipole moment (a.u.): 0.716888 (X 0.192629, Y -0.690523, Z 0.000000)
 R-squared (a.u.): 1265.567497 (XX 857.140098, YY 367.515659, ZZ 40.911740)
 Gauge origin (a.u.): (0.000000, 0.000000, 0.000000)
 Angular momentum (a.u.) against gauge origin: 
 (X 0.000000i, Y 0.000000i, Z -0.007658i)
 Traces of the OPDMs: Tr(AA) 33.000000, Tr(BB) 35.000000
 <S^2> = 2.000000

 Excited state properties for  EOMSF-CCSD transition 4/A'
 Dipole moment (a.u.): 0.748384 (X 0.148526, Y -0.733497, Z 0.000000)
 R-squared (a.u.): 1265.820186 (XX 857.535104, YY 367.415481, ZZ 40.869601)
 Gauge origin (a.u.): (0.000000, 0.000000, 0.000000)
 Angular momentum (a.u.) against gauge origin: 
 (X 0.000000i, Y 0.000000i, Z -0.004982i)
 Traces of the OPDMs: Tr(AA) 33.000000, Tr(BB) 35.000000
 <S^2> = 2.000000

 Excited state properties for  EOMSF-CCSD transition 5/A'
 Dipole moment (a.u.): 0.703670 (X -0.148132, Y -0.687902, Z 0.000000)
 R-squared (a.u.): 1265.454352 (XX 857.112291, YY 367.493294, ZZ 40.848767)
 Gauge origin (a.u.): (0.000000, 0.000000, 0.000000)
 Angular momentum (a.u.) against gauge origin: 
 (X 0.000000i, Y 0.000000i, Z -0.012843i)
 Traces of the OPDMs: Tr(AA) 33.000000, Tr(BB) 35.000000
 <S^2> = 2.000000

 Excited state properties for  EOMSF-CCSD transition 6/A'
 Dipole moment (a.u.): 1.384236 (X 1.172622, Y -0.735572, Z 0.000000)
 R-squared (a.u.): 1265.514215 (XX 857.823035, YY 366.752114, ZZ 40.939067)
 Gauge origin (a.u.): (0.000000, 0.000000, 0.000000)
 Angular momentum (a.u.) against gauge origin: 
 (X 0.000000i, Y 0.000000i, Z -0.002010i)
 Traces of the OPDMs: Tr(AA) 33.000000, Tr(BB) 35.000000
 <S^2> = 2.000000

 Excited state properties for  EOMSF-CCSD transition 7/A'
 Dipole moment (a.u.): 0.814385 (X 0.074924, Y -0.810931, Z 0.000000)
 R-squared (a.u.): 1265.707490 (XX 857.651480, YY 367.259918, ZZ 40.796091)
 Gauge origin (a.u.): (0.000000, 0.000000, 0.000000)
 Angular momentum (a.u.) against gauge origin: 
 (X 0.000000i, Y 0.000000i, Z -0.002424i)
 Traces of the OPDMs: Tr(AA) 33.000000, Tr(BB) 35.000000
 <S^2> = 2.000000

 Excited state properties for  EOMSF-CCSD transition 8/A'
 Dipole moment (a.u.): 0.791756 (X -0.398169, Y -0.684353, Z 0.000000)
 R-squared (a.u.): 1266.434922 (XX 858.212105, YY 367.388578, ZZ 40.834239)
 Gauge origin (a.u.): (0.000000, 0.000000, 0.000000)
 Angular momentum (a.u.) against gauge origin: 
 (X 0.000000i, Y 0.000000i, Z 0.006472i)
 Traces of the OPDMs: Tr(AA) 33.000000, Tr(BB) 35.000000
 <S^2> = 2.000000

 Excited state properties for  EOMSF-CCSD transition 9/A'
 Dipole moment (a.u.): 1.805475 (X 1.600533, Y -0.835484, Z 0.000000)
 R-squared (a.u.): 1265.449585 (XX 857.961657, YY 366.635526, ZZ 40.852403)
 Gauge origin (a.u.): (0.000000, 0.000000, 0.000000)
 Angular momentum (a.u.) against gauge origin: 
 (X 0.000000i, Y 0.000000i, Z -0.021423i)
 Traces of the OPDMs: Tr(AA) 33.000000, Tr(BB) 35.000000
 <S^2> = 2.000000

 Excited state properties for  EOMSF-CCSD transition 10/A'
 Dipole moment (a.u.): 0.630958 (X 0.314697, Y -0.546877, Z 0.000000)
 R-squared (a.u.): 1266.111347 (XX 857.889682, YY 367.422983, ZZ 40.798681)
 Gauge origin (a.u.): (0.000000, 0.000000, 0.000000)
 Angular momentum (a.u.) against gauge origin: 
 (X 0.000000i, Y 0.000000i, Z 0.003459i)
 Traces of the OPDMs: Tr(AA) 33.000000, Tr(BB) 35.000000
 <S^2> = 2.000000

 Excited state properties for  EOMSF-CCSD transition 11/A'
 Dipole moment (a.u.): 1.686401 (X -1.477321, Y -0.813309, Z 0.000000)
 R-squared (a.u.): 1266.273152 (XX 858.067590, YY 367.352231, ZZ 40.853331)
 Gauge origin (a.u.): (0.000000, 0.000000, 0.000000)
 Angular momentum (a.u.) against gauge origin: 
 (X 0.000000i, Y 0.000000i, Z 0.014699i)
 Traces of the OPDMs: Tr(AA) 33.000000, Tr(BB) 35.000000
 <S^2> = 2.000000

 Excited state properties for  EOMSF-CCSD transition 12/A'
 Dipole moment (a.u.): 1.028636 (X 0.059764, Y -1.026898, Z 0.000000)
 R-squared (a.u.): 1266.086441 (XX 858.177728, YY 367.041897, ZZ 40.866816)
 Gauge origin (a.u.): (0.000000, 0.000000, 0.000000)
 Angular momentum (a.u.) against gauge origin: 
 (X 0.000000i, Y 0.000000i, Z -0.006002i)
 Traces of the OPDMs: Tr(AA) 33.000000, Tr(BB) 35.000000
 <S^2> = 2.000000

 Excited state properties for  EOMSF-CCSD transition 13/A'
 Dipole moment (a.u.): 0.549964 (X -0.300168, Y -0.460825, Z 0.000000)
 R-squared (a.u.): 1266.771617 (XX 858.769330, YY 367.227080, ZZ 40.775207)
 Gauge origin (a.u.): (0.000000, 0.000000, 0.000000)
 Angular momentum (a.u.) against gauge origin: 
 (X 0.000000i, Y 0.000000i, Z 0.015737i)
 Traces of the OPDMs: Tr(AA) 33.000000, Tr(BB) 35.000000
 <S^2> = 2.000000

 Excited state properties for  EOMSF-CCSD transition 14/A'
 Dipole moment (a.u.): 1.354197 (X 1.092482, Y -0.800207, Z 0.000000)
 R-squared (a.u.): 1265.674564 (XX 857.978648, YY 366.854197, ZZ 40.841720)
 Gauge origin (a.u.): (0.000000, 0.000000, 0.000000)
 Angular momentum (a.u.) against gauge origin: 
 (X 0.000000i, Y 0.000000i, Z -0.004570i)
 Traces of the OPDMs: Tr(AA) 33.000000, Tr(BB) 35.000000
 <S^2> = 2.000000

 Excited state properties for  EOMSF-CCSD transition 15/A'
 Dipole moment (a.u.): 0.705076 (X -0.261355, Y -0.654848, Z 0.000000)
 R-squared (a.u.): 1266.812216 (XX 859.056926, YY 366.999623, ZZ 40.755668)
 Gauge origin (a.u.): (0.000000, 0.000000, 0.000000)
 Angular momentum (a.u.) against gauge origin: 
 (X 0.000000i, Y 0.000000i, Z -0.008576i)
 Traces of the OPDMs: Tr(AA) 33.000000, Tr(BB) 35.000000
 <S^2> = 2.000001

 Excited state properties for  EOMSF-CCSD transition 16/A'
 Dipole moment (a.u.): 0.962240 (X 0.618002, Y -0.737549, Z 0.000000)
 R-squared (a.u.): 1264.977950 (XX 856.424094, YY 367.789261, ZZ 40.764594)
 Gauge origin (a.u.): (0.000000, 0.000000, 0.000000)
 Angular momentum (a.u.) against gauge origin: 
 (X 0.000000i, Y 0.000000i, Z -0.000623i)
 Traces of the OPDMs: Tr(AA) 33.000000, Tr(BB) 35.000000
 <S^2> = 2.000000

 Excited state properties for  EOMSF-CCSD transition 17/A'
 Dipole moment (a.u.): 1.316515 (X 1.130418, Y -0.674810, Z 0.000000)
 R-squared (a.u.): 1265.054788 (XX 856.785054, YY 367.475879, ZZ 40.793855)
 Gauge origin (a.u.): (0.000000, 0.000000, 0.000000)
 Angular momentum (a.u.) against gauge origin: 
 (X 0.000000i, Y 0.000000i, Z -0.006486i)
 Traces of the OPDMs: Tr(AA) 33.000000, Tr(BB) 35.000000
 <S^2> = 2.000000

 Excited state properties for  EOMSF-CCSD transition 18/A'
 Dipole moment (a.u.): 1.119564 (X 0.863468, Y -0.712634, Z 0.000000)
 R-squared (a.u.): 1266.247312 (XX 858.328592, YY 367.201588, ZZ 40.717132)
 Gauge origin (a.u.): (0.000000, 0.000000, 0.000000)
 Angular momentum (a.u.) against gauge origin: 
 (X 0.000000i, Y 0.000000i, Z 0.003213i)
 Traces of the OPDMs: Tr(AA) 33.000000, Tr(BB) 35.000000
 <S^2> = 2.000000

 Excited state properties for  EOMSF-CCSD transition 19/A'
 Dipole moment (a.u.): 0.764171 (X 0.209732, Y -0.734826, Z 0.000000)
 R-squared (a.u.): 1263.709099 (XX 855.982648, YY 366.969177, ZZ 40.757274)
 Gauge origin (a.u.): (0.000000, 0.000000, 0.000000)
 Angular momentum (a.u.) against gauge origin: 
 (X 0.000000i, Y 0.000000i, Z -0.019945i)
 Traces of the OPDMs: Tr(AA) 33.000000, Tr(BB) 35.000000
 <S^2> = 2.000002

 Excited state properties for  EOMSF-CCSD transition 20/A'
 Dipole moment (a.u.): 0.729192 (X -0.010247, Y -0.729120, Z 0.000000)
 R-squared (a.u.): 1265.365676 (XX 857.204774, YY 367.436019, ZZ 40.724883)
 Gauge origin (a.u.): (0.000000, 0.000000, 0.000000)
 Angular momentum (a.u.) against gauge origin: 
 (X 0.000000i, Y 0.000000i, Z 0.006687i)
 Traces of the OPDMs: Tr(AA) 33.000000, Tr(BB) 35.000000
 <S^2> = 1.999989

        Solving for EOMSF-CCSD A" transitions.

Running a double precision version
       EOMSF-CCSD/MP2 right amplitudes will be solved using Davidson.
        Amplitudes will be solved using standard  algorithm.
     Hard-coded thresholds: 
     LinDepThresh=1.00e-15  NormThresh=1.00e-06  ReorthogonThresh=1.00e-02

      Roots     MaxVec    MaxIter   Precond   Conv      Shift    
      20        120       60        1         1.00e-05  0.00e+00  
 ------------------------------------------------------------------------------
      Iter ConvRoots NVecs ResNorm^2 Current eigenvalues (eV)
 ------------------------------------------------------------------------------
      0    0      40    1.41e-01   6.3154   10.5991   11.3004   11.5750   12.7189   12.9534   13.1648   13.1990   13.5487   13.7195   14.4716   14.9562   15.1981   15.5826   15.7323   16.0734   16.4423   16.6680   17.1102   17.2913   
      1    0      60    1.54e-02   4.0190   6.7550   7.9858   8.4476   9.4166   10.1567   10.2923   10.3225   10.6029   10.8684   11.2783   11.4863   11.8577   12.3444   12.5356   12.6169   12.8449   13.1100   13.2922   13.4142   
      2    0      80    3.27e-03   3.6426   6.1709   7.4174   7.9980   8.9164   9.5493   9.7612   9.8429   10.0125   10.3668   10.6399   10.9687   11.3045   11.7333   11.9220   11.9693   12.1862   12.4231   12.6407   12.6684   
      3    0      100   9.25e-04   3.5803   6.0914   7.3399   7.9573   8.8501   9.3813   9.6947   9.7761   9.9292   10.2929   10.5375   10.8840   11.2212   11.6089   11.8102   11.8397   12.0547   12.2895   12.4836   12.5160   
Found complex roots...
      4    0      120   5.99e-04   3.5654   6.0747   7.3257   7.9517   8.8346   9.3125   9.6793   9.7645   9.9032   10.2730   10.5136   10.8467   11.2031   11.5681   11.7699   11.7833   12.0070   12.2278   12.3839   12.4764   
      5    0      40    2.19e-04   3.5616   6.0699   7.3224   7.9502   8.8268   9.2934   9.6727   9.7606   9.8913   10.2637   10.5052   10.8246   11.1957   11.5486   11.7181   11.7608   11.9747   12.1520   12.3255   12.4581   
      6    2      60    3.20e-04   3.5608*  6.0692   7.3214   7.9498*  8.8217   9.2871   9.6700   9.7587   9.8837   10.2591   10.5029   10.8039   11.1917   11.5235   11.6375   11.7512   11.9454   12.0978   12.3081   12.4506   
      7    4      78    1.06e-03   3.5602*  6.0689*  7.3205*  7.9497*  8.8183   9.2819   9.6665   9.7583   9.8761   10.2562   10.5035   10.7493   11.1845   11.2654   11.5567   11.7457   11.8853   12.0339   12.2775   12.3930   
      8    5      94    4.72e-04   3.5605*  6.0686*  7.3204*  7.9497*  8.8155   9.2815*  9.6633   9.7556   9.8655   10.2461   10.4960   10.5709   10.9503   11.1932   11.5469   11.7392   11.8236   11.9910   12.1773   12.2703   
Found complex roots...
      9    7      109   1.46e-04   3.5604*  6.0685*  7.3202*  7.9496*  8.8145*  9.2784*  9.6604   9.7545   9.8594   10.2381   10.4485   10.4995   10.9048   11.1931*  11.5445   11.7342   11.8041   11.9698   12.1210   12.2532   
      10   9      120   3.47e-04   3.5605*  6.0686*  7.3203*  7.9497*  8.8145*  9.2786*  9.6601*  9.7544*  9.8569   10.2330   10.4072   10.5007   10.8936   11.1928*  11.5435   11.7329   11.7873   11.9600   12.0410   12.1513   
      11   12     31    7.12e-05   3.5604*  6.0686*  7.3201*  7.9496*  8.8145*  9.2786*  9.6598*  9.7542*  9.8569*  10.2318   10.4007   10.5005*  10.8912   11.1928*  11.5433*  11.7315   11.7753   11.9086   11.9752   12.1325   
      12   14     39    3.95e-05   3.5605*  6.0686*  7.3202*  7.9497*  8.8145*  9.2786*  9.6598*  9.7542*  9.8567*  10.2312*  10.3976   10.5008*  10.8905*  11.1928*  11.5432*  11.7303   11.7621   11.8660   11.9720   12.1278   
      13   15     45    1.50e-05   3.5605*  6.0686*  7.3202*  7.9497*  8.8145*  9.2787*  9.6598*  9.7542*  9.8566*  10.2313*  10.3967*  10.5006*  10.8900*  11.1928*  11.5430*  11.7279   11.7523   11.8491   11.9703   12.1254   
      14   16     50    8.07e-06   3.5605*  6.0686*  7.3202*  7.9497*  8.8145*  9.2787*  9.6598*  9.7542*  9.8566*  10.2311*  10.3963*  10.5008*  10.8899*  11.1929*  11.5430*  11.7266   11.7476   11.8422   11.9700*  12.1241   
      15   17     54    3.56e-06   3.5605*  6.0686*  7.3202*  7.9497*  8.8145*  9.2786*  9.6598*  9.7542*  9.8566*  10.2311*  10.3963*  10.5007*  10.8900*  11.1928*  11.5429*  11.7252   11.7455   11.8388   11.9698*  12.1237*  
      16   18     57    2.45e-06   3.5605*  6.0686*  7.3202*  7.9497*  8.8145*  9.2786*  9.6598*  9.7542*  9.8566*  10.2311*  10.3962*  10.5007*  10.8899*  11.1928*  11.5429*  11.7244*  11.7445   11.8376   11.9697*  12.1235*  
      17   19     59    2.59e-06   3.5605*  6.0686*  7.3202*  7.9497*  8.8145*  9.2786*  9.6598*  9.7542*  9.8566*  10.2311*  10.3962*  10.5007*  10.8899*  11.1928*  11.5429*  11.7240*  11.7435*  11.8359   11.9694*  12.1228*  
      18   19     60    2.28e-06   3.5605*  6.0686*  7.3202*  7.9497*  8.8145*  9.2786*  9.6598*  9.7542*  9.8566*  10.2311*  10.3962*  10.5007*  10.8899*  11.1928*  11.5429*  11.7232*  11.7430*  11.8349   11.9696*  12.1226*  
      19   18     61    2.32e-06   3.5605*  6.0686*  7.3202*  7.9497*  8.8145*  9.2786*  9.6598*  9.7542*  9.8566*  10.2311*  10.3962*  10.5007*  10.8899*  11.1928*  11.5429*  11.7227*  11.7425*  11.8338   11.9693*  12.1219   
      20   17     63    5.15e-06   3.5605*  6.0686*  7.3202*  7.9497*  8.8145*  9.2786*  9.6598*  9.7542*  9.8566*  10.2311*  10.3962*  10.5007*  10.8899*  11.1928*  11.5429*  11.7223   11.7422*  11.8320   11.9694*  12.1199   
      21   15     66    2.59e-04   3.5605*  6.0686*  7.3202*  7.9497*  8.8145*  9.2786*  9.6598*  9.7542*  9.8566*  10.2311*  10.3962*  10.5007*  10.8899*  11.1928*  11.5429*  11.7204   11.7412   11.8288   11.9696   12.0198   
      22   15     71    6.04e-04   3.5605*  6.0686*  7.3202*  7.9497*  8.8145*  9.2786*  9.6598*  9.7542*  9.8566*  10.2311*  10.3962*  10.5007*  10.8899*  11.1928*  11.5328   11.5426   11.7261   11.7461   11.8384   11.9691*  
      23   17     76    4.20e-04   3.5605*  6.0686*  7.3202*  7.9497*  8.8145*  9.2786*  9.6598*  9.7542*  9.8566*  10.2311*  10.3962*  10.5007*  10.8899*  10.9564   11.1928*  11.5429*  11.7239*  11.7433   11.8350   11.9693*  
Found complex roots...
      24   19     79    1.45e-04   3.5605*  6.0686*  7.3202*  7.9497*  8.8145*  9.2786*  9.6598*  9.7542*  9.8566*  10.2311*  10.3962*  10.5007*  10.6760   10.8899*  11.1928*  11.5429*  11.7232*  11.7430*  11.8345*  11.9694*  
      25   19     80    3.67e-05   3.5605*  6.0686*  7.3202*  7.9497*  8.8145*  9.2786*  9.6598*  9.7542*  9.8566*  10.2311*  10.3962*  10.5007*  10.5986   10.8899*  11.1928*  11.5429*  11.7232*  11.7429*  11.8342*  11.9694*  
Found complex roots...
      26   19     81    9.52e-06   3.5605*  6.0686*  7.3202*  7.9497*  8.8145*  9.2786*  9.6598*  9.7542*  9.8566*  10.2311*  10.3962*  10.5007*  10.5786   10.8899*  11.1928*  11.5429*  11.7231*  11.7429*  11.8341*  11.9694*  
      27   19     82    3.27e-06   3.5605*  6.0686*  7.3202*  7.9497*  8.8145*  9.2786*  9.6598*  9.7542*  9.8566*  10.2311*  10.3962*  10.5007*  10.5730   10.8899*  11.1928*  11.5429*  11.7231*  11.7429*  11.8341*  11.9694*  
      28   19     83    1.27e-06   3.5605*  6.0686*  7.3202*  7.9497*  8.8145*  9.2786*  9.6598*  9.7542*  9.8566*  10.2311*  10.3962*  10.5007*  10.5712   10.8899*  11.1928*  11.5429*  11.7230*  11.7429*  11.8341*  11.9694*  
      29   20     84    6.39e-07   3.5605*  6.0686*  7.3202*  7.9497*  8.8145*  9.2786*  9.6598*  9.7542*  9.8566*  10.2311*  10.3962*  10.5007*  10.5705*  10.8899*  11.1928*  11.5429*  11.7230*  11.7429*  11.8340*  11.9694*  

     Davidson procedure converged

 EOMSF transition 1/A"
 Total energy = -394.86653996 a.u.  Excitation energy = 3.5605 eV.
 R1^2 = 0.9022  R2^2 = 0.0978  Res^2 = 3.66e-07
 Conv-d = yes

 Amplitude    Transitions between orbitals
  0.8573       29 (A') A                 ->    6 (A") B                   
  0.3081       29 (A') A                 ->    8 (A") B                   
 -0.1397       29 (A') A                 ->    9 (A") B                   
  0.1162       27 (A') A                 ->    6 (A") B                   
 -0.1012       29 (A') A                 ->    10 (A") B                  

              Summary of significant orbitals:

               Number  Type             Irrep      Energy
               28      Occ  Alpha      27 (A')     -0.4608
               32      Occ  Alpha      29 (A')     -0.3285
               35      Vir  Beta        6 (A")      0.1598
               37      Vir  Beta        8 (A")      0.3086
               38      Vir  Beta        9 (A")      0.3962
               39      Vir  Beta       10 (A")      0.5327


 EOMSF transition 2/A"
 Total energy = -394.77436864 a.u.  Excitation energy = 6.0686 eV.
 R1^2 = 0.8610  R2^2 = 0.1390  Res^2 = 3.58e-07
 Conv-d = yes

 Amplitude    Transitions between orbitals
 -0.9019       29 (A') A                 ->    7 (A") B                   
 -0.1532       29 (A') A                 ->    9 (A") B                   
 -0.0752       29 (A') A                 ->    8 (A") B                   
 -0.0713       27 (A') A                 ->    7 (A") B                   

              Summary of significant orbitals:

               Number  Type             Irrep      Energy
               28      Occ  Alpha      27 (A')     -0.4608
               32      Occ  Alpha      29 (A')     -0.3285
               36      Vir  Beta        7 (A")      0.2461
               37      Vir  Beta        8 (A")      0.3086
               38      Vir  Beta        9 (A")      0.3962


 EOMSF transition 3/A"
 Total energy = -394.72837137 a.u.  Excitation energy = 7.3202 eV.
 R1^2 = 0.8678  R2^2 = 0.1322  Res^2 = 3.79e-07
 Conv-d = yes

 Amplitude    Transitions between orbitals
  0.7913       29 (A') A                 ->    8 (A") B                   
 -0.3504       29 (A') A                 ->    6 (A") B                   
  0.1731       27 (A') A                 ->    6 (A") B                   
  0.1594       28 (A') A                 ->    6 (A") B                   
 -0.1387       29 (A') A                 ->    10 (A") B                  
 -0.1273       29 (A') A                 ->    9 (A") B                   

              Summary of significant orbitals:

               Number  Type             Irrep      Energy
               28      Occ  Alpha      27 (A')     -0.4608
               29      Occ  Alpha      28 (A')     -0.4281
               32      Occ  Alpha      29 (A')     -0.3285
               35      Vir  Beta        6 (A")      0.1598
               37      Vir  Beta        8 (A")      0.3086
               38      Vir  Beta        9 (A")      0.3962
               39      Vir  Beta       10 (A")      0.5327


 EOMSF transition 4/A"
 Total energy = -394.70523783 a.u.  Excitation energy = 7.9497 eV.
 R1^2 = 0.9073  R2^2 = 0.0927  Res^2 = 1.62e-06
 Conv-d = yes

 Amplitude    Transitions between orbitals
  0.9089       28 (A') A                 ->    6 (A") B                   
 -0.1504       26 (A') A                 ->    8 (A") B                   
 -0.1350       29 (A') A                 ->    8 (A") B                   
 -0.1009       24 (A') A                 ->    9 (A") B                   

              Summary of significant orbitals:

               Number  Type             Irrep      Energy
               24      Occ  Alpha      24 (A')     -0.5292
               26      Occ  Alpha      26 (A')     -0.5058
               29      Occ  Alpha      28 (A')     -0.4281
               32      Occ  Alpha      29 (A')     -0.3285
               35      Vir  Beta        6 (A")      0.1598
               37      Vir  Beta        8 (A")      0.3086
               38      Vir  Beta        9 (A")      0.3962


 EOMSF transition 5/A"
 Total energy = -394.67345837 a.u.  Excitation energy = 8.8145 eV.
 R1^2 = 0.8736  R2^2 = 0.1264  Res^2 = 4.02e-08
 Conv-d = yes

 Amplitude    Transitions between orbitals
 -0.8465       27 (A') A                 ->    6 (A") B                   
  0.2129       29 (A') A                 ->    8 (A") B                   
  0.1481       27 (A') A                 ->    8 (A") B                   
  0.1306       29 (A') A                 ->    9 (A") B                   
  0.1197       25 (A') A                 ->    6 (A") B                   

              Summary of significant orbitals:

               Number  Type             Irrep      Energy
               25      Occ  Alpha      25 (A')     -0.5179
               28      Occ  Alpha      27 (A')     -0.4608
               32      Occ  Alpha      29 (A')     -0.3285
               35      Vir  Beta        6 (A")      0.1598
               37      Vir  Beta        8 (A")      0.3086
               38      Vir  Beta        9 (A")      0.3962


 EOMSF transition 6/A"
 Total energy = -394.65640102 a.u.  Excitation energy = 9.2786 eV.
 R1^2 = 0.7919  R2^2 = 0.2081  Res^2 = 5.54e-07
 Conv-d = yes

 Amplitude    Transitions between orbitals
 -0.7312       29 (A') A                 ->    9 (A") B                   
 -0.2801       29 (A') A                 ->    10 (A") B                  
 -0.2136       27 (A') A                 ->    6 (A") B                   
 -0.1660       27 (A') A                 ->    7 (A") B                   
  0.1479       29 (A') A                 ->    7 (A") B                   
 -0.1428       29 (A') A                 ->    8 (A") B                   
  0.1029       27 (A') A                 ->    8 (A") B                   
 -0.1011       28 (A') A                 ->    7 (A") B                   

              Summary of significant orbitals:

               Number  Type             Irrep      Energy
               28      Occ  Alpha      27 (A')     -0.4608
               29      Occ  Alpha      28 (A')     -0.4281
               32      Occ  Alpha      29 (A')     -0.3285
               35      Vir  Beta        6 (A")      0.1598
               36      Vir  Beta        7 (A")      0.2461
               37      Vir  Beta        8 (A")      0.3086
               38      Vir  Beta        9 (A")      0.3962
               39      Vir  Beta       10 (A")      0.5327


 EOMSF transition 7/A"
 Total energy = -394.64239375 a.u.  Excitation energy = 9.6598 eV.
 R1^2 = 0.8849  R2^2 = 0.1151  Res^2 = 1.72e-08
 Conv-d = yes

 Amplitude    Transitions between orbitals
 -0.7463       26 (A') A                 ->    6 (A") B                   
  0.4123       28 (A') A                 ->    8 (A") B                   
  0.1901       25 (A') A                 ->    6 (A") B                   
 -0.1407       24 (A') A                 ->    6 (A") B                   
 -0.1283       27 (A') A                 ->    8 (A") B                   

              Summary of significant orbitals:

               Number  Type             Irrep      Energy
               24      Occ  Alpha      24 (A')     -0.5292
               25      Occ  Alpha      25 (A')     -0.5179
               26      Occ  Alpha      26 (A')     -0.5058
               28      Occ  Alpha      27 (A')     -0.4608
               29      Occ  Alpha      28 (A')     -0.4281
               35      Vir  Beta        6 (A")      0.1598
               37      Vir  Beta        8 (A")      0.3086


 EOMSF transition 8/A"
 Total energy = -394.63892438 a.u.  Excitation energy = 9.7542 eV.
 R1^2 = 0.8816  R2^2 = 0.1184  Res^2 = 1.94e-08
 Conv-d = yes

 Amplitude    Transitions between orbitals
 -0.8392       28 (A') A                 ->    7 (A") B                   
  0.2485       25 (A') A                 ->    6 (A") B                   
  0.1508       26 (A') A                 ->    9 (A") B                   
 -0.1282       24 (A') A                 ->    6 (A") B                   

              Summary of significant orbitals:

               Number  Type             Irrep      Energy
               24      Occ  Alpha      24 (A')     -0.5292
               25      Occ  Alpha      25 (A')     -0.5179
[...]
 <S|| Hso(L-) ||S'> = (-0.072785,3.525605)
 <S|| Hso(L0) ||S'> = (0.000000,0.000000)
 <S|| Hso(L+) ||S'> = (-0.072785,-3.525605)
 SOCC = 4.987021
 Actual matrix elements:
       |Sz=-1.00>           |Sz=0.00>           |Sz=1.00>
 <Sz=-1.00|(0.000000,-0.000000)(-0.051467,-2.492979)(-0.000000,-0.000000)
 <Sz=0.00|(0.051467,-2.492979)(0.000000,0.000000)(-0.051467,-2.492979)
 <Sz=1.00|(-0.000000,0.000000)(0.051467,-2.492979)(0.000000,0.000000)
 _________________________________________________
 Mean-field SO (cm-1)
 Reduced matrix elements:
 <S|| Hso(L-) ||S'> = (-0.015588,1.832994)
 <S|| Hso(L0) ||S'> = (0.000000,0.000000)
 <S|| Hso(L+) ||S'> = (-0.015588,-1.832994)
 SOCC = 2.592339
 Actual matrix elements:
       |Sz=-1.00>           |Sz=0.00>           |Sz=1.00>
 <Sz=-1.00|(0.000000,-0.000000)(-0.011023,-1.296122)(-0.000000,-0.000000)
 <Sz=0.00|(0.011023,-1.296122)(0.000000,0.000000)(-0.011023,-1.296122)
 <Sz=1.00|(-0.000000,0.000000)(0.011023,-1.296122)(0.000000,0.000000)
 Singlet part of <S|| Hso(L0) ||S'> = (-0.000000,-0.000000) (excluded from all matrix elements)
 L-/L+ Averaged reduced matrix elements:
 <S|| Hso(L-) ||S'> = (-0.015588,1.832994)
 <S|| Hso(L+) ||S'> = (-0.015588,-1.832994)
 ______________________________________________________________
 B(Ket)->A(Bra) transition SO matrices
Full 2e SOC is not implemented withing libqints. 
I will do mean-field SOC with libqints, which is usually as good as full 2e SOC
 Analysing Sz ans S^2 of the pair of states...
 Ket state:  Computed S^2 = 2.000002 will be treated as 2.000000 Sz = -1.000000
 Bra state:  Computed S^2 = 2.000000 will be treated as 2.000000 Sz = -1.000000
 Clebsh-Gordan coefficient: <1.000,-1.000;1.000,0.000|1.000,-1.000> = -0.707
 _________________________________________________
 One-electron SO (cm-1)
 Reduced matrix elements:
 <S|| Hso(L-) ||S'> = (0.515569,-4.139033)
 <S|| Hso(L0) ||S'> = (0.000000,-0.000000)
 <S|| Hso(L+) ||S'> = (0.515569,4.139033)
 SOCC = 5.898713
 Actual matrix elements:
       |Sz=-1.00>           |Sz=0.00>           |Sz=1.00>
 <Sz=-1.00|(-0.000000,0.000000)(0.364562,2.926739)(0.000000,0.000000)
 <Sz=0.00|(-0.364562,2.926739)(-0.000000,-0.000000)(0.364562,2.926739)
 <Sz=1.00|(0.000000,-0.000000)(-0.364562,2.926739)(-0.000000,-0.000000)
 _________________________________________________
 Mean-field SO (cm-1)
 Reduced matrix elements:
 <S|| Hso(L-) ||S'> = (0.245264,-2.172519)
 <S|| Hso(L0) ||S'> = (0.000000,-0.000000)
 <S|| Hso(L+) ||S'> = (0.245264,2.172519)
 SOCC = 3.091923
 Actual matrix elements:
       |Sz=-1.00>           |Sz=0.00>           |Sz=1.00>
 <Sz=-1.00|(-0.000000,0.000000)(0.173428,1.536203)(0.000000,0.000000)
 <Sz=0.00|(-0.173428,1.536203)(-0.000000,-0.000000)(0.173428,1.536203)
 <Sz=1.00|(0.000000,-0.000000)(-0.173428,1.536203)(-0.000000,-0.000000)
 Singlet part of <S|| Hso(L0) ||S'> = (-0.000000,-0.000000) (excluded from all matrix elements)
 L-/L+ Averaged reduced matrix elements:
 <S|| Hso(L-) ||S'> = (0.245264,-2.172519)
 <S|| Hso(L+) ||S'> = (0.245264,2.172519)
 ______________________________________________________________
   Arithmetically averaged transition SO matrices
   (The phases shown, Ket and Bra assingment are from A(Ket)->B(Bra))
 _________________________________________________
 One-electron SO (cm-1)
 SOCC = 5.435662
 Actual matrix elements:
       |Sz=-1.00>           |Sz=0.00>           |Sz=1.00>
 <Sz=-1.00|(-0.000000,-0.000000)(-0.208015,-2.709859)(0.000000,-0.000000)
 <Sz=0.00|(0.208015,-2.709859)(-0.000000,0.000000)(-0.208015,-2.709859)
 <Sz=1.00|(0.000000,-0.000000)(0.208015,-2.709859)(-0.000000,0.000000)
 _________________________________________________
 Mean-field SO (cm-1)
 SOCC = 2.838325
 Actual matrix elements:
       |Sz=-1.00>           |Sz=0.00>           |Sz=1.00>
 <Sz=-1.00|(-0.000000,-0.000000)(-0.092225,-1.416163)(0.000000,-0.000000)
 <Sz=0.00|(0.092225,-1.416163)(-0.000000,0.000000)(-0.092225,-1.416163)
 <Sz=1.00|(0.000000,-0.000000)(0.092225,-1.416163)(-0.000000,0.000000)
 ______________________________________________________________

 ------------------------------------------------------------------------------
 State A: eomsf_mp2: 1/A'
 State B: eomsf_mp2: 19/A"
 Energy GAP = 0.353402 a.u. = 9.616567 eV
 Transition dipole moment (a.u.):
   A->B: 0.108927 (X 0.000000, Y 0.000000, Z -0.108927)
   B->A: 0.139233 (X 0.000000, Y 0.000000, Z -0.139233)
 Oscillator strength (a.u.): 0.003573
 Transition angular momentum against gauge origin (a.u.):
   A->B:  (X 0.505645i, Y 0.095538i, Z 0.000000i)
   B->A:  (X -0.703306i, Y -0.127354i, Z 0.000000i)
 Norm of one-particle transition density matrix:
   A->B: 0.633539;   B->A: 0.701644
   ||gamma^AB||*||gamma^BA||: 0.444519

 ______________________________________________________________
 A(Ket)->B(Bra) transition SO matrices
Full 2e SOC is not implemented withing libqints. 
I will do mean-field SOC with libqints, which is usually as good as full 2e SOC
 Analysing Sz ans S^2 of the pair of states...
 Ket state:  Computed S^2 = 2.000000 will be treated as 2.000000 Sz = -1.000000
 Bra state:  Computed S^2 = 2.000003 will be treated as 2.000000 Sz = -1.000000
 Clebsh-Gordan coefficient: <1.000,-1.000;1.000,0.000|1.000,-1.000> = -0.707
 _________________________________________________
 One-electron SO (cm-1)
 Reduced matrix elements:
 <S|| Hso(L-) ||S'> = (-1.247435,-1.483427)
 <S|| Hso(L0) ||S'> = (0.000000,0.000000)
 <S|| Hso(L+) ||S'> = (-1.247435,1.483427)
 SOCC = 2.741040
 Actual matrix elements:
       |Sz=-1.00>           |Sz=0.00>           |Sz=1.00>
 <Sz=-1.00|(0.000000,-0.000000)(-0.882070,1.048942)(-0.000000,0.000000)
 <Sz=0.00|(0.882070,1.048942)(0.000000,-0.000000)(-0.882070,1.048942)
 <Sz=1.00|(-0.000000,-0.000000)(0.882070,1.048942)(0.000000,0.000000)
 _________________________________________________
 Mean-field SO (cm-1)
 Reduced matrix elements:
 <S|| Hso(L-) ||S'> = (-0.677949,-0.830356)
 <S|| Hso(L0) ||S'> = (0.000000,0.000000)
 <S|| Hso(L+) ||S'> = (-0.677949,0.830356)
 SOCC = 1.515986
 Actual matrix elements:
       |Sz=-1.00>           |Sz=0.00>           |Sz=1.00>
 <Sz=-1.00|(0.000000,-0.000000)(-0.479382,0.587151)(-0.000000,0.000000)
 <Sz=0.00|(0.479382,0.587151)(0.000000,-0.000000)(-0.479382,0.587151)
 <Sz=1.00|(-0.000000,-0.000000)(0.479382,0.587151)(0.000000,0.000000)
 Singlet part of <S|| Hso(L0) ||S'> = (-0.000000,-0.000000) (excluded from all matrix elements)
 L-/L+ Averaged reduced matrix elements:
 <S|| Hso(L-) ||S'> = (-0.677949,-0.830356)
 <S|| Hso(L+) ||S'> = (-0.677949,0.830356)
 ______________________________________________________________
 B(Ket)->A(Bra) transition SO matrices
Full 2e SOC is not implemented withing libqints. 
I will do mean-field SOC with libqints, which is usually as good as full 2e SOC
 Analysing Sz ans S^2 of the pair of states...
 Ket state:  Computed S^2 = 2.000003 will be treated as 2.000000 Sz = -1.000000
 Bra state:  Computed S^2 = 2.000000 will be treated as 2.000000 Sz = -1.000000
 Clebsh-Gordan coefficient: <1.000,-1.000;1.000,0.000|1.000,-1.000> = -0.707
 _________________________________________________
 One-electron SO (cm-1)
 Reduced matrix elements:
 <S|| Hso(L-) ||S'> = (1.150742,1.559557)
 <S|| Hso(L0) ||S'> = (0.000000,-0.000000)
 <S|| Hso(L+) ||S'> = (1.150742,-1.559557)
 SOCC = 2.740958
 Actual matrix elements:
       |Sz=-1.00>           |Sz=0.00>           |Sz=1.00>
 <Sz=-1.00|(-0.000000,0.000000)(0.813698,-1.102773)(0.000000,-0.000000)
 <Sz=0.00|(-0.813698,-1.102773)(-0.000000,0.000000)(0.813698,-1.102773)
 <Sz=1.00|(0.000000,0.000000)(-0.813698,-1.102773)(-0.000000,-0.000000)
 _________________________________________________
 Mean-field SO (cm-1)
 Reduced matrix elements:
 <S|| Hso(L-) ||S'> = (0.617831,0.873489)
 <S|| Hso(L0) ||S'> = (0.000000,-0.000000)
 <S|| Hso(L+) ||S'> = (0.617831,-0.873489)
 SOCC = 1.513075
 Actual matrix elements:
       |Sz=-1.00>           |Sz=0.00>           |Sz=1.00>
 <Sz=-1.00|(-0.000000,0.000000)(0.436872,-0.617650)(0.000000,-0.000000)
 <Sz=0.00|(-0.436872,-0.617650)(-0.000000,0.000000)(0.436872,-0.617650)
 <Sz=1.00|(0.000000,0.000000)(-0.436872,-0.617650)(-0.000000,-0.000000)
 Singlet part of <S|| Hso(L0) ||S'> = (-0.000000,-0.000000) (excluded from all matrix elements)
 L-/L+ Averaged reduced matrix elements:
 <S|| Hso(L-) ||S'> = (0.617831,0.873489)
 <S|| Hso(L+) ||S'> = (0.617831,-0.873489)
 ______________________________________________________________
   Arithmetically averaged transition SO matrices
   (The phases shown, Ket and Bra assingment are from A(Ket)->B(Bra))
 _________________________________________________
 One-electron SO (cm-1)
 SOCC = 2.739618
 Actual matrix elements:
       |Sz=-1.00>           |Sz=0.00>           |Sz=1.00>
 <Sz=-1.00|(0.000000,-0.000000)(-0.847884,1.075857)(-0.000000,0.000000)
 <Sz=0.00|(0.847884,1.075857)(0.000000,-0.000000)(-0.847884,1.075857)
 <Sz=1.00|(0.000000,0.000000)(0.847884,1.075857)(0.000000,0.000000)
 _________________________________________________
 Mean-field SO (cm-1)
 SOCC = 1.513627
 Actual matrix elements:
       |Sz=-1.00>           |Sz=0.00>           |Sz=1.00>
 <Sz=-1.00|(0.000000,-0.000000)(-0.458127,0.602400)(-0.000000,0.000000)
 <Sz=0.00|(0.458127,0.602400)(0.000000,-0.000000)(-0.458127,0.602400)
 <Sz=1.00|(0.000000,0.000000)(0.458127,0.602400)(0.000000,0.000000)
 ______________________________________________________________

 ------------------------------------------------------------------------------
 State A: eomsf_mp2: 1/A'
 State B: eomsf_mp2: 20/A"
 Energy GAP = 0.358376 a.u. = 9.751913 eV
 Transition dipole moment (a.u.):
   A->B: 0.015463 (X 0.000000, Y 0.000000, Z 0.015463)
   B->A: 0.020701 (X 0.000000, Y 0.000000, Z 0.020701)
 Oscillator strength (a.u.): 0.000076
 Transition angular momentum against gauge origin (a.u.):
   A->B:  (X -0.072482i, Y 0.011906i, Z 0.000000i)
   B->A:  (X 0.113608i, Y -0.002386i, Z 0.000000i)
 Norm of one-particle transition density matrix:
   A->B: 0.332172;   B->A: 0.339081
   ||gamma^AB||*||gamma^BA||: 0.112633

 ______________________________________________________________
 A(Ket)->B(Bra) transition SO matrices
Full 2e SOC is not implemented withing libqints. 
I will do mean-field SOC with libqints, which is usually as good as full 2e SOC
 Analysing Sz ans S^2 of the pair of states...
 Ket state:  Computed S^2 = 2.000000 will be treated as 2.000000 Sz = -1.000000
 Bra state:  Computed S^2 = 2.000000 will be treated as 2.000000 Sz = -1.000000
 Clebsh-Gordan coefficient: <1.000,-1.000;1.000,0.000|1.000,-1.000> = -0.707
 _________________________________________________
 One-electron SO (cm-1)
 Reduced matrix elements:
 <S|| Hso(L-) ||S'> = (-0.426084,0.871282)
 <S|| Hso(L0) ||S'> = (0.000000,-0.000000)
 <S|| Hso(L+) ||S'> = (-0.426084,-0.871282)
 SOCC = 1.371627
 Actual matrix elements:
       |Sz=-1.00>           |Sz=0.00>           |Sz=1.00>
 <Sz=-1.00|(0.000000,0.000000)(-0.301287,-0.616090)(-0.000000,-0.000000)
 <Sz=0.00|(0.301287,-0.616090)(0.000000,0.000000)(-0.301287,-0.616090)
 <Sz=1.00|(-0.000000,0.000000)(0.301287,-0.616090)(0.000000,-0.000000)
 _________________________________________________
 Mean-field SO (cm-1)
 Reduced matrix elements:
 <S|| Hso(L-) ||S'> = (-0.304022,0.479392)
 <S|| Hso(L0) ||S'> = (0.000000,-0.000000)
 <S|| Hso(L+) ||S'> = (-0.304022,-0.479392)
 SOCC = 0.802803
 Actual matrix elements:
       |Sz=-1.00>           |Sz=0.00>           |Sz=1.00>
 <Sz=-1.00|(0.000000,0.000000)(-0.214976,-0.338981)(-0.000000,-0.000000)
 <Sz=0.00|(0.214976,-0.338981)(0.000000,0.000000)(-0.214976,-0.338981)
 <Sz=1.00|(-0.000000,0.000000)(0.214976,-0.338981)(0.000000,-0.000000)
 Singlet part of <S|| Hso(L0) ||S'> = (-0.000000,-0.000000) (excluded from all matrix elements)
 L-/L+ Averaged reduced matrix elements:
 <S|| Hso(L-) ||S'> = (-0.304022,0.479392)
 <S|| Hso(L+) ||S'> = (-0.304022,-0.479392)
 ______________________________________________________________
 B(Ket)->A(Bra) transition SO matrices
Full 2e SOC is not implemented withing libqints. 
I will do mean-field SOC with libqints, which is usually as good as full 2e SOC
 Analysing Sz ans S^2 of the pair of states...
 Ket state:  Computed S^2 = 2.000000 will be treated as 2.000000 Sz = -1.000000
 Bra state:  Computed S^2 = 2.000000 will be treated as 2.000000 Sz = -1.000000
 Clebsh-Gordan coefficient: <1.000,-1.000;1.000,0.000|1.000,-1.000> = -0.707
 _________________________________________________
 One-electron SO (cm-1)
 Reduced matrix elements:
 <S|| Hso(L-) ||S'> = (0.480990,-0.839807)
 <S|| Hso(L0) ||S'> = (0.000000,0.000000)
 <S|| Hso(L+) ||S'> = (0.480990,0.839807)
 SOCC = 1.368669
 Actual matrix elements:
       |Sz=-1.00>           |Sz=0.00>           |Sz=1.00>
 <Sz=-1.00|(-0.000000,-0.000000)(0.340111,0.593833)(0.000000,0.000000)
 <Sz=0.00|(-0.340111,0.593833)(-0.000000,-0.000000)(0.340111,0.593833)
 <Sz=1.00|(0.000000,-0.000000)(-0.340111,0.593833)(-0.000000,0.000000)
 _________________________________________________
 Mean-field SO (cm-1)
 Reduced matrix elements:
 <S|| Hso(L-) ||S'> = (0.332353,-0.471796)
 <S|| Hso(L0) ||S'> = (0.000000,0.000000)
 <S|| Hso(L+) ||S'> = (0.332353,0.471796)
 SOCC = 0.816150
 Actual matrix elements:
       |Sz=-1.00>           |Sz=0.00>           |Sz=1.00>
 <Sz=-1.00|(-0.000000,-0.000000)(0.235009,0.333610)(0.000000,0.000000)
 <Sz=0.00|(-0.235009,0.333610)(-0.000000,-0.000000)(0.235009,0.333610)
 <Sz=1.00|(0.000000,-0.000000)(-0.235009,0.333610)(-0.000000,0.000000)
 Singlet part of <S|| Hso(L0) ||S'> = (-0.000000,-0.000000) (excluded from all matrix elements)
 L-/L+ Averaged reduced matrix elements:
 <S|| Hso(L-) ||S'> = (0.332353,-0.471796)
 <S|| Hso(L+) ||S'> = (0.332353,0.471796)
 ______________________________________________________________
   Arithmetically averaged transition SO matrices
   (The phases shown, Ket and Bra assingment are from A(Ket)->B(Bra))
 _________________________________________________
 One-electron SO (cm-1)
 SOCC = 1.369418
 Actual matrix elements:
       |Sz=-1.00>           |Sz=0.00>           |Sz=1.00>
 <Sz=-1.00|(-0.000000,0.000000)(-0.320699,-0.604961)(-0.000000,-0.000000)
 <Sz=0.00|(0.320699,-0.604961)(-0.000000,0.000000)(-0.320699,-0.604961)
 <Sz=1.00|(0.000000,-0.000000)(0.320699,-0.604961)(-0.000000,-0.000000)
 _________________________________________________
 Mean-field SO (cm-1)
 SOCC = 0.809238
 Actual matrix elements:
       |Sz=-1.00>           |Sz=0.00>           |Sz=1.00>
 <Sz=-1.00|(-0.000000,0.000000)(-0.224992,-0.336296)(-0.000000,-0.000000)
 <Sz=0.00|(0.224992,-0.336296)(-0.000000,0.000000)(-0.224992,-0.336296)
 <Sz=1.00|(0.000000,-0.000000)(0.224992,-0.336296)(-0.000000,-0.000000)
 ______________________________________________________________


 All requested transition properties have been computed

 Transition Properties:   CPU 83.63 s  wall 84.25 s

 Total ccman2 time:   CPU 648.97 s  wall 642.79 s

 
 --------------------------------------------------------------
             Orbital Energies (a.u.) and Symmetries
 --------------------------------------------------------------
 
 Alpha MOs, Restricted
 -- Occupied --                  
-15.330 -11.074 -11.069 -11.055 -11.052 -11.044 -11.040 -11.039
  1 A'    2 A'    3 A'    4 A'    5 A'    6 A'    7 A'    8 A'                 
-11.037 -11.034  -1.191  -1.074  -1.029  -0.970  -0.928  -0.832
  9 A'   10 A'   11 A'   12 A'   13 A'   14 A'   15 A'   16 A'                 
 -0.783  -0.765  -0.672  -0.650  -0.633  -0.573  -0.562  -0.529
 17 A'   18 A'   19 A'   20 A'   21 A'   22 A'   23 A'   24 A'                 
 -0.518  -0.506  -0.505  -0.461  -0.428  -0.406  -0.348  -0.328
 25 A'   26 A'    1 A"   27 A'   28 A'    2 A"    3 A"   29 A'                 
 -0.285  -0.214
  4 A"    5 A"                                                                 
 -- Virtual --                   
  0.160   0.246   0.309   0.396   0.533   0.579   0.595   0.637
  6 A"    7 A"    8 A"    9 A"   10 A"   30 A'   31 A'   32 A'                 
  0.647   0.661   0.690   0.721   0.725   0.755   0.769   0.853
 33 A'   34 A'   35 A'   36 A'   37 A'   38 A'   39 A'   40 A'                 
  0.880   0.881   0.931   0.972   1.033   1.095   1.149
 41 A'   42 A'   43 A'   44 A'   45 A'   46 A'   47 A'                         
 
 Beta MOs, Restricted
 -- Occupied --                  
-15.330 -11.074 -11.069 -11.055 -11.052 -11.044 -11.040 -11.039
  1 A'    2 A'    3 A'    4 A'    5 A'    6 A'    7 A'    8 A'                 
-11.037 -11.034  -1.191  -1.074  -1.029  -0.970  -0.928  -0.832
  9 A'   10 A'   11 A'   12 A'   13 A'   14 A'   15 A'   16 A'                 
 -0.783  -0.765  -0.672  -0.650  -0.633  -0.573  -0.562  -0.529
 17 A'   18 A'   19 A'   20 A'   21 A'   22 A'   23 A'   24 A'                 
 -0.518  -0.506  -0.505  -0.461  -0.428  -0.406  -0.348  -0.328
 25 A'   26 A'    1 A"   27 A'   28 A'    2 A"    3 A"   29 A'                 
 -0.285  -0.214
  4 A"    5 A"                                                                 
 -- Virtual --                   
  0.160   0.246   0.309   0.396   0.533   0.579   0.595   0.637
  6 A"    7 A"    8 A"    9 A"   10 A"   30 A'   31 A'   32 A'                 
  0.647   0.661   0.690   0.721   0.725   0.755   0.769   0.853
 33 A'   34 A'   35 A'   36 A'   37 A'   38 A'   39 A'   40 A'                 
  0.880   0.881   0.931   0.972   1.033   1.095   1.149
 41 A'   42 A'   43 A'   44 A'   45 A'   46 A'   47 A'                         
 --------------------------------------------------------------
 
          Ground-State Mulliken Net Atomic Charges

     Atom                 Charge (a.u.)
  ----------------------------------------
      1 C                    -0.014275
      2 C                     0.083722
      3 C                    -0.046744
      4 C                    -0.060337
      5 C                    -0.063815
      6 C                    -0.039571
      7 N                    -0.237851
      8 C                    -0.052683
      9 C                    -0.071654
     10 C                     0.020488
     11 H                     0.065734
     12 H                     0.070758
     13 H                     0.072568
     14 H                     0.061853
     15 H                     0.066994
     16 H                     0.068326
     17 H                     0.076487
  ----------------------------------------
  Sum of atomic charges =     0.000000

 -----------------------------------------------------------------
                    Cartesian Multipole Moments
 -----------------------------------------------------------------
    Charge (ESU x 10^10)
                 0.0000
    Dipole Moment (Debye)
         X       0.5382      Y      -1.7619      Z      -0.0000
       Tot       1.8423
    Quadrupole Moments (Debye-Ang)
        XX     -48.2267     XY       2.4053     YY     -54.0115
        XZ      -0.0000     YZ      -0.0000     ZZ     -55.1149
    Octopole Moments (Debye-Ang^2)
       XXX      -4.7204    XXY      -0.4287    XYY       5.6617
       YYY      -9.0637    XXZ      -0.0000    XYZ       0.0000
       YYZ      -0.0000    XZZ      -1.3285    YZZ       1.6550
       ZZZ      -0.0000
    Hexadecapole Moments (Debye-Ang^3)
      XXXX   -1035.9504   XXXY      -3.3444   XXYY    -251.1200
      XYYY      12.3851   YYYY    -455.9924   XXXZ       0.0000
      XXYZ      -0.0000   XYYZ       0.0000   YYYZ      -0.0000
      XXZZ    -203.9989   XYZZ      -1.7980   YYZZ     -87.9386
      XZZZ       0.0000   YZZZ      -0.0000   ZZZZ     -43.6424
 -----------------------------------------------------------------
 Total job time:  669.70s(wall), 674.87s(cpu) 
 Fri Jan 26 13:42:37 2024

        *************************************************************
        *                                                           *
        *  Thank you very much for using Q-Chem.  Have a nice day.  *
        *                                                           *
        *************************************************************


