                  Welcome to Q-Chem
     A Quantum Leap Into The Future Of Chemistry


 Q-Chem 6.0 (devel), Q-Chem, Inc., Pleasanton, CA (2022)

 E. Epifanovsky,  A. T. B. Gilbert,  Xintian Feng,  Joonho Lee,  Yuezhi Mao,  
 N. Mardirossian,  P. Pokhilko,  A. White,  M. Wormit,  M. P. Coons,  
 A. L. Dempwolff,  Zhengting Gan,  D. Hait,  P. R. Horn,  L. D. Jacobson,  
 I. Kaliman,  J. Kussmann,  A. W. Lange,  Ka Un Lao,  D. S. Levine,  Jie Liu,  
 S. C. McKenzie,  A. F. Morrison,  K. Nanda,  F. Plasser,  D. R. Rehn,  
 M. L. Vidal,  Zhi-Qiang You,  Ying Zhu,  B. Alam,  B. Albrecht,  
 A. Aldossary,  E. Alguire,  J. H. Andersen,  V. Athavale,  D. Barton,  
 K. Begam,  A. Behn,  N. Bellonzi,  Y. A. Bernard,  E. J. Berquist,  
 H. Burton,  A. Carreras,  K. Carter-Fenk,  Romit Chakraborty,  
 Chandrima Chakravarty,  Junhan Chen,  A. D. Chien,  K. D. Closser,  
 V. Cofer-Shabica,  L. Cunha,  S. Dasgupta,  Jia Deng,  M. de Wergifosse,  
 M. Diedenhofen,  Hainam Do,  S. Ehlert,  Po-Tung Fang,  S. Fatehi,  
 Qingguo Feng,  T. Friedhoff,  B. Ganoe,  J. Gayvert,  Qinghui Ge,  
 G. Gidofalvi,  M. Goldey,  J. Gomes,  C. Gonzalez-Espinoza,  S. Gulania,  
 A. Gunina,  J. A. Gyamfi,  M. W. D. Hanson-Heine,  P. H. P. Harbach,  
 A. W. Hauser,  M. F. Herbst,  M. Hernandez Vera,  M. Hodecker,  
 Z. C. Holden,  S. Houck,  Xunkun Huang,  Kerwin Hui,  B. C. Huynh,  
 K. Ikeda,  M. Ivanov,  Hyunjun Ji,  Zuxin Jin,  Hanjie Jiang,  B. Kaduk,  
 S. Kaehler,  R. Kang,  K. Khistyaev,  Jaehoon Kim,  Yongbin Kim,  
 P. Klunzinger,  Z. Koczor-Benda,  Joong Hoon Koh,  D. Kosenkov,  
 Saikiran Kotaru,  L. Koulias,  T. Kowalczyk,  C. M. Krauter,  K. Kue,  
 A. Kunitsa,  T. Kus,  A. Landau,  K. V. Lawler,  D. Lefrancois,  S. Lehtola,  
 Rain Li,  Shaozhi Li,  Yi-Pei Li,  Jiashu Liang,  M. Liebenthal,  
 Hung-Hsuan Lin,  You-Sheng Lin,  Fenglai Liu,  Kuan-Yu Liu,  
 M. Loipersberger,  A. Luenser,  C. Malbon,  A. Manjanath,  P. Manohar,  
 E. Mansoor,  S. F. Manzer,  Shan-Ping Mao,  A. V. Marenich,  T. Markovich,  
 S. Mason,  F. Matz,  S. A. Maurer,  P. F. McLaughlin,  M. F. S. J. Menger,  
 J.-M. Mewes,  S. A. Mewes,  P. Morgante,  Mohammad Mostafanejad,  
 J. W. Mullinax,  K. J. Oosterbaan,  G. Paran,  V. Parravicini,  
 Alexander C. Paul,  Suranjan K. Paul,  F. Pavosevic,  Zheng Pei,  S. Prager,  
 E. I. Proynov,  E. Ramos,  B. Rana,  A. E. Rask,  A. Rettig,  R. M. Richard,  
 F. Rob,  E. Rossomme,  T. Scheele,  M. Scheurer,  M. Schneider,  
 P. E. Schneider,  N. Sergueev,  S. M. Sharada,  Hengyuan Shen,  
 W. Skomorowski,  D. W. Small,  C. J. Stein,  Yingli Su,  Yu-Chuan Su,  
 E. J. Sundstrom,  Zhen Tao,  J. Thirman,  Hung-Yi Tsai,  T. Tsuchimochi,  
 N. M. Tubman,  C. Utku,  S. P. Veccham,  O. Vydrov,  J. Wenzel,  
 Jonathan Wong,  J. Witte,  A. Yamada,  Chou-Hsun Yang,  Kun Yao,  
 S. Yeganeh,  S. R. Yost,  A. Zech,  F. Zeller,  Igor Ying Zhang,  
 Xing Zhang,  Yu Zhang,  D. Zuev,  A. Aspuru-Guzik,  A. T. Bell,  
 N. A. Besley,  K. B. Bravaya,  B. R. Brooks,  D. Casanova,  Jeng-Da Chai,  
 Hsing-Ta Chen,  S. Coriani,  C. J. Cramer,  A. E. DePrince, III,  
 R. A. DiStasio Jr.,  A. Dreuw,  B. D. Dunietz,  T. R. Furlani,  
 W. A. Goddard III,  S. Grimme,  S. Hammes-Schiffer,  T. Head-Gordon,  
 W. J. Hehre,  Chao-Ping Hsu,  T.-C. Jagau,  Yousung Jung,  A. Klamt,  
 Jing Kong,  D. S. Lambrecht,  Xiangyuan Li,  WanZhen Liang,  N. J. Mayhall,  
 C. W. McCurdy,  J. B. Neaton,  T. Neudecker,  C. Ochsenfeld,  
 J. A. Parkhill,  R. Peverati,  V. A. Rassolov,  Haisheng Ren,  Yihan Shao,  
 L. V. Slipchenko,  R. P. Steele,  J. E. Subotnik,  A. J. W. Thom,  
 A. Tkatchenko,  D. G. Truhlar,  T. Van Voorhis,  Fan Wang,  
 T. A. Wesolowski,  K. B. Whaley,  H. L. Woodcock III,  P. M. Zimmerman,  
 S. Faraji,  P. M. W. Gill,  M. Head-Gordon,  J. M. Herbert,  A. I. Krylov

 Contributors to earlier versions of Q-Chem not listed above: 
 R. D. Adamson,  B. Austin,  R. Baer,  J. Baker,  G. J. O. Beran,  
 K. Brandhorst,  S. T. Brown,  E. F. C. Byrd,  Arup K. Chakraborty,  
 G. K. L. Chan,  Chun-Min Chang,  Yunqing Chen,  C.-L. Cheng,  
 Siu Hung Chien,  D. M. Chipman,  D. L. Crittenden,  H. Dachsel,  
 R. J. Doerksen,  A. D. Dutoi,  R. G. Edgar,  J. Fosso-Tande,  
 L. Fusti-Molnar,  D. Ghosh,  A. Ghysels,  A. Golubeva-Zadorozhnaya,  
 J. Gonthier,  M. S. Gordon,  S. R. Gwaltney,  G. Hawkins,  J. E. Herr,  
 A. Heyden,  S. Hirata,  E. G. Hohenstein,  G. Kedziora,  F. J. Keil,  
 C. Kelley,  Jihan Kim,  R. A. King,  R. Z. Khaliullin,  P. P. Korambath,  
 W. Kurlancheek,  A. Laurent,  A. M. Lee,  M. S. Lee,  S. V. Levchenko,  
 Ching Yeh Lin,  D. Liotard,  E. Livshits,  R. C. Lochan,  I. Lotan,  
 L. A. Martinez-Martinez,  P. E. Maslen,  N. Nair,  D. P. O'Neill,  
 D. Neuhauser,  E. Neuscamman,  C. M. Oana,  R. Olivares-Amaya,  R. Olson,  
 T. M. Perrine,  B. Peters,  P. A. Pieniazek,  A. Prociuk,  Y. M. Rhee,  
 J. Ritchie,  M. A. Rohrdanz,  E. Rosta,  N. J. Russ,  H. F. Schaefer III,  
 M. W. Schmidt,  N. E. Schultz,  S. Sharma,  N. Shenvi,  C. D. Sherrill,  
 A. C. Simmonett,  A. Sodt,  T. Stein,  D. Stuck,  K. S. Thanthiriwatte,  
 V. Vanovschi,  L. Vogt,  Tao Wang,  A. Warshel,  M. A. Watson,  
 C. F. Williams,  Q. Wu,  X. Xu,  Jun Yang,  W. Zhang,  Yan Zhao

   Please cite Q-Chem as follows:
  "Software for the frontiers of quantum chemistry:
   An overview of developments in the Q-Chem 5 package"
   J. Chem. Phys. 155, 084801 (2021)
   https://doi.org/10.1063/5.0055522 (open access)

 Q-Chem 6.0.1 for Intel X86 EM64T Linux

 Parts of Q-Chem use Armadillo 9.900.5 (Nocturnal Misbehaviour).
 http://arma.sourceforge.net/

 Q-Chem begins on Thu Sep  5 17:05:04 2024  

 Host: hyperion-073
0

     Scratch files written to ./qchem1567141//
 Processing $rem in /scratch/abel/SOFTWARE/qchem/config/preferences:
 Processing $rem in /home/acebg/.qchemrc:

 Checking the input file for inconsistencies... 	...done.

--------------------------------------------------------------
User input:
--------------------------------------------------------------
$comment
 RAS-SF CALCULATION
$end

$molecule
READ o2.molecule
$end

$rem
!**CALCULATION TYPE***     
JOBTYPE            sp    
EXCHANGE           HF
CORRELATION        RASCI    !RASCI=Casanova; RASCI2=Zimmerman
BASIS              def2-TZVP
!BASIS2             STO-3G

!***SCF REFERENCE***
!SKIP_SCFMAN        FALSE
UNRESTRICTED       FALSE
!SCF_GUESS          core
!SCF_GUESS_MIX      FALSE
!SCF_GUESS_ALWAYS   FALSE
MAX_SCF_CYCLES     500
!SCF_CONVERGENCE    10
SCF_ALGORITHM      DIIS_GDM !DIIS,DM,DIIS_DM,GDM,DIIS_GDM,GD

!SYMMETRY           TRUE   !use of symmetry for calculating integrals
!SYM_IGNORE         FALSE  !turn off using symmetry
!SYM_TOL            5      !tolerance for determining point group
!USE_ABELIAN_SUBGROUP      !define to use abelian group

!THRESH             14
!SCF_FINAL_PRINT     1 !0,1,2,3

!****RAS-SF****
RAS_ROOTS          30       !number of RAS-CI roots to be computed
SET_ITER           100     !number of iterations in RASCI
RAS_ELEC 4
RAS_ELEC_ALPHA 3
RAS_ELEC_BETA 1

RAS_ACT 3
RAS_ACT_ORB [5, 8, 9]
RAS_OCC 6
!N_FROZEN_CORE      FC     !Number of frozen core orbitals
!N_FROZEN_VIRTUAL   0      !Number of frozen virtual orbitals

!RAS_DO_HOLE        TRUE   !presence of hole excitations in RAS-CI wave function
!RAS_DO_PART        TRUE   !presence of particle excitations
!RAS_AMPL_PRINT     10     !threshold (×10 2 ) for the CI amplitudes

!RAS_GUESS_CS       0      !number of closed shell guess conﬁgurations
!RAS_SPIN_MULT      0      !spin multiplicity. Only for Ms = 0 
!RAS_SRDFT          FALSE  !short-range density functional RAS-CI
!RAS_NFRAG          0     !fragments of excitation analysis in RASCI

RAS_PRINT          2      !level of information
!RAS_NATORB         TRUE   !computation of the natural orbital occupancies
!RAS_NATORB_STATE  0      !Saves NO of i RAS computed state in .fchk ﬁle
!RAS_FOD            TRUE

!****RAS-SOC****
CALC_SOC           TRUE   !calculate SOC for EOM-CC, RAS-CI, ADC, TDDFT/TDA and TDDFT
!RAS_SOC_2E        TRUE   !two-electron mean-ﬁeld contribution, default=true
RAS_SOC_SYM_DENS   TRUE   !averaging of α and β densities

!****MEMORY****
MEM_TOTAL          50000 !Default 2000 MB
MEM_STATIC         2000  !Default 64 MB

!**Molecular Properties and Analysis **                                                                                          
GUI                0       !Checkpoints generation
STATE_ANALYSIS     TRUE
$end
--------------------------------------------------------------
 ----------------------------------------------------------------
             Standard Nuclear Orientation (Angstroms)
    I     Atom           X                Y                Z
 ----------------------------------------------------------------
    1      O       0.0000000000     0.0000000000    -0.6037600000
    2      O       0.0000000000     0.0000000000     0.6037600000
 ----------------------------------------------------------------
 Molecular Point Group                 D2h   NOp =  8
 Largest Abelian Subgroup              D2h   NOp =  8
 Nuclear Repulsion Energy =          28.04702323 hartrees
 There are        9 alpha and        7 beta electrons
 Requested basis set is def2-TZVP
 There are 22 shells and 62 basis functions

 Total QAlloc Memory Limit  50000 MB
 Mega-Array Size      1956 MB
 MEM_STATIC part      2000 MB


                       Distance Matrix (Angstroms)
             O (  1)
   O (  2)  1.207520
 
 A cutoff of  1.0D-09 yielded    252 shell pairs
 There are      2052 function pairs (      2795 Cartesian)
 Smallest overlap matrix eigenvalue = 1.88E-03

 Scale SEOQF with 1.000000e+00/1.000000e+00/1.000000e+00

 Standard Electronic Orientation quadrupole field applied
 Nucleus-field energy     =    -0.0000000062 hartrees
 Guess from superposition of atomic densities
 Warning:  Energy on first SCF cycle will be non-variational
 SAD guess density has 16.000000 electrons

 -----------------------------------------------------------------------
  General SCF calculation program by
  Eric Jon Sundstrom, Paul Horn, Yuezhi Mao, Dmitri Zuev, Alec White,
  David Stuck, Shaama M.S., Shane Yost, Joonho Lee, David Small,
  Daniel Levine, Susi Lehtola, Hugh Burton, Evgeny Epifanovsky,
  Bang C. Huynh
 -----------------------------------------------------------------------
 Hartree-Fock
 Orthonormalizing orbitals
 A restricted open-shell SCF calculation will be
 performed using DIIS, GDM
 SCF converges when RMS gradient is below 1.0e-05
 ---------------------------------------
  Cycle       Energy         DIIS error
 ---------------------------------------
    1    -146.1465910826      2.09e-01  
    2    -149.3698679315      7.03e-02  
    3    -149.4809926879      5.80e-02  
    4    -149.6571916965      7.13e-03  Done DIIS. Switching to GDM
 ---------------------------------------
  Cycle       Energy        RMS Gradient
 ---------------------------------------
    1    -149.6571916965      3.25e-02   Normal BFGS step
    2    -149.6598849466      1.41e-02   Normal BFGS step
    3    -149.6602952837      1.20e-03   Normal BFGS step
    4    -149.6602995684      2.83e-04   Normal BFGS step
    5    -149.6602997700      2.04e-05   Normal BFGS step
    6    -149.6602997742      3.96e-06  Convergence criterion met
The disked orbital energies are calculated using alpha and beta Focks
 ---------------------------------------
 SCF time:   CPU 0.64s  wall 1.00s 
<S^2> =          2.000000000
 SCF   energy in the final basis set =     -149.6602997742
 Total energy in the final basis set =     -149.6602997742
  
     ##========================================##
     ||                                        ||
     ||              R A S M A N 2             ||
     ||________________________________________||
     ||                                        ||
     ||  Author:                               ||
     ||                                        ||
     ||        David Casanova (2010)           ||
     ||                                        ||
     ##========================================##
  
Setting single-point xc-functionals (if necessary)

  ***************************************************
  *  RAS-CI Dimensions:                             *
  *                                                 *
  *  Active Elec.:   4 ( 3, 1)   Active Orb.:   3   *
  *  Doubly Occ. :   6           Doubly Vir.:  53   *
  *  Frozen Occ. :   0           Frozen Vir.:   0   *
  *                                                 *
  *  Total CI configurations:       551             * 
  *    Active configurations:         3             * 
  *      Hole configurations:        18             * 
  *  Particle configurations:       530             * 
  *                                                 *
  *   Requested states:       30                    *
  *  Spin multiplicity: Any multiplicity            *
  *                                                 *
  ***************************************************
-----------------------------------------
    Memory requirements of RASCI

 Each CI-vector requires      0.00 MiB 
 Max. subspace vectors            551      

 Reduced Lists                0.00 MiB 
 Excitation Lists             0.00 MiB 
 Excitation Lists Sign        0.00 MiB 
 CI-space (Max)               4.76 MiB 
 Integrals                    0.76 MiB 
 Memory required (Max)        4.76 MiB 
 Memory available          1907.35 MiB 

    Disk requirements of RASCI

 Fock matrix                  0.06 MiB 
 2-electron integrals         0.85 MiB 
 CI-space                     4.63 MiB 
 Disk required                5.54 MiB 
-----------------------------------------
  
RAS1 HF-like energy:           -143.7461867156
 Computing integrals
 Computing J and K matrices
 Computing addressing
 Making amplitude guesses
 
Direct CI diagonalization
 ---------------------------------------------------
 Iter    Rts Conv    Rts Left    Ttl Dev     Max Dev
 ---------------------------------------------------
   1         0          30      0.190566    0.015549
   2         0          30      0.137051    0.010759
   3         0          30      0.078673    0.010361
   4         0          30      0.056863    0.010762
   5         0          30      0.029555    0.004933
   6         1          29      0.009843    0.002583
   7         4          26      0.003444    0.000808
   8         9          21      0.001117    0.000480
   9        15          15      0.001316    0.001030
  10        19          11      0.000778    0.000716
  11        25           5      0.001352    0.001332
  12        29           1      0.001473    0.001467
  13        29           1      0.001449    0.001444
  14        29           1      0.002676    0.002670
  15        29           1      0.001130    0.001124
  16        29           1      0.001258    0.001252
  17        29           1      0.000866    0.000861
  18        29           1      0.000470    0.000465
  19        29           1      0.000374    0.000368
  20        29           1      0.000153    0.000147
  21        29           1      0.000111    0.000106
  22        29           1      0.000126    0.000120
  23        29           1      0.000031    0.000025
  24        29           1      0.000018    0.000013
  25        29           1      0.000013    0.000008
  26        29           1      0.000007    0.000002
  27        30           0      0.000006    0.000001    Roots Converged
 ---------------------------------------------------
   
**************************************************
 RAS-CI total energy for state   1:   -149.663109480497
  Excitation energy (eV) =  0.000000000000
  State symmetry: B1g   (D2h      )
  <S^2>      :  2.0000
  Dipole Moment:   -0.0000 X     0.0000 Y    -0.0000 Z
 NATURAL OCCUPATION NUMBERS (higher than 1.0E-05)
            1           2           3           4           5           6
    1   2.0000000   2.0000000   2.0000000   2.0000000   2.0000000   2.0000000
            7           8           9          10          11          12
    1   1.9985503   1.0000906   1.0000906   0.0005610   0.0002631   0.0002631
           13          14
    1   0.0000906   0.0000906

 Head-Gordon Nu:    2.00
 Head-Gordon Nu_nl: 2.00
 Created directory ./qchem1567141/plots

  Amplitudes : 
  
 | HOLE  | ALPHA | BETA  | PART  |    AMPLITUDE 
--------------------------------------------------
 |       | 111   | 100   |       |     9.9936522386063E-01
--------------------------------------------------
*** Contributions RASCI wfn    Active:  99.87
                                 Hole:   0.00
                                 Part:   0.13

      Mulliken population analysis 
 ---------------------------------------------------
   Atom    Charge (a.u.)   Spin (a.u.)  
 ---------------------------------------------------
   1  O   -0.000000        1.000000 
   2  O   -0.000000        1.000000 
 ---------------------------------------------------
   Sum:   -0.000000        2.000000 
 ---------------------------------------------------
 
*** Unpaired Electrons
 Yamaguchi Nd:         2.01
  
**************************************************
 RAS-CI total energy for state   2:   -149.504843929585
  Excitation energy (eV) =  4.306624754528
  State symmetry: B1u   (D2h      )
  <S^2>      :  2.0000
  Dipole Moment:   -0.0000 X    -0.0000 Y    -0.0000 Z
  Trans. Moment:    0.0000 X     0.0000 Y     0.0000 Z
  Strength   :  0.000000
  Natural transition orbitals ( 1 -> 2 ):
   e-/hole pair  1 alpha:  ampl =  0.019137 (  0.0%)   [3 : 4]
   e-/hole pair  2 alpha:  ampl =  0.019137 (  0.0%)   [2 : 5]
   e-/hole pair  1 beta :  ampl =  0.706158 ( 49.9%)   [3 : 4]
   e-/hole pair  2 beta :  ampl =  0.706155 ( 49.9%)   [2 : 5]
   Sum of square amplitudes: 1.00

 NATURAL OCCUPATION NUMBERS (higher than 1.0E-05)
            1           2           3           4           5           6
    1   2.0000000   2.0000000   2.0000000   2.0000000   1.9991649   1.5007108
            7           8           9          10          11          12
    1   1.5007070   1.4990016   1.4989978   0.0004031   0.0004031   0.0003076
           13          14          15          16
    1   0.0001548   0.0000694   0.0000389   0.0000389

 Head-Gordon Nu:    2.00
 Head-Gordon Nu_nl: 2.25

  Amplitudes : 
  
 | HOLE  | ALPHA | BETA  | PART  |    AMPLITUDE 
--------------------------------------------------
 |   6   | 111   | 110   |       |     7.0565883013605E-01
 |   5   | 111   | 101   |       |     7.0565616175612E-01
--------------------------------------------------
*** Contributions RASCI wfn    Active:   0.00
                                 Hole:  99.86
                                 Part:   0.14

      Mulliken population analysis 
 ---------------------------------------------------
   Atom    Charge (a.u.)   Spin (a.u.)  
 ---------------------------------------------------
   1  O   -0.000000        1.000000 
   2  O   -0.000000        1.000000 
 ---------------------------------------------------
   Sum:   -0.000000        2.000000 
 ---------------------------------------------------
 
*** Unpaired Electrons
 Yamaguchi Nd:         3.01
  
**************************************************
 RAS-CI total energy for state   3:   -149.504843929584
  Excitation energy (eV) =  4.306624754556
  State symmetry: Au    (D2h      )
  <S^2>      :  2.0000
  Dipole Moment:    0.0000 X    -0.0000 Y    -0.0000 Z
  Trans. Moment:   -0.0000 X     0.0000 Y     0.0000 Z
  Strength   :  0.000000
  Natural transition orbitals ( 1 -> 3 ):
   e-/hole pair  1 alpha:  ampl =  0.019137 (  0.0%)   [3 : 4]
   e-/hole pair  2 alpha:  ampl =  0.019137 (  0.0%)   [2 : 5]
   e-/hole pair  1 beta :  ampl =  0.706161 ( 49.9%)   [3 : 4]
   e-/hole pair  2 beta :  ampl =  0.706153 ( 49.9%)   [2 : 5]
   Sum of square amplitudes: 1.00

 NATURAL OCCUPATION NUMBERS (higher than 1.0E-05)
            1           2           3           4           5           6
    1   2.0000000   2.0000000   2.0000000   2.0000000   1.9991649   1.5007145
            7           8           9          10          11          12
    1   1.5007033   1.4990053   1.4989941   0.0004031   0.0004031   0.0003076
           13          14          15          16
    1   0.0001548   0.0000694   0.0000389   0.0000389

 Head-Gordon Nu:    2.00
 Head-Gordon Nu_nl: 2.25

  Amplitudes : 
  
 | HOLE  | ALPHA | BETA  | PART  |    AMPLITUDE 
--------------------------------------------------
 |   5   | 111   | 110   |       |    -7.0565748764601E-01
 |   6   | 111   | 101   |       |     7.0565750422584E-01
--------------------------------------------------
*** Contributions RASCI wfn    Active:   0.00
                                 Hole:  99.86
                                 Part:   0.14

      Mulliken population analysis 
 ---------------------------------------------------
   Atom    Charge (a.u.)   Spin (a.u.)  
 ---------------------------------------------------
   1  O   -0.000000        1.000000 
   2  O   -0.000000        1.000000 
 ---------------------------------------------------
   Sum:   -0.000000        2.000000 
 ---------------------------------------------------
 
*** Unpaired Electrons
 Yamaguchi Nd:         3.01
  
**************************************************
 RAS-CI total energy for state   4:   -149.498368613826
  Excitation energy (eV) =  4.482827061224
  State symmetry: B1u   (D2h      )
  <S^2>      :  2.0000
  Dipole Moment:   -0.0000 X    -0.0000 Y    -0.0000 Z
  Trans. Moment:   -0.0000 X    -0.0000 Y    -0.0000 Z
  Strength   :  0.000000
  Natural transition orbitals ( 1 -> 4 ):
   e-/hole pair  1 alpha:  ampl =  0.000381 (  0.0%)   [3 : 4]
   e-/hole pair  2 alpha:  ampl =  0.000381 (  0.0%)   [2 : 5]
   e-/hole pair  1 beta :  ampl =  0.706396 ( 49.9%)   [3 : 4]
   e-/hole pair  2 beta :  ampl =  0.706387 ( 49.9%)   [2 : 5]
   Sum of square amplitudes: 1.00

 NATURAL OCCUPATION NUMBERS (higher than 1.0E-05)
            1           2           3           4           5           6
    1   2.0000000   2.0000000   2.0000000   1.9998276   1.9990645   1.5003826
            7           8           9          10          11          12
    1   1.5003708   1.4998927   1.4998808   0.0002325   0.0000913   0.0000913
           13          14
    1   0.0000829   0.0000829

 Head-Gordon Nu:    2.00
 Head-Gordon Nu_nl: 2.25

  Amplitudes : 
  
 | HOLE  | ALPHA | BETA  | PART  |    AMPLITUDE 
--------------------------------------------------
 |   6   | 111   | 110   |       |    -7.0683923177034E-01
 |   5   | 111   | 101   |       |     7.0684148503799E-01
--------------------------------------------------
*** Contributions RASCI wfn    Active:   0.00
                                 Hole:  99.94
                                 Part:   0.06

      Mulliken population analysis 
 ---------------------------------------------------
   Atom    Charge (a.u.)   Spin (a.u.)  
 ---------------------------------------------------
   1  O   -0.000000        1.000000 
   2  O   -0.000000        1.000000 
 ---------------------------------------------------
   Sum:   -0.000000        2.000000 
 ---------------------------------------------------
 
*** Unpaired Electrons
 Yamaguchi Nd:         3.00
  
**************************************************
 RAS-CI total energy for state   5:   -149.392026405369
  Excitation energy (eV) =  7.376545781143
  State symmetry: B2g   (D2h      )
  <S^2>      :  2.0000
  Dipole Moment:   -0.0000 X     0.0000 Y    -0.0000 Z
  Trans. Moment:    0.0000 X    -0.0000 Y    -0.0000 Z
  Strength   :  0.000000
  Natural transition orbitals ( 1 -> 5 ):
   e-/hole pair  1 alpha:  ampl =  0.024894 (  0.1%)   [3 : 4]
   e-/hole pair  2 alpha:  ampl =  0.016447 (  0.0%)   [2 : 5]
   e-/hole pair  1 beta :  ampl =  0.998405 ( 99.7%)   [3 : 4]
   e-/hole pair  2 beta :  ampl =  0.001361 (  0.0%)   [2 : 5]
   Sum of square amplitudes: 1.00

 NATURAL OCCUPATION NUMBERS (higher than 1.0E-05)
            1           2           3           4           5           6
    1   2.0000000   2.0000000   2.0000000   2.0000000   2.0000000   1.9999946
            7           8           9          10          11          12
    1   1.9979912   1.0008126   0.9998659   0.0006213   0.0003268   0.0002561
           13          14
    1   0.0000652   0.0000577

 Head-Gordon Nu:    2.00
 Head-Gordon Nu_nl: 2.00

  Amplitudes : 
  
 | HOLE  | ALPHA | BETA  | PART  |    AMPLITUDE 
--------------------------------------------------
 |       | 111   | 001   |       |     9.9621503498407E-01
--------------------------------------------------
*** Contributions RASCI wfn    Active:  99.47
                                 Hole:   0.18
                                 Part:   0.35

      Mulliken population analysis 
 ---------------------------------------------------
   Atom    Charge (a.u.)   Spin (a.u.)  
 ---------------------------------------------------
   1  O   -0.000000        1.000000 
   2  O   -0.000000        1.000000 
 ---------------------------------------------------
   Sum:   -0.000000        2.000000 
 ---------------------------------------------------
 
*** Unpaired Electrons
 Yamaguchi Nd:         2.01
  
**************************************************
 RAS-CI total energy for state   6:   -149.392026389858
  Excitation energy (eV) =  7.376546203220
  State symmetry: B3g   (D2h      )
  <S^2>      :  2.0000
  Dipole Moment:   -0.0000 X     0.0000 Y    -0.0000 Z
  Trans. Moment:   -0.0000 X     0.0000 Y     0.0000 Z
  Strength   :  0.000000
  Natural transition orbitals ( 1 -> 6 ):
   e-/hole pair  1 alpha:  ampl =  0.024894 (  0.1%)   [3 : 4]
   e-/hole pair  2 alpha:  ampl =  0.016447 (  0.0%)   [2 : 5]
   e-/hole pair  1 beta :  ampl =  0.998405 ( 99.7%)   [3 : 4]
   e-/hole pair  2 beta :  ampl =  0.001361 (  0.0%)   [2 : 5]
   Sum of square amplitudes: 1.00

 NATURAL OCCUPATION NUMBERS (higher than 1.0E-05)
            1           2           3           4           5           6
    1   2.0000000   2.0000000   2.0000000   2.0000000   2.0000000   1.9999946
            7           8           9          10          11          12
    1   1.9979912   1.0008126   0.9998659   0.0006213   0.0003268   0.0002561
           13          14
    1   0.0000652   0.0000577

 Head-Gordon Nu:    2.00
 Head-Gordon Nu_nl: 2.00

  Amplitudes : 
  
 | HOLE  | ALPHA | BETA  | PART  |    AMPLITUDE 
--------------------------------------------------
 |       | 111   | 010   |       |     9.9621503947609E-01
--------------------------------------------------
*** Contributions RASCI wfn    Active:  99.47
                                 Hole:   0.18
                                 Part:   0.35

      Mulliken population analysis 
 ---------------------------------------------------
   Atom    Charge (a.u.)   Spin (a.u.)  
 ---------------------------------------------------
   1  O   -0.000000        1.000000 
   2  O   -0.000000        1.000000 
 ---------------------------------------------------
   Sum:   -0.000000        2.000000 
 ---------------------------------------------------
 
*** Unpaired Electrons
 Yamaguchi Nd:         2.01
  
**************************************************
 RAS-CI total energy for state   7:   -149.344766762892
  Excitation energy (eV) =  8.662546082615
  State symmetry: Au    (D2h      )
  <S^2>      :  2.0000
  Dipole Moment:    0.0000 X    -0.0000 Y     0.0000 Z
  Trans. Moment:    0.0000 X     0.0000 Y    -0.9488 Z
  Strength   :  0.191055
  Natural transition orbitals ( 1 -> 7 ):
   e-/hole pair  1 alpha:  ampl =  0.249458 (  6.2%)   [3 : 4]
   e-/hole pair  2 alpha:  ampl =  0.165887 (  2.8%)   [2 : 5]
   e-/hole pair  1 beta :  ampl =  0.645617 ( 41.7%)   [3 : 4]
   e-/hole pair  2 beta :  ampl =  0.645616 ( 41.7%)   [2 : 5]
   Sum of square amplitudes: 1.00

 NATURAL OCCUPATION NUMBERS (higher than 1.0E-05)
            1           2           3           4           5           6
    1   2.0000000   2.0000000   2.0000000   2.0000000   1.8896782   1.5826498
            7           8           9          10          11          12
    1   1.5826495   1.3898617   1.3898614   0.1097570   0.0275653   0.0275653
           13          14          15          16          17
    1   0.0002239   0.0000527   0.0000527   0.0000413   0.0000413

 Head-Gordon Nu:    2.33
 Head-Gordon Nu_nl: 2.40

  Amplitudes : 
  
 | HOLE  | ALPHA | BETA  | PART  |    AMPLITUDE 
--------------------------------------------------
 |   5   | 111   | 110   |       |     6.4602659105314E-01
 |   6   | 111   | 101   |       |     6.4602654946716E-01
 |       | 110   | 100   |  13   |    -1.5454031031482E-01
 |       | 101   | 100   |  12   |     1.5454046870955E-01
 |       | 011   | 100   |  10   |    -1.5352622059224E-01
 |       | 011   | 100   |  17   |     1.9322439647738E-01
 |       | 111   | 000   |  10   |    -1.4350781723379E-01
 |       | 111   | 000   |  17   |     1.5988727892623E-01
--------------------------------------------------
*** Contributions RASCI wfn    Active:   0.00
                                 Hole:  83.47
                                 Part:  16.53

      Mulliken population analysis 
 ---------------------------------------------------
   Atom    Charge (a.u.)   Spin (a.u.)  
 ---------------------------------------------------
   1  O   -0.000000        1.000000 
   2  O   -0.000000        1.000000 
 ---------------------------------------------------
   Sum:   -0.000000        2.000000 
 ---------------------------------------------------
 
*** Unpaired Electrons
 Yamaguchi Nd:         3.54
  
**************************************************
 RAS-CI total energy for state   8:   -149.247724301659
  Excitation energy (eV) = 11.303205805315
  Warning: not all configurations have same symmetry
  State symmetry: *B2u   (D2h      )
  <S^2>      :  2.0000
  Dipole Moment:   -0.0000 X    -0.0000 Y    -0.0000 Z
  Trans. Moment:    0.0679 X    -0.0089 Y     0.0000 Z
  Strength   :  0.001298
  Natural transition orbitals ( 1 -> 8 ):
   e-/hole pair  1 alpha:  ampl =  0.959774 ( 92.1%)   [3 : 4]
   e-/hole pair  2 alpha:  ampl =  0.015121 (  0.0%)   [2 : 5]
   e-/hole pair  1 beta :  ampl =  0.245123 (  6.0%)   [3 : 4]
   e-/hole pair  2 beta :  ampl =  0.010660 (  0.0%)   [2 : 5]
   Sum of square amplitudes: 0.98

 NATURAL OCCUPATION NUMBERS (higher than 1.0E-05)
            1           2           3           4           5           6
    1   2.0000000   2.0000000   2.0000000   2.0000000   1.9892355   1.9763251
            7           8           9          10          11          12
    1   1.9398383   1.0108068   0.9283889   0.1547205   0.0003449   0.0001454
           13          14          15
    1   0.0001220   0.0000513   0.0000177

 Head-Gordon Nu:    2.17
 Head-Gordon Nu_nl: 2.09

  Amplitudes : 
  
 | HOLE  | ALPHA | BETA  | PART  |    AMPLITUDE 
--------------------------------------------------
 |   4   | 111   | 110   |       |    -2.4319244663369E-01
 |   6   | 111   | 011   |       |    -1.0286966081479E-01
 |       | 110   | 100   |  10   |     1.0751138940209E-01
 |       | 101   | 100   |  10   |     8.1904662359278E-01
 |       | 101   | 100   |  17   |    -4.7005668097797E-01
 |       | 101   | 100   |  18   |    -1.1884944526313E-01
--------------------------------------------------
*** Contributions RASCI wfn    Active:   0.00
                                 Hole:   7.09
                                 Part:  92.91

      Mulliken population analysis 
 ---------------------------------------------------
   Atom    Charge (a.u.)   Spin (a.u.)  
 ---------------------------------------------------
   1  O   -0.000000        1.000000 
   2  O   -0.000000        1.000000 
 ---------------------------------------------------
   Sum:   -0.000000        2.000000 
 ---------------------------------------------------
 
*** Unpaired Electrons
 Yamaguchi Nd:         2.47
  
**************************************************
 RAS-CI total energy for state   9:   -149.247724285045
  Excitation energy (eV) = 11.303206257422
  Warning: not all configurations have same symmetry
  State symmetry: *B2u   (D2h      )
  <S^2>      :  2.0000
  Dipole Moment:   -0.0000 X    -0.0000 Y    -0.0000 Z
  Trans. Moment:   -0.0089 X    -0.0679 Y     0.0000 Z
  Strength   :  0.001298
  Natural transition orbitals ( 1 -> 9 ):
   e-/hole pair  1 alpha:  ampl =  0.959774 ( 92.1%)   [3 : 4]
   e-/hole pair  2 alpha:  ampl =  0.015121 (  0.0%)   [2 : 5]
   e-/hole pair  1 beta :  ampl =  0.245123 (  6.0%)   [3 : 4]
   e-/hole pair  2 beta :  ampl =  0.010660 (  0.0%)   [2 : 5]
   Sum of square amplitudes: 0.98

 NATURAL OCCUPATION NUMBERS (higher than 1.0E-05)
            1           2           3           4           5           6
    1   2.0000000   2.0000000   2.0000000   2.0000000   1.9892355   1.9763251
            7           8           9          10          11          12
    1   1.9398382   1.0108068   0.9283888   0.1547206   0.0003449   0.0001454
           13          14          15
    1   0.0001220   0.0000513   0.0000177

 Head-Gordon Nu:    2.17
 Head-Gordon Nu_nl: 2.09

  Amplitudes : 
  
 | HOLE  | ALPHA | BETA  | PART  |    AMPLITUDE 
--------------------------------------------------
 |   4   | 111   | 101   |       |     2.4319253230765E-01
 |   5   | 111   | 011   |       |    -1.0286972090291E-01
 |       | 110   | 100   |  10   |     8.1904656580605E-01
 |       | 110   | 100   |  17   |    -4.7005672138043E-01
 |       | 110   | 100   |  18   |    -1.1884945849444E-01
 |       | 101   | 100   |  10   |    -1.0751129721737E-01
--------------------------------------------------
*** Contributions RASCI wfn    Active:   0.00
                                 Hole:   7.09
                                 Part:  92.91

      Mulliken population analysis 
 ---------------------------------------------------
   Atom    Charge (a.u.)   Spin (a.u.)  
 ---------------------------------------------------
   1  O   -0.000000        1.000000 
   2  O   -0.000000        1.000000 
 ---------------------------------------------------
   Sum:   -0.000000        2.000000 
 ---------------------------------------------------
 
*** Unpaired Electrons
 Yamaguchi Nd:         2.47
  
**************************************************
 RAS-CI total energy for state  10:   -149.177281696135
  Excitation energy (eV) = 13.220046627435
  Warning: not all configurations have same symmetry
  State symmetry: *B2u   (D2h      )
  <S^2>      :  2.0000
  Dipole Moment:   -0.0000 X    -0.0000 Y     0.0000 Z
  Trans. Moment:   -0.2636 X     0.1742 Y     0.0000 Z
  Strength   :  0.032322
  Natural transition orbitals ( 1 -> 10 ):
   e-/hole pair  1 alpha:  ampl =  0.217946 (  4.8%)   [3 : 4]
   e-/hole pair  2 alpha:  ampl =  0.025961 (  0.1%)   [2 : 5]
   e-/hole pair  1 beta :  ampl =  0.522220 ( 27.3%)   [3 : 4]
   e-/hole pair  2 beta :  ampl =  0.040723 (  0.2%)   [2 : 5]
   Sum of square amplitudes: 0.32

 NATURAL OCCUPATION NUMBERS (higher than 1.0E-05)
            1           2           3           4           5           6
    1   2.0000000   2.0000000   2.0000000   2.0000000   1.8998354   1.7269401
            7           8           9          10          11          12
    1   1.6627124   1.3328881   1.3177958   0.0502880   0.0041750   0.0035375
           13          14          15          16          17
    1   0.0008539   0.0004968   0.0004334   0.0000293   0.0000106

 Head-Gordon Nu:    2.12
 Head-Gordon Nu_nl: 2.18

  Amplitudes : 
  
 | HOLE  | ALPHA | BETA  | PART  |    AMPLITUDE 
--------------------------------------------------
 |   4   | 111   | 110   |       |     4.3596361723447E-01
 |   4   | 111   | 101   |       |    -2.8808883991428E-01
 |   5   | 111   | 011   |       |     4.5029554150199E-01
 |   6   | 111   | 011   |       |     6.8142926545642E-01
 |       | 110   | 100   |  10   |     1.0291617496318E-01
 |       | 101   | 100   |  10   |     1.5574255351241E-01
--------------------------------------------------
*** Contributions RASCI wfn    Active:   0.00
                                 Hole:  94.02
                                 Part:   5.98

      Mulliken population analysis 
 ---------------------------------------------------
   Atom    Charge (a.u.)   Spin (a.u.)  
 ---------------------------------------------------
   1  O   -0.000000        1.000000 
   2  O   -0.000000        1.000000 
 ---------------------------------------------------
   Sum:   -0.000000        2.000000 
 ---------------------------------------------------
 
*** Unpaired Electrons
 Yamaguchi Nd:         3.13
  
**************************************************
 RAS-CI total energy for state  11:   -149.177281670262
  Excitation energy (eV) = 13.220047331489
  Warning: not all configurations have same symmetry
  State symmetry: *B2u   (D2h      )
  <S^2>      :  2.0000
  Dipole Moment:   -0.0000 X    -0.0000 Y     0.0000 Z
  Trans. Moment:    0.1742 X     0.2636 Y     0.0000 Z
  Strength   :  0.032321
  Natural transition orbitals ( 1 -> 11 ):
   e-/hole pair  1 alpha:  ampl =  0.217946 (  4.8%)   [3 : 4]
   e-/hole pair  2 alpha:  ampl =  0.025961 (  0.1%)   [2 : 5]
   e-/hole pair  1 beta :  ampl =  0.522219 ( 27.3%)   [3 : 4]
   e-/hole pair  2 beta :  ampl =  0.040723 (  0.2%)   [2 : 5]
   Sum of square amplitudes: 0.32

 NATURAL OCCUPATION NUMBERS (higher than 1.0E-05)
            1           2           3           4           5           6
    1   2.0000000   2.0000000   2.0000000   2.0000000   1.8998354   1.7269404
            7           8           9          10          11          12
    1   1.6627127   1.3328878   1.3177955   0.0502881   0.0041750   0.0035375
           13          14          15          16          17
    1   0.0008539   0.0004968   0.0004334   0.0000293   0.0000106

 Head-Gordon Nu:    2.12
 Head-Gordon Nu_nl: 2.18

  Amplitudes : 
  
 | HOLE  | ALPHA | BETA  | PART  |    AMPLITUDE 
--------------------------------------------------
 |   4   | 111   | 110   |       |    -2.8808859121310E-01
 |   4   | 111   | 101   |       |    -4.3596342067514E-01
 |   5   | 111   | 011   |       |     6.8142937137875E-01
 |   6   | 111   | 011   |       |    -4.5029570984769E-01
 |       | 110   | 100   |  10   |     1.5574258218635E-01
 |       | 101   | 100   |  10   |    -1.0291609185506E-01
--------------------------------------------------
*** Contributions RASCI wfn    Active:   0.00
                                 Hole:  94.02
                                 Part:   5.98

      Mulliken population analysis 
 ---------------------------------------------------
   Atom    Charge (a.u.)   Spin (a.u.)  
 ---------------------------------------------------
   1  O   -0.000000        1.000000 
   2  O   -0.000000        1.000000 
 ---------------------------------------------------
   Sum:   -0.000000        2.000000 
 ---------------------------------------------------
 
*** Unpaired Electrons
 Yamaguchi Nd:         3.13
  
**************************************************
 RAS-CI total energy for state  12:   -149.111153880354
  Excitation energy (eV) = 15.019476046944
  State symmetry: Au    (D2h      )
  <S^2>      :  6.0000
  Dipole Moment:   -0.0000 X     0.0000 Y    -0.0000 Z
  Trans. Moment:    0.0000 X     0.0000 Y     0.0000 Z
  Strength   :  0.000000
  Natural transition orbitals ( 1 -> 12 ):
   e-/hole pair  1 alpha:  ampl =  0.499717 ( 25.0%)   [3 : 4]
   e-/hole pair  2 alpha:  ampl =  0.000000 (  0.0%)   [2 : 5]
   e-/hole pair  1 beta :  ampl =  0.499717 ( 25.0%)   [3 : 4]
   e-/hole pair  2 beta :  ampl =  0.000000 (  0.0%)   [2 : 5]
   Sum of square amplitudes: 0.50

 NATURAL OCCUPATION NUMBERS (higher than 1.0E-05)
            1           2           3           4           5           6
    1   2.0000000   2.0000000   2.0000000   2.0000000   2.0000000   2.0000000
            7           8           9          10
    1   1.0000000   1.0000000   1.0000000   1.0000000

 Head-Gordon Nu:    4.00
 Head-Gordon Nu_nl: 4.00

  Amplitudes : 
  
 | HOLE  | ALPHA | BETA  | PART  |    AMPLITUDE 
--------------------------------------------------
 |       | 011   | 100   |  10   |    -4.1961598528714E-01
 |       | 011   | 100   |  17   |     2.6517275696581E-01
 |       | 101   | 010   |  10   |     4.1961598528714E-01
 |       | 101   | 010   |  17   |    -2.6517275696582E-01
 |       | 110   | 001   |  10   |    -4.1961598528714E-01
 |       | 110   | 001   |  17   |     2.6517275696581E-01
 |       | 111   | 000   |  10   |     4.1961598528713E-01
 |       | 111   | 000   |  17   |    -2.6517275696581E-01
--------------------------------------------------
*** Contributions RASCI wfn    Active:   0.00
                                 Hole:   0.00
                                 Part: 100.00

      Mulliken population analysis 
 ---------------------------------------------------
   Atom    Charge (a.u.)   Spin (a.u.)  
 ---------------------------------------------------
   1  O   -0.000000        1.000000 
   2  O   -0.000000        1.000000 
 ---------------------------------------------------
   Sum:   -0.000000        2.000000 
 ---------------------------------------------------
 
*** Unpaired Electrons
 Yamaguchi Nd:         4.00
  
**************************************************
 RAS-CI total energy for state  13:   -149.054910789979
  Excitation energy (eV) = 16.549928403053
  Warning: not all configurations have same symmetry
  State symmetry: *B3u   (D2h      )
  <S^2>      :  2.0000
  Dipole Moment:   -0.0000 X    -0.0000 Y     0.0000 Z
  Trans. Moment:    0.2935 X    -0.3045 Y     0.0000 Z
  Strength   :  0.072536
  Natural transition orbitals ( 1 -> 13 ):
   e-/hole pair  1 alpha:  ampl =  0.168628 (  2.8%)   [3 : 4]
   e-/hole pair  2 alpha:  ampl =  0.042408 (  0.2%)   [2 : 5]
   e-/hole pair  1 beta :  ampl =  0.765726 ( 58.6%)   [3 : 4]
   e-/hole pair  2 beta :  ampl =  0.115984 (  1.3%)   [2 : 5]
   Sum of square amplitudes: 0.63

 NATURAL OCCUPATION NUMBERS (higher than 1.0E-05)
            1           2           3           4           5           6
    1   2.0000000   2.0000000   2.0000000   2.0000000   1.9071272   1.7546308
            7           8           9          10          11          12
    1   1.5369903   1.4129188   1.2207834   0.1033276   0.0324205   0.0235718
           13          14          15          16
    1   0.0047940   0.0023080   0.0011069   0.0000113

 Head-Gordon Nu:    2.34
 Head-Gordon Nu_nl: 2.36

  Amplitudes : 
  
 | HOLE  | ALPHA | BETA  | PART  |    AMPLITUDE 
--------------------------------------------------
 |   4   | 111   | 110   |       |    -5.3177754631476E-01
 |   4   | 111   | 101   |       |     5.5162820140925E-01
 |   5   | 111   | 011   |       |     3.5662173606087E-01
 |   6   | 111   | 011   |       |     3.4378790383579E-01
 |       | 110   | 100   |  10   |    -1.0417997713239E-01
 |       | 101   | 100   |  10   |    -1.0043098424205E-01
 |       | 011   | 010   |  10   |    -1.1596865721168E-01
 |       | 011   | 010   |  17   |     1.5690338388772E-01
 |       | 011   | 001   |  10   |     1.2029763238995E-01
 |       | 011   | 001   |  17   |    -1.6276040332302E-01
--------------------------------------------------
*** Contributions RASCI wfn    Active:   0.00
                                 Hole:  83.25
                                 Part:  16.75

      Mulliken population analysis 
 ---------------------------------------------------
   Atom    Charge (a.u.)   Spin (a.u.)  
 ---------------------------------------------------
   1  O   -0.000000        1.000000 
   2  O   -0.000000        1.000000 
 ---------------------------------------------------
   Sum:   -0.000000        2.000000 
 ---------------------------------------------------
 
*** Unpaired Electrons
 Yamaguchi Nd:         3.42
  
**************************************************
 RAS-CI total energy for state  14:   -149.054910749394
  Excitation energy (eV) = 16.549929507411
  Warning: not all configurations have same symmetry
  State symmetry: *B3u   (D2h      )
  <S^2>      :  2.0000
  Dipole Moment:   -0.0000 X    -0.0000 Y     0.0000 Z
  Trans. Moment:   -0.3045 X    -0.2935 Y    -0.0000 Z
  Strength   :  0.072536
  Natural transition orbitals ( 1 -> 14 ):
   e-/hole pair  1 alpha:  ampl =  0.168628 (  2.8%)   [3 : 4]
   e-/hole pair  2 alpha:  ampl =  0.042408 (  0.2%)   [2 : 5]
   e-/hole pair  1 beta :  ampl =  0.765726 ( 58.6%)   [3 : 4]
   e-/hole pair  2 beta :  ampl =  0.115984 (  1.3%)   [2 : 5]
   Sum of square amplitudes: 0.63

 NATURAL OCCUPATION NUMBERS (higher than 1.0E-05)
            1           2           3           4           5           6
    1   2.0000000   2.0000000   2.0000000   2.0000000   1.9071270   1.7546311
            7           8           9          10          11          12
    1   1.5369907   1.4129185   1.2207831   0.1033276   0.0324206   0.0235717
           13          14          15          16
    1   0.0047940   0.0023080   0.0011069   0.0000113

 Head-Gordon Nu:    2.34
 Head-Gordon Nu_nl: 2.36

  Amplitudes : 
  
 | HOLE  | ALPHA | BETA  | PART  |    AMPLITUDE 
--------------------------------------------------
 |   4   | 111   | 110   |       |     5.5162834230548E-01
 |   4   | 111   | 101   |       |     5.3177768426566E-01
 |   5   | 111   | 011   |       |     3.4378770066348E-01
 |   6   | 111   | 011   |       |    -3.5662152170678E-01
 |       | 110   | 100   |  10   |    -1.0043099188477E-01
 |       | 101   | 100   |  10   |     1.0417994986010E-01
 |       | 011   | 010   |  10   |     1.2029759704706E-01
 |       | 011   | 010   |  17   |    -1.6276034751773E-01
 |       | 011   | 001   |  10   |     1.1596861872106E-01
 |       | 011   | 001   |  17   |    -1.5690331591241E-01
--------------------------------------------------
*** Contributions RASCI wfn    Active:   0.00
                                 Hole:  83.25
                                 Part:  16.75

      Mulliken population analysis 
 ---------------------------------------------------
   Atom    Charge (a.u.)   Spin (a.u.)  
 ---------------------------------------------------
   1  O   -0.000000        1.000000 
   2  O   -0.000000        1.000000 
 ---------------------------------------------------
   Sum:   -0.000000        2.000000 
 ---------------------------------------------------
 
*** Unpaired Electrons
 Yamaguchi Nd:         3.42
  
**************************************************
 RAS-CI total energy for state  15:   -149.028926235997
  Excitation energy (eV) = 17.257004091784
  Warning: not all configurations have same symmetry
  State symmetry: *B3g   (D2h      )
  <S^2>      :  2.0000
  Dipole Moment:    0.0000 X     0.0000 Y    -0.0000 Z
  Trans. Moment:   -0.0000 X     0.0000 Y    -0.0000 Z
  Strength   :  0.000000
  Natural transition orbitals ( 1 -> 15 ):
   e-/hole pair  1 alpha:  ampl =  0.996216 ( 99.2%)   [3 : 4]
   e-/hole pair  2 alpha:  ampl =  0.018263 (  0.0%)   [2 : 5]
   e-/hole pair  1 beta :  ampl =  0.023726 (  0.1%)   [3 : 4]
   e-/hole pair  2 beta :  ampl =  0.010458 (  0.0%)   [2 : 5]
   Sum of square amplitudes: 0.99

 NATURAL OCCUPATION NUMBERS (higher than 1.0E-05)
            1           2           3           4           5           6
    1   2.0000000   2.0000000   2.0000000   2.0000000   2.0000000   1.9996502
            7           8           9          10          11          12
    1   1.9906340   1.0009139   0.9970342   0.0093224   0.0013985   0.0009709
           13          14
    1   0.0000538   0.0000123

 Head-Gordon Nu:    2.02
 Head-Gordon Nu_nl: 2.00

  Amplitudes : 
  
 | HOLE  | ALPHA | BETA  | PART  |    AMPLITUDE 
--------------------------------------------------
 |       | 110   | 100   |  11   |     5.1935384461582E-01
 |       | 110   | 100   |  14   |    -1.0923536125900E-01
 |       | 101   | 100   |  11   |     8.2479836389593E-01
 |       | 101   | 100   |  14   |    -1.7347931849095E-01
--------------------------------------------------
*** Contributions RASCI wfn    Active:   0.01
                                 Hole:   0.04
                                 Part:  99.95

      Mulliken population analysis 
 ---------------------------------------------------
   Atom    Charge (a.u.)   Spin (a.u.)  
 ---------------------------------------------------
   1  O   -0.000000        1.000000 
   2  O   -0.000000        1.000000 
 ---------------------------------------------------
   Sum:   -0.000000        2.000000 
 ---------------------------------------------------
 
*** Unpaired Electrons
 Yamaguchi Nd:         2.04
  
**************************************************
 RAS-CI total energy for state  16:   -149.028926147004
  Excitation energy (eV) = 17.257006513403
  Warning: not all configurations have same symmetry
  State symmetry: *B3g   (D2h      )
  <S^2>      :  2.0000
  Dipole Moment:   -0.0000 X    -0.0000 Y    -0.0000 Z
  Trans. Moment:    0.0000 X     0.0000 Y     0.0000 Z
  Strength   :  0.000000
  Natural transition orbitals ( 1 -> 16 ):
   e-/hole pair  1 alpha:  ampl =  0.996216 ( 99.2%)   [3 : 4]
   e-/hole pair  2 alpha:  ampl =  0.018263 (  0.0%)   [2 : 5]
   e-/hole pair  1 beta :  ampl =  0.023726 (  0.1%)   [3 : 4]
   e-/hole pair  2 beta :  ampl =  0.010458 (  0.0%)   [2 : 5]
   Sum of square amplitudes: 0.99

 NATURAL OCCUPATION NUMBERS (higher than 1.0E-05)
            1           2           3           4           5           6
    1   2.0000000   2.0000000   2.0000000   2.0000000   2.0000000   1.9996502
            7           8           9          10          11          12
    1   1.9906340   1.0009139   0.9970342   0.0093224   0.0013985   0.0009709
           13          14
    1   0.0000538   0.0000123

 Head-Gordon Nu:    2.02
 Head-Gordon Nu_nl: 2.00

  Amplitudes : 
  
 | HOLE  | ALPHA | BETA  | PART  |    AMPLITUDE 
--------------------------------------------------
 |       | 110   | 100   |  11   |     8.2479835468578E-01
 |       | 110   | 100   |  14   |    -1.7347935442474E-01
 |       | 101   | 100   |  11   |    -5.1935383686615E-01
 |       | 101   | 100   |  14   |     1.0923538810843E-01
--------------------------------------------------
*** Contributions RASCI wfn    Active:   0.01
                                 Hole:   0.04
                                 Part:  99.95

      Mulliken population analysis 
 ---------------------------------------------------
   Atom    Charge (a.u.)   Spin (a.u.)  
 ---------------------------------------------------
   1  O   -0.000000        1.000000 
   2  O   -0.000000        1.000000 
 ---------------------------------------------------
   Sum:   -0.000000        2.000000 
 ---------------------------------------------------
 
*** Unpaired Electrons
 Yamaguchi Nd:         2.04
  
**************************************************
 RAS-CI total energy for state  17:   -148.997006742623
  Excitation energy (eV) = 18.125577698133
  State symmetry: B1u   (D2h      )
  <S^2>      :  2.0000
  Dipole Moment:    0.0000 X     0.0000 Y    -0.0000 Z
  Trans. Moment:   -0.0000 X    -0.0000 Y    -0.0000 Z
  Strength   :  0.000000
  Natural transition orbitals ( 1 -> 17 ):
   e-/hole pair  1 alpha:  ampl =  0.074699 (  0.6%)   [3 : 4]
   e-/hole pair  2 alpha:  ampl =  0.074699 (  0.6%)   [2 : 5]
   e-/hole pair  1 beta :  ampl =  0.019148 (  0.0%)   [3 : 4]
   e-/hole pair  2 beta :  ampl =  0.007599 (  0.0%)   [2 : 5]
   Sum of square amplitudes: 0.01

 NATURAL OCCUPATION NUMBERS (higher than 1.0E-05)
            1           2           3           4           5           6
    1   2.0000000   2.0000000   2.0000000   2.0000000   1.9999422   1.9999422
            7           8           9          10          11          12
    1   1.0109911   0.9946206   0.9946196   0.9878549   0.0056096   0.0056096
           13          14          15
    1   0.0005487   0.0001269   0.0001268

 Head-Gordon Nu:    3.98
 Head-Gordon Nu_nl: 4.00

  Amplitudes : 
  
 | HOLE  | ALPHA | BETA  | PART  |    AMPLITUDE 
--------------------------------------------------
 |       | 110   | 010   |  10   |    -6.0180750704303E-01
 |       | 110   | 010   |  17   |     3.5417760821981E-01
 |       | 101   | 001   |  10   |     6.0180783465788E-01
 |       | 101   | 001   |  17   |    -3.5417773053385E-01
--------------------------------------------------
*** Contributions RASCI wfn    Active:   0.00
                                 Hole:   0.01
                                 Part:  99.99

      Mulliken population analysis 
 ---------------------------------------------------
   Atom    Charge (a.u.)   Spin (a.u.)  
 ---------------------------------------------------
   1  O   -0.000000        1.000000 
   2  O   -0.000000        1.000000 
 ---------------------------------------------------
   Sum:   -0.000000        2.000000 
 ---------------------------------------------------
 
*** Unpaired Electrons
 Yamaguchi Nd:         4.02
  
**************************************************
 RAS-CI total energy for state  18:   -148.997006742610
  Excitation energy (eV) = 18.125577698493
  State symmetry: Au    (D2h      )
  <S^2>      :  2.0000
  Dipole Moment:   -0.0000 X     0.0000 Y    -0.0000 Z
  Trans. Moment:    0.0000 X    -0.0000 Y    -0.0000 Z
  Strength   :  0.000000
  Natural transition orbitals ( 1 -> 18 ):
   e-/hole pair  1 alpha:  ampl =  0.074699 (  0.6%)   [3 : 4]
   e-/hole pair  2 alpha:  ampl =  0.074699 (  0.6%)   [2 : 5]
   e-/hole pair  1 beta :  ampl =  0.019148 (  0.0%)   [3 : 4]
   e-/hole pair  2 beta :  ampl =  0.007599 (  0.0%)   [2 : 5]
   Sum of square amplitudes: 0.01

 NATURAL OCCUPATION NUMBERS (higher than 1.0E-05)
            1           2           3           4           5           6
    1   2.0000000   2.0000000   2.0000000   2.0000000   1.9999422   1.9999422
            7           8           9          10          11          12
    1   1.0109911   0.9946216   0.9946186   0.9878549   0.0056096   0.0056096
           13          14          15
    1   0.0005487   0.0001269   0.0001268

 Head-Gordon Nu:    3.98
 Head-Gordon Nu_nl: 4.00

  Amplitudes : 
  
 | HOLE  | ALPHA | BETA  | PART  |    AMPLITUDE 
--------------------------------------------------
 |       | 101   | 010   |  10   |     6.0180765729112E-01
 |       | 101   | 010   |  17   |    -3.5417766416363E-01
 |       | 110   | 001   |  10   |     6.0180768440319E-01
 |       | 110   | 001   |  17   |    -3.5417767458180E-01
--------------------------------------------------
*** Contributions RASCI wfn    Active:   0.00
                                 Hole:   0.01
                                 Part:  99.99

      Mulliken population analysis 
 ---------------------------------------------------
   Atom    Charge (a.u.)   Spin (a.u.)  
 ---------------------------------------------------
   1  O   -0.000000        1.000000 
   2  O   -0.000000        1.000000 
 ---------------------------------------------------
   Sum:   -0.000000        2.000000 
 ---------------------------------------------------
 
*** Unpaired Electrons
 Yamaguchi Nd:         4.02
  
**************************************************
 RAS-CI total energy for state  19:   -148.981748658897
  Excitation energy (eV) = 18.540771280695
  State symmetry: Au    (D2h      )
  <S^2>      :  2.0000
  Dipole Moment:    0.0000 X     0.0000 Y    -0.0000 Z
  Trans. Moment:    0.0000 X     0.0000 Y    -0.7541 Z
  Strength   :  0.258293
  Natural transition orbitals ( 1 -> 19 ):
   e-/hole pair  1 alpha:  ampl =  0.583243 ( 34.0%)   [3 : 4]
   e-/hole pair  2 alpha:  ampl =  0.583217 ( 34.0%)   [2 : 5]
   e-/hole pair  1 beta :  ampl =  0.191906 (  3.7%)   [3 : 4]
   e-/hole pair  2 beta :  ampl =  0.021349 (  0.0%)   [2 : 5]
   Sum of square amplitudes: 0.95

 NATURAL OCCUPATION NUMBERS (higher than 1.0E-05)
            1           2           3           4           5           6
    1   2.0000000   2.0000000   2.0000000   2.0000000   1.9995437   1.9995436
            7           8           9          10          11          12
    1   1.6801658   0.6608453   0.6608143   0.3415353   0.3415041   0.3149522
           13          14          15
    1   0.0010218   0.0000322   0.0000322

 Head-Gordon Nu:    2.64
 Head-Gordon Nu_nl: 2.78

  Amplitudes : 
  
 | HOLE  | ALPHA | BETA  | PART  |    AMPLITUDE 
--------------------------------------------------
 |       | 110   | 100   |  13   |    -5.8293948970465E-01
 |       | 101   | 100   |  12   |     5.8296358860259E-01
 |       | 011   | 100   |  10   |     4.2172596178636E-01
 |       | 011   | 100   |  17   |    -2.2759394392161E-01
 |       | 101   | 010   |  10   |     1.3301023062843E-01
 |       | 110   | 001   |  10   |    -1.3301196163363E-01
 |       | 111   | 000   |  10   |     1.5570376952431E-01
 |       | 111   | 000   |  17   |    -1.0962700775584E-01
--------------------------------------------------
*** Contributions RASCI wfn    Active:   0.00
                                 Hole:   0.09
                                 Part:  99.91

      Mulliken population analysis 
 ---------------------------------------------------
   Atom    Charge (a.u.)   Spin (a.u.)  
 ---------------------------------------------------
   1  O   -0.000000        1.000000 
   2  O   -0.000000        1.000000 
 ---------------------------------------------------
   Sum:   -0.000000        2.000000 
 ---------------------------------------------------
 
*** Unpaired Electrons
 Yamaguchi Nd:         3.97
  
**************************************************
 RAS-CI total energy for state  20:   -148.979570952757
  Excitation energy (eV) = 18.600029679751
  State symmetry: B1u   (D2h      )
  <S^2>      :  2.0000
  Dipole Moment:    0.0000 X    -0.0000 Y    -0.0000 Z
  Trans. Moment:   -0.0000 X     0.0000 Y     0.0000 Z
  Strength   :  0.000000
  Natural transition orbitals ( 1 -> 20 ):
   e-/hole pair  1 alpha:  ampl =  0.700663 ( 49.1%)   [3 : 4]
   e-/hole pair  2 alpha:  ampl =  0.700657 ( 49.1%)   [2 : 5]
   e-/hole pair  1 beta :  ampl =  0.018297 (  0.0%)   [3 : 4]
   e-/hole pair  2 beta :  ampl =  0.018297 (  0.0%)   [2 : 5]
   Sum of square amplitudes: 0.98

 NATURAL OCCUPATION NUMBERS (higher than 1.0E-05)
            1           2           3           4           5           6
    1   2.0000000   2.0000000   2.0000000   2.0000000   1.9996648   1.9996648
            7           8           9          10          11          12
    1   1.9803311   0.5105090   0.5105006   0.4932679   0.4932594   0.0127678
           13
    1   0.0000201

 Head-Gordon Nu:    2.04
 Head-Gordon Nu_nl: 2.26

  Amplitudes : 
  
 | HOLE  | ALPHA | BETA  | PART  |    AMPLITUDE 
--------------------------------------------------
 |       | 110   | 100   |  12   |     6.9522508893462E-01
 |       | 101   | 100   |  13   |    -6.9522495549798E-01
--------------------------------------------------
*** Contributions RASCI wfn    Active:   0.00
                                 Hole:   0.07
                                 Part:  99.93

      Mulliken population analysis 
 ---------------------------------------------------
   Atom    Charge (a.u.)   Spin (a.u.)  
 ---------------------------------------------------
   1  O   -0.000000        1.000000 
   2  O   -0.000000        1.000000 
 ---------------------------------------------------
   Sum:   -0.000000        2.000000 
 ---------------------------------------------------
 
*** Unpaired Electrons
 Yamaguchi Nd:         3.07
  
**************************************************
 RAS-CI total energy for state  21:   -148.979570952755
  Excitation energy (eV) = 18.600029679804
  State symmetry: Au    (D2h      )
  <S^2>      :  2.0000
  Dipole Moment:   -0.0000 X    -0.0000 Y    -0.0000 Z
  Trans. Moment:    0.0000 X    -0.0000 Y     0.0000 Z
  Strength   :  0.000000
  Natural transition orbitals ( 1 -> 21 ):
   e-/hole pair  1 alpha:  ampl =  0.700669 ( 49.1%)   [3 : 4]
   e-/hole pair  2 alpha:  ampl =  0.700651 ( 49.1%)   [2 : 5]
   e-/hole pair  1 beta :  ampl =  0.018297 (  0.0%)   [3 : 4]
   e-/hole pair  2 beta :  ampl =  0.018297 (  0.0%)   [2 : 5]
   Sum of square amplitudes: 0.98

 NATURAL OCCUPATION NUMBERS (higher than 1.0E-05)
            1           2           3           4           5           6
    1   2.0000000   2.0000000   2.0000000   2.0000000   1.9996648   1.9996648
            7           8           9          10          11          12
    1   1.9803311   0.5105174   0.5104923   0.4932763   0.4932510   0.0127678
           13
    1   0.0000201

 Head-Gordon Nu:    2.04
 Head-Gordon Nu_nl: 2.26

  Amplitudes : 
  
 | HOLE  | ALPHA | BETA  | PART  |    AMPLITUDE 
--------------------------------------------------
 |       | 110   | 100   |  13   |     6.9523311371320E-01
 |       | 101   | 100   |  12   |     6.9521693031905E-01
--------------------------------------------------
*** Contributions RASCI wfn    Active:   0.00
                                 Hole:   0.07
                                 Part:  99.93

      Mulliken population analysis 
 ---------------------------------------------------
   Atom    Charge (a.u.)   Spin (a.u.)  
 ---------------------------------------------------
   1  O   -0.000000        1.000000 
   2  O   -0.000000        1.000000 
 ---------------------------------------------------
   Sum:   -0.000000        2.000000 
 ---------------------------------------------------
 
*** Unpaired Electrons
 Yamaguchi Nd:         3.07
  
**************************************************
 RAS-CI total energy for state  22:   -148.979014511713
  Excitation energy (eV) = 18.615171210936
  State symmetry: Au    (D2h      )
  <S^2>      :  2.0000
  Dipole Moment:   -0.0000 X    -0.0000 Y    -0.0000 Z
  Trans. Moment:   -0.0000 X    -0.0000 Y    -0.3580 Z
  Strength   :  0.058436
  Natural transition orbitals ( 1 -> 22 ):
   e-/hole pair  1 alpha:  ampl =  0.318633 ( 10.2%)   [3 : 4]
   e-/hole pair  2 alpha:  ampl =  0.147430 (  2.2%)   [2 : 5]
   e-/hole pair  1 beta :  ampl =  0.634659 ( 40.3%)   [3 : 4]
   e-/hole pair  2 beta :  ampl =  0.008250 (  0.0%)   [2 : 5]
   Sum of square amplitudes: 0.55

 NATURAL OCCUPATION NUMBERS (higher than 1.0E-05)
            1           2           3           4           5           6
    1   2.0000000   2.0000000   2.0000000   2.0000000   1.9999319   1.9999318
            7           8           9          10          11          12
    1   1.0425095   0.9788850   0.9788781   0.9500170   0.0220088   0.0220017
           13          14          15          16          17
    1   0.0042250   0.0004780   0.0004780   0.0003276   0.0003276

 Head-Gordon Nu:    3.92
 Head-Gordon Nu_nl: 3.99

  Amplitudes : 
  
 | HOLE  | ALPHA | BETA  | PART  |    AMPLITUDE 
--------------------------------------------------
 |       | 110   | 100   |  13   |    -1.4600696340932E-01
 |       | 101   | 100   |  12   |     1.4598403435654E-01
 |       | 011   | 100   |  10   |    -2.5310874721871E-01
 |       | 011   | 100   |  17   |     1.8995589831919E-01
 |       | 101   | 010   |  10   |    -4.1518907051561E-01
 |       | 101   | 010   |  17   |     2.2460601194556E-01
 |       | 110   | 001   |  10   |     4.1519063806840E-01
 |       | 110   | 001   |  17   |    -2.2460802525618E-01
 |       | 111   | 000   |  10   |     5.7727096136531E-01
 |       | 111   | 000   |  17   |    -2.5925813888256E-01
--------------------------------------------------
*** Contributions RASCI wfn    Active:   0.00
                                 Hole:   0.01
                                 Part:  99.99

      Mulliken population analysis 
 ---------------------------------------------------
   Atom    Charge (a.u.)   Spin (a.u.)  
 ---------------------------------------------------
   1  O   -0.000000        1.000000 
   2  O   -0.000000        1.000000 
 ---------------------------------------------------
   Sum:   -0.000000        2.000000 
 ---------------------------------------------------
 
*** Unpaired Electrons
 Yamaguchi Nd:         4.09
  
**************************************************
 RAS-CI total energy for state  23:   -148.970442717852
  Excitation energy (eV) = 18.848421589292
  State symmetry: B1u   (D2h      )
  <S^2>      :  2.0000
  Dipole Moment:   -0.0000 X    -0.0000 Y    -0.0000 Z
  Trans. Moment:    0.0000 X    -0.0000 Y     0.0000 Z
  Strength   :  0.000000
  Natural transition orbitals ( 1 -> 23 ):
   e-/hole pair  1 alpha:  ampl =  0.663555 ( 44.0%)   [3 : 4]
   e-/hole pair  2 alpha:  ampl =  0.663547 ( 44.0%)   [2 : 5]
   e-/hole pair  1 beta :  ampl =  0.000400 (  0.0%)   [3 : 4]
   e-/hole pair  2 beta :  ampl =  0.000400 (  0.0%)   [2 : 5]
   Sum of square amplitudes: 0.88

 NATURAL OCCUPATION NUMBERS (higher than 1.0E-05)
            1           2           3           4           5           6
    1   2.0000000   2.0000000   2.0000000   1.9999998   1.9999998   1.9879129
            7           8           9          10          11          12
    1   1.8777634   0.5732106   0.5732009   0.4428412   0.4428306   0.1021973
           13          14
    1   0.0000212   0.0000212

 Head-Gordon Nu:    2.27
 Head-Gordon Nu_nl: 2.38

  Amplitudes : 
  
 | HOLE  | ALPHA | BETA  | PART  |    AMPLITUDE 
--------------------------------------------------
 |   4   | 111   | 011   |       |     1.0994133671603E-01
 |       | 110   | 100   |  12   |     6.6311769323144E-01
 |       | 101   | 100   |  13   |     6.6311879203796E-01
 |       | 110   | 010   |  10   |     2.0368328581983E-01
 |       | 101   | 001   |  10   |     2.0368314989290E-01
--------------------------------------------------
*** Contributions RASCI wfn    Active:   0.00
                                 Hole:   1.21
                                 Part:  98.79

      Mulliken population analysis 
 ---------------------------------------------------
   Atom    Charge (a.u.)   Spin (a.u.)  
 ---------------------------------------------------
   1  O   -0.000000        1.000000 
   2  O   -0.000000        1.000000 
 ---------------------------------------------------
   Sum:   -0.000000        2.000000 
 ---------------------------------------------------
 
*** Unpaired Electrons
 Yamaguchi Nd:         3.46
  
**************************************************
 RAS-CI total energy for state  24:   -148.962715212405
  Excitation energy (eV) = 19.058697711035
  State symmetry: B1u   (D2h      )
  <S^2>      :  2.0000
  Dipole Moment:   -0.0000 X     0.0000 Y    -0.0000 Z
  Trans. Moment:    0.0000 X     0.0000 Y     0.0000 Z
  Strength   :  0.000000
  Natural transition orbitals ( 1 -> 24 ):
   e-/hole pair  1 alpha:  ampl =  0.237409 (  5.6%)   [3 : 4]
   e-/hole pair  2 alpha:  ampl =  0.237407 (  5.6%)   [2 : 5]
   e-/hole pair  1 beta :  ampl =  0.003607 (  0.0%)   [3 : 4]
   e-/hole pair  2 beta :  ampl =  0.003607 (  0.0%)   [2 : 5]
   Sum of square amplitudes: 0.11

 NATURAL OCCUPATION NUMBERS (higher than 1.0E-05)
            1           2           3           4           5           6
    1   2.0000000   2.0000000   2.0000000   1.9999870   1.9999870   1.8966005
            7           8           9          10          11          12
    1   1.1128421   1.0470056   1.0470034   0.7831756   0.0564585   0.0564579
           13          14
    1   0.0002390   0.0002390

 Head-Gordon Nu:    3.79
 Head-Gordon Nu_nl: 3.94

  Amplitudes : 
  
 | HOLE  | ALPHA | BETA  | PART  |    AMPLITUDE 
--------------------------------------------------
 |   4   | 111   | 011   |       |     3.2155776150804E-01
 |       | 110   | 100   |  12   |    -2.3689403357660E-01
 |       | 101   | 100   |  13   |    -2.3689414540287E-01
 |       | 110   | 010   |  10   |     5.3039373557623E-01
 |       | 110   | 010   |  17   |    -3.2524616022173E-01
 |       | 101   | 001   |  10   |     5.3039349406936E-01
 |       | 101   | 001   |  17   |    -3.2524593637429E-01
--------------------------------------------------
*** Contributions RASCI wfn    Active:   0.00
                                 Hole:  10.34
                                 Part:  89.66

      Mulliken population analysis 
 ---------------------------------------------------
   Atom    Charge (a.u.)   Spin (a.u.)  
 ---------------------------------------------------
   1  O   -0.000000        1.000000 
   2  O   -0.000000        1.000000 
 ---------------------------------------------------
   Sum:   -0.000000        2.000000 
 ---------------------------------------------------
 
*** Unpaired Electrons
 Yamaguchi Nd:         4.35
  
**************************************************
 RAS-CI total energy for state  25:   -148.922935884988
  Excitation energy (eV) = 20.141148283399
  Warning: not all configurations have same symmetry
  State symmetry: *B2u   (D2h      )
  <S^2>      :  2.0000
  Dipole Moment:    0.0000 X    -0.0000 Y    -0.0000 Z
  Trans. Moment:    0.2469 X    -0.1499 Y     0.0000 Z
  Strength   :  0.041161
  Natural transition orbitals ( 1 -> 25 ):
   e-/hole pair  1 alpha:  ampl =  0.993621 ( 98.7%)   [3 : 4]
   e-/hole pair  2 alpha:  ampl =  0.014529 (  0.0%)   [2 : 5]
   e-/hole pair  1 beta :  ampl =  0.044200 (  0.2%)   [3 : 4]
   e-/hole pair  2 beta :  ampl =  0.001020 (  0.0%)   [2 : 5]
   Sum of square amplitudes: 0.99

 NATURAL OCCUPATION NUMBERS (higher than 1.0E-05)
            1           2           3           4           5           6
    1   2.0000000   2.0000000   2.0000000   2.0000000   1.9999990   1.9999989
            7           8           9          10          11          12
    1   1.9842760   1.0022250   0.9927869   0.0135032   0.0049084   0.0022287
           13          14
    1   0.0000564   0.0000138

 Head-Gordon Nu:    2.03
 Head-Gordon Nu_nl: 2.00

  Amplitudes : 
  
 | HOLE  | ALPHA | BETA  | PART  |    AMPLITUDE 
--------------------------------------------------
 |       | 110   | 100   |  10   |     2.5653287985157E-01
 |       | 110   | 100   |  17   |     4.4680625127846E-01
 |       | 101   | 100   |  10   |     4.2263688048324E-01
 |       | 101   | 100   |  17   |     7.3611137348865E-01
--------------------------------------------------
*** Contributions RASCI wfn    Active:   0.00
                                 Hole:   0.00
                                 Part: 100.00

      Mulliken population analysis 
 ---------------------------------------------------
   Atom    Charge (a.u.)   Spin (a.u.)  
 ---------------------------------------------------
   1  O   -0.000000        1.000000 
   2  O   -0.000000        1.000000 
 ---------------------------------------------------
   Sum:   -0.000000        2.000000 
 ---------------------------------------------------
 
*** Unpaired Electrons
 Yamaguchi Nd:         2.07
  
**************************************************
 RAS-CI total energy for state  26:   -148.922935806496
  Excitation energy (eV) = 20.141150419273
  Warning: not all configurations have same symmetry
  State symmetry: *B2u   (D2h      )
  <S^2>      :  2.0000
  Dipole Moment:   -0.0000 X    -0.0000 Y    -0.0000 Z
  Trans. Moment:   -0.1499 X    -0.2469 Y     0.0000 Z
  Strength   :  0.041162
  Natural transition orbitals ( 1 -> 26 ):
   e-/hole pair  1 alpha:  ampl =  0.993621 ( 98.7%)   [3 : 4]
   e-/hole pair  2 alpha:  ampl =  0.014529 (  0.0%)   [2 : 5]
   e-/hole pair  1 beta :  ampl =  0.044200 (  0.2%)   [3 : 4]
   e-/hole pair  2 beta :  ampl =  0.001020 (  0.0%)   [2 : 5]
   Sum of square amplitudes: 0.99

 NATURAL OCCUPATION NUMBERS (higher than 1.0E-05)
            1           2           3           4           5           6
    1   2.0000000   2.0000000   2.0000000   2.0000000   1.9999990   1.9999989
            7           8           9          10          11          12
    1   1.9842760   1.0022250   0.9927869   0.0135032   0.0049084   0.0022287
           13          14
    1   0.0000564   0.0000138

 Head-Gordon Nu:    2.03
 Head-Gordon Nu_nl: 2.00

  Amplitudes : 
  
 | HOLE  | ALPHA | BETA  | PART  |    AMPLITUDE 
--------------------------------------------------
 |       | 110   | 100   |  10   |     4.2263700591889E-01
 |       | 110   | 100   |  17   |     7.3611130080703E-01
 |       | 101   | 100   |  10   |    -2.5653301082424E-01
 |       | 101   | 100   |  17   |    -4.4680617376233E-01
--------------------------------------------------
*** Contributions RASCI wfn    Active:   0.00
                                 Hole:   0.00
                                 Part: 100.00

      Mulliken population analysis 
 ---------------------------------------------------
   Atom    Charge (a.u.)   Spin (a.u.)  
 ---------------------------------------------------
   1  O   -0.000000        1.000000 
   2  O   -0.000000        1.000000 
 ---------------------------------------------------
   Sum:   -0.000000        2.000000 
 ---------------------------------------------------
 
*** Unpaired Electrons
 Yamaguchi Nd:         2.07
  
**************************************************
 RAS-CI total energy for state  27:   -148.893154831207
  Excitation energy (eV) = 20.951531987812
  Warning: not all configurations have same symmetry
  State symmetry: *B3g   (D2h      )
  <S^2>      :  2.0000
  Dipole Moment:    0.0000 X    -0.0000 Y     0.0000 Z
  Trans. Moment:   -0.0000 X     0.0000 Y    -0.0000 Z
  Strength   :  0.000000
  Natural transition orbitals ( 1 -> 27 ):
   e-/hole pair  1 alpha:  ampl =  0.996112 ( 99.2%)   [3 : 4]
   e-/hole pair  2 alpha:  ampl =  0.015602 (  0.0%)   [2 : 5]
   e-/hole pair  1 beta :  ampl =  0.024302 (  0.1%)   [3 : 4]
   e-/hole pair  2 beta :  ampl =  0.012699 (  0.0%)   [2 : 5]
   Sum of square amplitudes: 0.99

 NATURAL OCCUPATION NUMBERS (higher than 1.0E-05)
            1           2           3           4           5           6
    1   2.0000000   2.0000000   2.0000000   2.0000000   2.0000000   1.9995450
            7           8           9          10          11          12
    1   1.9899567   1.0007547   0.9974049   0.0102972   0.0012659   0.0007587

 Head-Gordon Nu:    2.02
 Head-Gordon Nu_nl: 2.00

  Amplitudes : 
  
 | HOLE  | ALPHA | BETA  | PART  |    AMPLITUDE 
--------------------------------------------------
 |       | 110   | 100   |  11   |     1.1148552364453E-01
 |       | 110   | 100   |  14   |     5.3746880692270E-01
 |       | 101   | 100   |  11   |     1.6868586589512E-01
 |       | 101   | 100   |  14   |     8.1323018049188E-01
--------------------------------------------------
*** Contributions RASCI wfn    Active:   0.01
                                 Hole:   0.05
                                 Part:  99.95

      Mulliken population analysis 
 ---------------------------------------------------
   Atom    Charge (a.u.)   Spin (a.u.)  
 ---------------------------------------------------
   1  O   -0.000000        1.000000 
   2  O   -0.000000        1.000000 
 ---------------------------------------------------
   Sum:   -0.000000        2.000000 
 ---------------------------------------------------
 
*** Unpaired Electrons
 Yamaguchi Nd:         2.05
  
**************************************************
 RAS-CI total energy for state  28:   -148.893154725414
  Excitation energy (eV) = 20.951534866606
  Warning: not all configurations have same symmetry
  State symmetry: *B3g   (D2h      )
  <S^2>      :  2.0000
  Dipole Moment:   -0.0000 X     0.0000 Y     0.0000 Z
  Trans. Moment:    0.0000 X     0.0000 Y     0.0000 Z
  Strength   :  0.000000
  Natural transition orbitals ( 1 -> 28 ):
   e-/hole pair  1 alpha:  ampl =  0.996112 ( 99.2%)   [3 : 4]
   e-/hole pair  2 alpha:  ampl =  0.015602 (  0.0%)   [2 : 5]
   e-/hole pair  1 beta :  ampl =  0.024302 (  0.1%)   [3 : 4]
   e-/hole pair  2 beta :  ampl =  0.012699 (  0.0%)   [2 : 5]
   Sum of square amplitudes: 0.99

 NATURAL OCCUPATION NUMBERS (higher than 1.0E-05)
            1           2           3           4           5           6
    1   2.0000000   2.0000000   2.0000000   2.0000000   2.0000000   1.9995450
            7           8           9          10          11          12
    1   1.9899567   1.0007547   0.9974048   0.0102972   0.0012659   0.0007587

 Head-Gordon Nu:    2.02
 Head-Gordon Nu_nl: 2.00

  Amplitudes : 
  
 | HOLE  | ALPHA | BETA  | PART  |    AMPLITUDE 
--------------------------------------------------
 |       | 110   | 100   |  11   |     1.6868590171397E-01
 |       | 110   | 100   |  14   |     8.1323017089927E-01
 |       | 101   | 100   |  11   |    -1.1148554796026E-01
 |       | 101   | 100   |  14   |    -5.3746879884735E-01
--------------------------------------------------
*** Contributions RASCI wfn    Active:   0.01
                                 Hole:   0.05
                                 Part:  99.95

      Mulliken population analysis 
 ---------------------------------------------------
   Atom    Charge (a.u.)   Spin (a.u.)  
 ---------------------------------------------------
   1  O   -0.000000        1.000000 
   2  O   -0.000000        1.000000 
 ---------------------------------------------------
   Sum:   -0.000000        2.000000 
 ---------------------------------------------------
 
*** Unpaired Electrons
 Yamaguchi Nd:         2.05
  
**************************************************
 RAS-CI total energy for state  29:   -148.846629028766
  Excitation energy (eV) = 22.217563485910
  State symmetry: Ag    (D2h      )
  <S^2>      :  2.0000
  Dipole Moment:    0.0000 X    -0.0000 Y     0.0000 Z
  Trans. Moment:   -0.0000 X     0.0000 Y     0.0000 Z
  Strength   :  0.000000
  Natural transition orbitals ( 1 -> 29 ):
   e-/hole pair  1 alpha:  ampl =  0.690516 ( 47.7%)   [3 : 4]
   e-/hole pair  2 alpha:  ampl =  0.690507 ( 47.7%)   [2 : 5]
   e-/hole pair  1 beta :  ampl =  0.001848 (  0.0%)   [3 : 4]
   e-/hole pair  2 beta :  ampl =  0.001269 (  0.0%)   [2 : 5]
   Sum of square amplitudes: 0.95

 NATURAL OCCUPATION NUMBERS (higher than 1.0E-05)
            1           2           3           4           5           6
    1   2.0000000   2.0000000   2.0000000   2.0000000   2.0000000   2.0000000
            7           8           9          10          11          12
    1   1.9518677   0.5240728   0.5240594   0.4788906   0.4788772   0.0422152

 Head-Gordon Nu:    2.10
 Head-Gordon Nu_nl: 2.27

  Amplitudes : 
  
 | HOLE  | ALPHA | BETA  | PART  |    AMPLITUDE 
--------------------------------------------------
 |       | 110   | 100   |  15   |     6.9002129775170E-01
 |       | 101   | 100   |  16   |     6.9002500041855E-01
 |       | 110   | 010   |  11   |    -1.4438161553982E-01
 |       | 101   | 001   |  11   |     1.4438219283809E-01
--------------------------------------------------
*** Contributions RASCI wfn    Active:   0.00
                                 Hole:   0.00
                                 Part: 100.00

      Mulliken population analysis 
 ---------------------------------------------------
   Atom    Charge (a.u.)   Spin (a.u.)  
 ---------------------------------------------------
   1  O   -0.000000        1.000000 
   2  O   -0.000000        1.000000 
 ---------------------------------------------------
   Sum:   -0.000000        2.000000 
 ---------------------------------------------------
 
*** Unpaired Electrons
 Yamaguchi Nd:         3.18
  
**************************************************
 RAS-CI total energy for state  30:   -148.845486491632
  Excitation energy (eV) = 22.248653503132
  State symmetry: Au    (D2h      )
  <S^2>      :  2.0000
  Dipole Moment:    0.0000 X     0.0000 Y    -0.0000 Z
  Trans. Moment:    0.0000 X    -0.0000 Y    -1.2759 Z
  Strength   :  0.887396
  Natural transition orbitals ( 1 -> 30 ):
   e-/hole pair  1 alpha:  ampl =  0.587345 ( 34.5%)   [3 : 4]
   e-/hole pair  2 alpha:  ampl =  0.271426 (  7.4%)   [2 : 5]
   e-/hole pair  1 beta :  ampl =  0.651777 ( 42.5%)   [3 : 4]
[...]
 <Sz=-1.00|     -0.000000     33.245907i       0.000000     -0.000000i       0.000000     -0.000000i
 <Sz= 0.00|     -0.000000     -0.000000i      -0.000000     -0.000000i       0.000000     -0.000000i
 <Sz= 1.00|      0.000000     -0.000000i      -0.000000     -0.000000i      -0.000000    -33.245907i
1-elec SOCC =    47.016812046 cm-1
 Reading 2e-SOMF integrals
 2e-SOMF Reduced matrix elements (cm-1)
<S|| Hso(L-) ||S'> =    -0.0000000000    -0.0000000000i
<S|| Hso(L0) ||S'> =     0.0000000000    16.5800399861i
<S|| Hso(L+) ||S'> =    -0.0000000000     0.0000000000i
 2-elec mean-field SOC matrix (cm-1): < B(S,Sz) | Hso(2e-mf) | A(S',Sz') >
                       |Sz'=-1.00>                |Sz'= 0.00>                |Sz'= 1.00>
 <Sz=-1.00|      0.000000    -11.723859i      -0.000000      0.000000i      -0.000000      0.000000i
 <Sz= 0.00|      0.000000      0.000000i       0.000000      0.000000i      -0.000000      0.000000i
 <Sz= 1.00|     -0.000000      0.000000i       0.000000      0.000000i       0.000000     11.723859i
 Total mean-field SOC matrix (cm-1): < B(S,Sz) | Hsomf | A(S',Sz') >
                       |Sz'=-1.00>                |Sz'= 0.00>                |Sz'= 1.00>
 <Sz=-1.00|     -0.000000     21.522048i       0.000000     -0.000000i       0.000000     -0.000000i
 <Sz= 0.00|     -0.000000     -0.000000i      -0.000000     -0.000000i       0.000000     -0.000000i
 <Sz= 1.00|      0.000000     -0.000000i      -0.000000     -0.000000i      -0.000000    -21.522048i
Mean-Field SOCC =    30.436772060 cm-1
   
**************************************************
State A: Root 30
State B: Root 25
  
Angular momentum components (a.u.)
< B | Lx | A > =    -0.238408400i
< B | Ly | A > =    -0.392776362i
< B | Lz | A > =    -0.000000000i
  
Norm of one-particle transition density matrix
||gamma^AB||_total       =  0.437645
||gamma^AB||_symmetrized =  0.317890
||gamma^AB||_anti-symm   =  0.300798
  
Spin-orbit couplings
 Using HF (reference) density for the 2-elec mean-field SOC contribution
KET: S',Sz' (Root  30) =  1.000 1.000
BRA: S ,Sz  (Root  25) =  1.000 1.000
Clebsh-Gordan coefficient: < 1.000, 1.000; 1.000, 0.000| 1.000, 1.000> =  0.707
 Reading 1e-SO integrals
 1e Reduced matrix elements (cm-1)
<S|| Hso(L-) ||S'> =    47.1904775077    28.6437978158i
<S|| Hso(L0) ||S'> =     0.0000000000    -0.0000000000i
<S|| Hso(L+) ||S'> =    47.1904775077   -28.6437978158i
 1-elec SOC matrix (cm-1): < B(S,Sz) | Hso(1e) | A(S',Sz') >
                       |Sz'=-1.00>                |Sz'= 0.00>                |Sz'= 1.00>
 <Sz=-1.00|     -0.000000      0.000000i      33.368707    -20.254224i       0.000000     -0.000000i
 <Sz= 0.00|    -33.368707    -20.254224i      -0.000000      0.000000i      33.368707    -20.254224i
 <Sz= 1.00|      0.000000      0.000000i     -33.368707    -20.254224i      -0.000000     -0.000000i
1-elec SOCC =    78.069306654 cm-1
 Reading 2e-SOMF integrals
 2e-SOMF Reduced matrix elements (cm-1)
<S|| Hso(L-) ||S'> =   -16.6427708630   -10.1018719704i
<S|| Hso(L0) ||S'> =     0.0000000000     0.0000000000i
<S|| Hso(L+) ||S'> =   -16.6427708630    10.1018719704i
 2-elec mean-field SOC matrix (cm-1): < B(S,Sz) | Hso(2e-mf) | A(S',Sz') >
                       |Sz'=-1.00>                |Sz'= 0.00>                |Sz'= 1.00>
 <Sz=-1.00|      0.000000     -0.000000i     -11.768216      7.143102i      -0.000000      0.000000i
 <Sz= 0.00|     11.768216      7.143102i       0.000000     -0.000000i     -11.768216      7.143102i
 <Sz= 1.00|     -0.000000     -0.000000i      11.768216      7.143102i       0.000000      0.000000i
 Total mean-field SOC matrix (cm-1): < B(S,Sz) | Hsomf | A(S',Sz') >
                       |Sz'=-1.00>                |Sz'= 0.00>                |Sz'= 1.00>
 <Sz=-1.00|     -0.000000      0.000000i      21.600491    -13.111122i       0.000000     -0.000000i
 <Sz= 0.00|    -21.600491    -13.111122i      -0.000000      0.000000i      21.600491    -13.111122i
 <Sz= 1.00|      0.000000      0.000000i     -21.600491    -13.111122i      -0.000000     -0.000000i
Mean-Field SOCC =    50.536430331 cm-1
   
**************************************************
State A: Root 30
State B: Root 26
  
Angular momentum components (a.u.)
< B | Lx | A > =    -0.392776664i
< B | Ly | A > =     0.238408850i
< B | Lz | A > =    -0.000000000i
  
Norm of one-particle transition density matrix
||gamma^AB||_total       =  0.437645
||gamma^AB||_symmetrized =  0.317890
||gamma^AB||_anti-symm   =  0.300798
  
Spin-orbit couplings
 Using HF (reference) density for the 2-elec mean-field SOC contribution
KET: S',Sz' (Root  30) =  1.000 1.000
BRA: S ,Sz  (Root  26) =  1.000 1.000
Clebsh-Gordan coefficient: < 1.000, 1.000; 1.000, 0.000| 1.000, 1.000> =  0.707
 Reading 1e-SO integrals
 1e Reduced matrix elements (cm-1)
<S|| Hso(L-) ||S'> =   -28.6438442550    47.1905004768i
<S|| Hso(L0) ||S'> =     0.0000000000    -0.0000000000i
<S|| Hso(L+) ||S'> =   -28.6438442550   -47.1905004768i
 1-elec SOC matrix (cm-1): < B(S,Sz) | Hso(1e) | A(S',Sz') >
                       |Sz'=-1.00>                |Sz'= 0.00>                |Sz'= 1.00>
 <Sz=-1.00|      0.000000      0.000000i     -20.254257    -33.368723i      -0.000000     -0.000000i
 <Sz= 0.00|     20.254257    -33.368723i       0.000000      0.000000i     -20.254257    -33.368723i
 <Sz= 1.00|     -0.000000      0.000000i      20.254257    -33.368723i       0.000000     -0.000000i
1-elec SOCC =    78.069368499 cm-1
 Reading 2e-SOMF integrals
 2e-SOMF Reduced matrix elements (cm-1)
<S|| Hso(L-) ||S'> =    10.1018880752   -16.6427781333i
<S|| Hso(L0) ||S'> =     0.0000000000     0.0000000000i
<S|| Hso(L+) ||S'> =    10.1018880752    16.6427781333i
 2-elec mean-field SOC matrix (cm-1): < B(S,Sz) | Hso(2e-mf) | A(S',Sz') >
                       |Sz'=-1.00>                |Sz'= 0.00>                |Sz'= 1.00>
 <Sz=-1.00|     -0.000000     -0.000000i       7.143114     11.768221i       0.000000      0.000000i
 <Sz= 0.00|     -7.143114     11.768221i      -0.000000     -0.000000i       7.143114     11.768221i
 <Sz= 1.00|      0.000000     -0.000000i      -7.143114     11.768221i      -0.000000      0.000000i
 Total mean-field SOC matrix (cm-1): < B(S,Sz) | Hsomf | A(S',Sz') >
                       |Sz'=-1.00>                |Sz'= 0.00>                |Sz'= 1.00>
 <Sz=-1.00|      0.000000      0.000000i     -13.111143    -21.600502i      -0.000000     -0.000000i
 <Sz= 0.00|     13.111143    -21.600502i       0.000000      0.000000i     -13.111143    -21.600502i
 <Sz= 1.00|     -0.000000      0.000000i      13.111143    -21.600502i       0.000000     -0.000000i
Mean-Field SOCC =    50.536471570 cm-1
   
**************************************************
State A: Root 30
State B: Root 27
  
Angular momentum components (a.u.)
< B | Lx | A > =    -0.000000000i
< B | Ly | A > =    -0.000000000i
< B | Lz | A > =     0.000000000i
  
Norm of one-particle transition density matrix
||gamma^AB||_total       =  0.273375
||gamma^AB||_symmetrized =  0.193305
||gamma^AB||_anti-symm   =  0.193305
  
Spin-orbit couplings
 Using HF (reference) density for the 2-elec mean-field SOC contribution
KET: S',Sz' (Root  30) =  1.000 1.000
BRA: S ,Sz  (Root  27) =  1.000 1.000
Clebsh-Gordan coefficient: < 1.000, 1.000; 1.000, 0.000| 1.000, 1.000> =  0.707
 Reading 1e-SO integrals
 1e Reduced matrix elements (cm-1)
<S|| Hso(L-) ||S'> =     0.0000000000     0.0000000000i
<S|| Hso(L0) ||S'> =     0.0000000000     0.0000000000i
<S|| Hso(L+) ||S'> =     0.0000000000    -0.0000000000i
 1-elec SOC matrix (cm-1): < B(S,Sz) | Hso(1e) | A(S',Sz') >
                       |Sz'=-1.00>                |Sz'= 0.00>                |Sz'= 1.00>
 <Sz=-1.00|     -0.000000     -0.000000i       0.000000     -0.000000i       0.000000     -0.000000i
 <Sz= 0.00|     -0.000000     -0.000000i      -0.000000      0.000000i       0.000000     -0.000000i
 <Sz= 1.00|      0.000000      0.000000i      -0.000000     -0.000000i      -0.000000      0.000000i
1-elec SOCC =     0.000000000 cm-1
 Reading 2e-SOMF integrals
 2e-SOMF Reduced matrix elements (cm-1)
<S|| Hso(L-) ||S'> =    -0.0000000000    -0.0000000000i
<S|| Hso(L0) ||S'> =     0.0000000000    -0.0000000000i
<S|| Hso(L+) ||S'> =    -0.0000000000     0.0000000000i
 2-elec mean-field SOC matrix (cm-1): < B(S,Sz) | Hso(2e-mf) | A(S',Sz') >
                       |Sz'=-1.00>                |Sz'= 0.00>                |Sz'= 1.00>
 <Sz=-1.00|      0.000000      0.000000i      -0.000000      0.000000i      -0.000000      0.000000i
 <Sz= 0.00|      0.000000      0.000000i       0.000000     -0.000000i      -0.000000      0.000000i
 <Sz= 1.00|     -0.000000     -0.000000i       0.000000      0.000000i       0.000000     -0.000000i
 Total mean-field SOC matrix (cm-1): < B(S,Sz) | Hsomf | A(S',Sz') >
                       |Sz'=-1.00>                |Sz'= 0.00>                |Sz'= 1.00>
 <Sz=-1.00|     -0.000000     -0.000000i       0.000000     -0.000000i       0.000000     -0.000000i
 <Sz= 0.00|     -0.000000     -0.000000i      -0.000000      0.000000i       0.000000     -0.000000i
 <Sz= 1.00|      0.000000      0.000000i      -0.000000     -0.000000i      -0.000000      0.000000i
Mean-Field SOCC =     0.000000000 cm-1
   
**************************************************
State A: Root 30
State B: Root 28
  
Angular momentum components (a.u.)
< B | Lx | A > =     0.000000000i
< B | Ly | A > =     0.000000000i
< B | Lz | A > =     0.000000000i
  
Norm of one-particle transition density matrix
||gamma^AB||_total       =  0.273376
||gamma^AB||_symmetrized =  0.193306
||gamma^AB||_anti-symm   =  0.193306
  
Spin-orbit couplings
 Using HF (reference) density for the 2-elec mean-field SOC contribution
KET: S',Sz' (Root  30) =  1.000 1.000
BRA: S ,Sz  (Root  28) =  1.000 1.000
Clebsh-Gordan coefficient: < 1.000, 1.000; 1.000, 0.000| 1.000, 1.000> =  0.707
 Reading 1e-SO integrals
 1e Reduced matrix elements (cm-1)
<S|| Hso(L-) ||S'> =    -0.0000000000     0.0000000000i
<S|| Hso(L0) ||S'> =     0.0000000000     0.0000000000i
<S|| Hso(L+) ||S'> =    -0.0000000000    -0.0000000000i
 1-elec SOC matrix (cm-1): < B(S,Sz) | Hso(1e) | A(S',Sz') >
                       |Sz'=-1.00>                |Sz'= 0.00>                |Sz'= 1.00>
 <Sz=-1.00|      0.000000     -0.000000i      -0.000000     -0.000000i      -0.000000     -0.000000i
 <Sz= 0.00|      0.000000     -0.000000i       0.000000      0.000000i      -0.000000     -0.000000i
 <Sz= 1.00|     -0.000000      0.000000i       0.000000     -0.000000i       0.000000      0.000000i
1-elec SOCC =     0.000000000 cm-1
 Reading 2e-SOMF integrals
 2e-SOMF Reduced matrix elements (cm-1)
<S|| Hso(L-) ||S'> =     0.0000000000    -0.0000000000i
<S|| Hso(L0) ||S'> =     0.0000000000    -0.0000000000i
<S|| Hso(L+) ||S'> =     0.0000000000     0.0000000000i
 2-elec mean-field SOC matrix (cm-1): < B(S,Sz) | Hso(2e-mf) | A(S',Sz') >
                       |Sz'=-1.00>                |Sz'= 0.00>                |Sz'= 1.00>
 <Sz=-1.00|     -0.000000      0.000000i       0.000000      0.000000i       0.000000      0.000000i
 <Sz= 0.00|     -0.000000      0.000000i      -0.000000     -0.000000i       0.000000      0.000000i
 <Sz= 1.00|      0.000000     -0.000000i      -0.000000      0.000000i      -0.000000     -0.000000i
 Total mean-field SOC matrix (cm-1): < B(S,Sz) | Hsomf | A(S',Sz') >
                       |Sz'=-1.00>                |Sz'= 0.00>                |Sz'= 1.00>
 <Sz=-1.00|      0.000000     -0.000000i      -0.000000     -0.000000i      -0.000000     -0.000000i
 <Sz= 0.00|      0.000000     -0.000000i       0.000000      0.000000i      -0.000000     -0.000000i
 <Sz= 1.00|     -0.000000      0.000000i       0.000000     -0.000000i       0.000000      0.000000i
Mean-Field SOCC =     0.000000000 cm-1
   
**************************************************
State A: Root 30
State B: Root 29
  
Angular momentum components (a.u.)
< B | Lx | A > =     0.000000000i
< B | Ly | A > =     0.000000000i
< B | Lz | A > =    -0.000000000i
  
Norm of one-particle transition density matrix
||gamma^AB||_total       =  0.267346
||gamma^AB||_symmetrized =  0.189042
||gamma^AB||_anti-symm   =  0.189042
  
Spin-orbit couplings
 Using HF (reference) density for the 2-elec mean-field SOC contribution
KET: S',Sz' (Root  30) =  1.000 1.000
BRA: S ,Sz  (Root  29) =  1.000 1.000
Clebsh-Gordan coefficient: < 1.000, 1.000; 1.000, 0.000| 1.000, 1.000> =  0.707
 Reading 1e-SO integrals
 1e Reduced matrix elements (cm-1)
<S|| Hso(L-) ||S'> =     0.0000000000     0.0000000000i
<S|| Hso(L0) ||S'> =     0.0000000000    -0.0000000000i
<S|| Hso(L+) ||S'> =     0.0000000000    -0.0000000000i
 1-elec SOC matrix (cm-1): < B(S,Sz) | Hso(1e) | A(S',Sz') >
                       |Sz'=-1.00>                |Sz'= 0.00>                |Sz'= 1.00>
 <Sz=-1.00|     -0.000000      0.000000i       0.000000     -0.000000i       0.000000     -0.000000i
 <Sz= 0.00|     -0.000000     -0.000000i      -0.000000     -0.000000i       0.000000     -0.000000i
 <Sz= 1.00|      0.000000     -0.000000i      -0.000000     -0.000000i      -0.000000     -0.000000i
1-elec SOCC =     0.000000000 cm-1
 Reading 2e-SOMF integrals
 2e-SOMF Reduced matrix elements (cm-1)
<S|| Hso(L-) ||S'> =    -0.0000000000    -0.0000000000i
<S|| Hso(L0) ||S'> =     0.0000000000     0.0000000000i
<S|| Hso(L+) ||S'> =    -0.0000000000     0.0000000000i
 2-elec mean-field SOC matrix (cm-1): < B(S,Sz) | Hso(2e-mf) | A(S',Sz') >
                       |Sz'=-1.00>                |Sz'= 0.00>                |Sz'= 1.00>
 <Sz=-1.00|      0.000000     -0.000000i      -0.000000      0.000000i      -0.000000      0.000000i
 <Sz= 0.00|      0.000000      0.000000i       0.000000      0.000000i      -0.000000      0.000000i
 <Sz= 1.00|     -0.000000      0.000000i       0.000000      0.000000i       0.000000      0.000000i
 Total mean-field SOC matrix (cm-1): < B(S,Sz) | Hsomf | A(S',Sz') >
                       |Sz'=-1.00>                |Sz'= 0.00>                |Sz'= 1.00>
 <Sz=-1.00|     -0.000000      0.000000i       0.000000     -0.000000i       0.000000     -0.000000i
 <Sz= 0.00|     -0.000000     -0.000000i      -0.000000     -0.000000i       0.000000     -0.000000i
 <Sz= 1.00|      0.000000     -0.000000i      -0.000000     -0.000000i      -0.000000     -0.000000i
Mean-Field SOCC =     0.000000000 cm-1
   
**************************************************
RAS-CI timing summary (seconds)
  CPU time          9.92s
  System time       0.00s
  Wall time        12.61s
Detailed CPU timing summary
     Fock matrix         :         0.0893 s
     Integrals           :         0.1551 s
     Addressing matrices :         0.0000 s
     Guesses             :         0.0005 s
     Iterations          :         2.6000 s
     Properties          :         7.0767 s
     RAS-CI(2) correction:         0.0000 s
  
 
 --------------------------------------------------------------
             Orbital Energies (a.u.) and Symmetries
 --------------------------------------------------------------
 
 Alpha MOs, Restricted
 -- Doubly Occupied --           
-20.751 -20.750  -1.703  -1.189  -0.822  -0.822  -0.770
  1 Ag    1 B1u   2 Ag    2 B1u   1 B3u   1 B2u   3 Ag                         
 -- Singly Occupied (Occupied) --
 -0.532  -0.532
  1 B2g   1 B3g                                                                
 -- Virtual --                   
  0.338   0.469   0.515   0.515   0.573   0.622   0.622   0.646
  3 B1u   4 Ag    2 B3u   2 B2u   5 Ag    2 B2g   2 B3g   4 B1u                
  0.899   1.443   1.443   1.532   1.532   1.859   1.859   2.096
  5 B1u   1 B1g   6 Ag    3 B3u   3 B2u   1 Au    6 B1u   7 Ag                 
  2.381   2.381   2.427   2.756   2.756   2.849   3.082   3.107
  3 B2g   3 B3g   7 B1u   4 B3u   4 B2u   8 Ag    8 B1u   4 B2g                
  3.107   3.277   4.631   4.977   4.977   5.027   5.027   5.313
  4 B3g   9 Ag    9 B1u  10 Ag    2 B1g   5 B3u   5 B2u   6 B3u                
  5.313   5.413   5.560   5.560   6.118   6.118   6.497   6.497
  6 B2u  11 Ag    5 B2g   5 B3g  10 B1u   2 Au    3 B1g  12 Ag                 
  6.712   6.712   6.761   6.761   6.826   6.876   6.876   7.655
  3 Au   11 B1u   6 B2g   6 B3g  12 B1u   7 B3u   7 B2u   7 B2g                
  7.655   7.931   9.136  44.481  45.022
  7 B3g  13 Ag   13 B1u  14 Ag   14 B1u                                        
 
 Beta MOs, Restricted
 -- Doubly Occupied --           
-20.709 -20.708  -1.595  -1.008  -0.589  -0.589  -0.701
  1 Ag    1 B1u   2 Ag    2 B1u   1 B3u   1 B2u   3 Ag                         
 -- Singly Occupied (Vacant) --  
  0.110   0.110
  1 B2g   1 B3g                                                                
 -- Virtual --                   
  0.374   0.488   0.556   0.556   0.579   0.667   0.667   0.694
  3 B1u   4 Ag    2 B3u   2 B2u   5 Ag    2 B2g   2 B3g   4 B1u                
  0.922   1.504   1.504   1.598   1.598   1.954   1.954   2.130
  5 B1u   1 B1g   6 Ag    3 B3u   3 B2u   1 Au    6 B1u   7 Ag                 
  2.440   2.440   2.454   2.853   2.853   2.892   3.124   3.189
  3 B2g   3 B3g   7 B1u   4 B3u   4 B2u   8 Ag    8 B1u   4 B2g                
  3.189   3.310   4.662   5.015   5.015   5.059   5.059   5.371
  4 B3g   9 Ag    9 B1u  10 Ag    2 B1g   5 B3u   5 B2u   6 B3u                
  5.371   5.453   5.623   5.623   6.169   6.169   6.602   6.602
  6 B2u  11 Ag    5 B2g   5 B3g  10 B1u   2 Au    3 B1g  12 Ag                 
  6.808   6.808   6.821   6.821   6.867   6.932   6.932   7.686
  3 Au   11 B1u   6 B2g   6 B3g  12 B1u   7 B3u   7 B2u   7 B2g                
  7.686   7.961   9.162  44.504  45.044
  7 B3g  13 Ag   13 B1u  14 Ag   14 B1u                                        
 --------------------------------------------------------------
 
          Ground-State Mulliken Net Atomic Charges

     Atom                 Charge (a.u.)
  ----------------------------------------
      1 O                    -0.000000
      2 O                    -0.000000
  ----------------------------------------
  Sum of atomic charges =     0.000000

 -----------------------------------------------------------------
                    Cartesian Multipole Moments
 -----------------------------------------------------------------
    Charge (ESU x 10^10)
                -0.0000
    Dipole Moment (Debye)
         X       0.0000      Y       0.0000      Z       0.0000
       Tot       0.0000
    Quadrupole Moments (Debye-Ang)
        XX      -9.9620     XY       0.0000     YY      -9.9620
        XZ       0.0000     YZ      -0.0000     ZZ     -10.3878
    Octopole Moments (Debye-Ang^2)
       XXX      -0.0000    XXY      -0.0000    XYY      -0.0000
       YYY      -0.0000    XXZ       0.0000    XYZ       0.0000
       YYZ       0.0000    XZZ       0.0000    YZZ       0.0000
       ZZZ       0.0000
    Hexadecapole Moments (Debye-Ang^3)
      XXXX      -6.9738   XXXY       0.0000   XXYY      -2.3246
      XYYY       0.0000   YYYY      -6.9738   XXXZ       0.0000
      XXYZ      -0.0000   XYYZ       0.0000   YYYZ      -0.0000
      XXZZ      -6.1206   XYZZ       0.0000   YYZZ      -6.1206
      XZZZ       0.0000   YZZZ      -0.0000   ZZZZ     -28.2795
 -----------------------------------------------------------------
 Total job time:  14.32s(wall), 10.64s(cpu) 
 Thu Sep  5 17:05:18 2024

======= MOLDEN-FORMATTED INPUT FILE FOLLOWS =======
[Molden Format]
[Atoms] (Angs)
  O      1    8      0.00000000      0.00000000     -0.60376000
  O      2    8      0.00000000      0.00000000      0.60376000

======= END OF MOLDEN-FORMATTED INPUT FILE =======


        *************************************************************
        *                                                           *
        *  Thank you very much for using Q-Chem.  Have a nice day.  *
        *                                                           *
        *************************************************************


