                  Welcome to Q-Chem
     A Quantum Leap Into The Future Of Chemistry


 Q-Chem 5.4 (devel), Q-Chem, Inc., Pleasanton, CA (2021)

 E. Epifanovsky,  A. T. B. Gilbert,  Xintian Feng,  Joonho Lee,  Yuezhi Mao,  
 N. Mardirossian,  P. Pokhilko,  A. White,  M. Wormit,  M. P. Coons,  
 A. L. Dempwolff,  Zhengting Gan,  D. Hait,  P. R. Horn,  L. D. Jacobson,  
 I. Kaliman,  J. Kussmann,  A. W. Lange,  Ka Un Lao,  D. S. Levine,  Jie Liu,  
 S. C. McKenzie,  A. F. Morrison,  K. Nanda,  F. Plasser,  D. R. Rehn,  
 M. L. Vidal,  Zhi-Qiang You,  Ying Zhu,  B. Alam,  B. Albrecht,  
 A. Aldossary,  E. Alguire,  J. H. Andersen,  D. Barton,  K. Begam,  A. Behn,  
 Y. A. Bernard,  E. J. Berquist,  H. Burton,  A. Carreras,  K. Carter-Fenk,  
 Romit Chakraborty,  A. D. Chien,  K. D. Closser,  V. Cofer-Shabica,  
 S. Dasgupta,  Jia Deng,  M. de Wergifosse,  M. Diedenhofen,  Hainam Do,  
 S. Ehlert,  Po-Tung Fang,  S. Fatehi,  Qingguo Feng,  T. Friedhoff,  
 J. Gayvert,  Qinghui Ge,  G. Gidofalvi,  M. Goldey,  J. Gomes,  
 C. Gonzalez-Espinoza,  S. Gulania,  A. Gunina,  M. W. D. Hanson-Heine,  
 P. H. P. Harbach,  A. W. Hauser,  M. F. Herbst,  M. Hernandez Vera,  
 M. Hodecker,  Z. C. Holden,  S. Houck,  Xunkun Huang,  Kerwin Hui,  
 B. C. Huynh,  M. Ivanov,  Hyunjun Ji,  Hanjie Jiang,  B. Kaduk,  S. Kaehler,  
 K. Khistyaev,  Jaehoon Kim,  P. Klunzinger,  Z. Koczor-Benda,  
 Joong Hoon Koh,  D. Kosenkov,  L. Koulias,  T. Kowalczyk,  C. M. Krauter,  
 K. Kue,  A. Kunitsa,  T. Kus,  A. Landau,  K. V. Lawler,  D. Lefrancois,  
 S. Lehtola,  Rain Li,  Yi-Pei Li,  Jiashu Liang,  M. Liebenthal,  
 Hung-Hsuan Lin,  You-Sheng Lin,  Fenglai Liu,  Kuan-Yu Liu,  
 M. Loipersberger,  A. Luenser,  A. Manjanath,  P. Manohar,  E. Mansoor,  
 S. F. Manzer,  Shan-Ping Mao,  A. V. Marenich,  T. Markovich,  S. Mason,  
 S. A. Maurer,  P. F. McLaughlin,  M. F. S. J. Menger,  J.-M. Mewes,  
 S. A. Mewes,  P. Morgante,  J. W. Mullinax,  K. J. Oosterbaan,  G. Paran,  
 Alexander C. Paul,  Suranjan K. Paul,  F. Pavosevic,  Zheng Pei,  S. Prager,  
 E. I. Proynov,  E. Ramos,  B. Rana,  A. E. Rask,  A. Rettig,  R. M. Richard,  
 F. Rob,  E. Rossomme,  T. Scheele,  M. Scheurer,  M. Schneider,  
 N. Sergueev,  S. M. Sharada,  W. Skomorowski,  D. W. Small,  C. J. Stein,  
 Yu-Chuan Su,  E. J. Sundstrom,  Zhen Tao,  J. Thirman,  T. Tsuchimochi,  
 N. M. Tubman,  S. P. Veccham,  O. Vydrov,  J. Wenzel,  J. Witte,  A. Yamada,  
 Kun Yao,  S. Yeganeh,  S. R. Yost,  A. Zech,  Igor Ying Zhang,  Xing Zhang,  
 Yu Zhang,  D. Zuev,  A. Aspuru-Guzik,  A. T. Bell,  N. A. Besley,  
 K. B. Bravaya,  B. R. Brooks,  D. Casanova,  Jeng-Da Chai,  S. Coriani,  
 C. J. Cramer,  A. E. DePrince, III,  R. A. DiStasio Jr.,  A. Dreuw,  
 B. D. Dunietz,  T. R. Furlani,  W. A. Goddard III,  S. Grimme,  
 S. Hammes-Schiffer,  T. Head-Gordon,  W. J. Hehre,  Chao-Ping Hsu,  
 T.-C. Jagau,  Yousung Jung,  A. Klamt,  Jing Kong,  D. S. Lambrecht,  
 WanZhen Liang,  N. J. Mayhall,  C. W. McCurdy,  J. B. Neaton,  T. Neudecker,  
 C. Ochsenfeld,  J. A. Parkhill,  R. Peverati,  V. A. Rassolov,  Yihan Shao,  
 L. V. Slipchenko,  R. P. Steele,  J. E. Subotnik,  A. J. W. Thom,  
 A. Tkatchenko,  D. G. Truhlar,  T. Van Voorhis,  T. A. Wesolowski,  
 K. B. Whaley,  H. L. Woodcock III,  P. M. Zimmerman,  S. Faraji,  
 P. M. W. Gill,  M. Head-Gordon,  J. M. Herbert,  A. I. Krylov

 Additional authors since Version 5.4.0: 
 Chandrima Chakravarty,  L. Cunha,  R. Kang,  Yongbin Kim,  S. Kotaru,  
 Shaozhi Li,  Xiangyuan Li,  F. Matz,  V. Parravicini,  Haisheng Ren,  
 Hengyuan Shen,  Yingli Su,  Hung-Yi Tsai,  C. Utku,  Fan Wang,  Jeff Yang,  
 F. Zeller

 Contributors to earlier versions of Q-Chem not listed above: 
 R. D. Adamson,  B. Austin,  R. Baer,  J. Baker,  G. J. O. Beran,  
 K. Brandhorst,  S. T. Brown,  E. F. C. Byrd,  Arup K. Chakraborty,  
 G. K. L. Chan,  Chun-Min Chang,  Yunqing Chen,  C.-L. Cheng,  
 Siu Hung Chien,  D. M. Chipman,  D. L. Crittenden,  H. Dachsel,  
 R. J. Doerksen,  A. D. Dutoi,  R. G. Edgar,  J. Fosso-Tande,  
 L. Fusti-Molnar,  D. Ghosh,  A. Ghysels,  A. Golubeva-Zadorozhnaya,  
 J. Gonthier,  M. S. Gordon,  S. R. Gwaltney,  G. Hawkins,  J. E. Herr,  
 A. Heyden,  S. Hirata,  E. G. Hohenstein,  G. Kedziora,  F. J. Keil,  
 C. Kelley,  Jihan Kim,  R. A. King,  R. Z. Khaliullin,  P. P. Korambath,  
 W. Kurlancheek,  A. Laurent,  A. M. Lee,  M. S. Lee,  S. V. Levchenko,  
 Ching Yeh Lin,  D. Liotard,  E. Livshits,  R. C. Lochan,  I. Lotan,  
 L. A. Martinez-Martinez,  P. E. Maslen,  N. Nair,  D. P. O'Neill,  
 D. Neuhauser,  E. Neuscamman,  C. M. Oana,  R. Olivares-Amaya,  R. Olson,  
 T. M. Perrine,  B. Peters,  P. A. Pieniazek,  A. Prociuk,  Y. M. Rhee,  
 J. Ritchie,  M. A. Rohrdanz,  E. Rosta,  N. J. Russ,  H. F. Schaefer III,  
 M. W. Schmidt,  N. E. Schultz,  S. Sharma,  N. Shenvi,  C. D. Sherrill,  
 A. C. Simmonett,  A. Sodt,  T. Stein,  D. Stuck,  K. S. Thanthiriwatte,  
 V. Vanovschi,  L. Vogt,  Tao Wang,  A. Warshel,  M. A. Watson,  
 C. F. Williams,  Q. Wu,  X. Xu,  Jun Yang,  W. Zhang,  Yan Zhao

   Please cite Q-Chem as follows:
  "Software for the frontiers of quantum chemistry:
   An overview of developments in the Q-Chem 5 package"
   J. Chem. Phys. 155, 084801 (2021)
   https://doi.org/10.1063/5.0055522 (open access)

 Q-Chem 5.4.2 for Intel X86 EM64T Linux

 Parts of Q-Chem use Armadillo 9.900.5 (Nocturnal Misbehaviour).
 http://arma.sourceforge.net/

 Q-Chem begins on Tue May  3 20:41:24 2022  

orc6
 Host: 0

     Scratch files written to /scratch/sven/qchem26253//
 Processing $rem in /qcsoftware/qchem_latest/config/preferences:
 Processing $rem in /home/users/sven/.qchemrc:
 Core orbitals will be frozen

 Checking the input file for inconsistencies... 	...done.

--------------------------------------------------------------
User input:
--------------------------------------------------------------
$ COMMENT
    Performing an EOM-IP-CCSD calculation including SOC
$end

$molecule
-3 1
Cu   0.00000000  0.00000000  0.00000000
Cl   2.31123850 -0.00002854  0.00000072
Cl   0.00002854  2.31123850  0.00000103
Cl  -0.00002854 -2.31123850 -0.00000103
Cl  -2.31123850  0.00002854 -0.00000072
$end

$rem
 !input_bohr = true
 !n_frozen_core = 0
 JOBTYPE           = SP 
 METHOD            = EOM-MP2
 IP_STATES         = [3,8,8,8,0,0,0,0]
 CC_STATE_TO_OPT   = [1,1]
 CC_REF_PROP = 1
 CC_EOM_PROP = 1
 CC_EOM_PROP_TE           = 1
 CC_TRANS_PROP            = 1
! EOM_USER_GUESS = TRUE
 CC_BACKEND = XM
 CALC_SOC = TRUE
 !SCF_GUESS = AUTOSAD
 BASIS def2-TZVP
 !CC_FNO_THRESH 9900
 CHOLESKY_TOL = 3
 !MAKE_CUBE_FILES = TRUE
 !PLOT_SPIN_DENSITY = TRUE
 MEM_TOTAL = 7000
 CC_MEMORY = 5600
 MEM_STATIC = 1000
 !SOLVENT_METHOD = PCM
 STATE_ANALYSIS = TRUE
 !NTO_PAIRS = 4
 PRINT_ORBITALS = 15
 MOLDEN_FORMAT = TRUE
$end

!$eom_user_guess
!35 36 37 43 45 46 49 50
!$end
!$pcm
!SWIG
!$end
--------------------------------------------------------------
 ----------------------------------------------------------------
             Standard Nuclear Orientation (Angstroms)
    I     Atom           X                Y                Z
 ----------------------------------------------------------------
    1      Cu     -0.0000000000     0.0000000000     0.0000000000
    2      Cl      2.3112385002     0.0000000000    -0.0000000000
    3      Cl      0.0000000000     2.3112385002    -0.0000000000
    4      Cl     -0.0000000000    -2.3112385002     0.0000000000
    5      Cl     -2.3112385002     0.0000000000     0.0000000000
 ----------------------------------------------------------------
 Molecular Point Group                 D2h   NOp =  8
 Largest Abelian Subgroup              D2h   NOp =  8
 Nuclear Repulsion Energy =         704.82872953 hartrees
 There are       50 alpha and       50 beta electrons
 Requested basis set is def2-TZVP
 There are 67 shells and 193 basis functions
 Total memory of 7000 MB is distributed as follows: 
   MEM_STATIC is set to 1000 MB
   QALLOC/CCMAN JOB total memory use is  6000 MB
 Warning: actual memory use might exceed 7000 MB

 Total QAlloc Memory Limit   7000 MB
 Mega-Array Size       978 MB
 MEM_STATIC part      1000 MB


                       Distance Matrix (Angstroms)
             Cu(  1)   Cl(  2)   Cl(  3)   Cl(  4)
   Cl(  2)  2.311239
   Cl(  3)  2.311239  3.268585
   Cl(  4)  2.311239  3.268585  4.622477
   Cl(  5)  2.311239  4.622477  3.268585  3.268585

 A cutoff of  1.0D-14 yielded   1940 shell pairs
 There are     17408 function pairs (     22951 Cartesian)
 Smallest overlap matrix eigenvalue = 9.49E-03

 Scale SEOQF with 1.000000e-01/1.000000e-01/1.000000e-01

 Standard Electronic Orientation quadrupole field applied
 Nucleus-field energy     =     0.0000000195 hartrees
 Guess from superposition of atomic densities
 Warning:  Energy on first SCF cycle will be non-variational
 SAD guess density has 97.000000 electrons

 -----------------------------------------------------------------------
  General SCF calculation program by
  Eric Jon Sundstrom, Paul Horn, Yuezhi Mao, Dmitri Zuev, Alec White,
  David Stuck, Shaama M.S., Shane Yost, Joonho Lee, David Small,
  Daniel Levine, Susi Lehtola, Hugh Burton, Evgeny Epifanovsky,
  Bang C. Huynh
 -----------------------------------------------------------------------
 Hartree-Fock
 A restricted SCF calculation will be
 performed using DIIS
 SCF converges when DIIS error is below 1.0e-08
 ---------------------------------------
  Cycle       Energy         DIIS error
 ---------------------------------------
    1   -3476.6934826239      2.23e-02  
    2   -3476.7267802156      4.35e-03  
    3   -3476.8410644480      1.91e-03  
    4   -3476.8520041138      2.79e-04  
    5   -3476.8523511063      2.54e-04  
    6   -3476.8524851231      7.30e-05  
    7   -3476.8525273266      2.19e-05  
    8   -3476.8525341521      1.08e-05  
    9   -3476.8525355685      3.27e-06  
   10   -3476.8525357050      3.26e-07  
   11   -3476.8525357065      7.02e-08  
   12   -3476.8525357066      1.51e-08  
   13   -3476.8525357066      1.55e-09  Convergence criterion met
 ---------------------------------------
 SCF time:   CPU 91.56s  wall 92.00s 
 SCF   energy in the final basis set =    -3476.8525357066
 Total energy in the final basis set =    -3476.8525357066
 mp2 is not implemented in computing transition properties!


 ------------------------------------------------------------------------------

   CCMAN2: suite of methods based on coupled cluster
           and equation of motion theories.

   Components:
   * libvmm-1.3-trunk
     by Evgeny Epifanovsky, Ilya Kaliman.
   * libtensor-2.5-trunk
     by Evgeny Epifanovsky, Michael Wormit, Dmitry Zuev, Sam Manzer, 
        Ilya Kaliman.
   * libcc-2.5-trunk
     by Evgeny Epifanovsky, Arik Landau, Tomasz Kus, Kirill Khistyaev, 
        Dmitry Zuev, Prashant Manohar, Xintian Feng, Anna Krylov, 
        Matthew Goldey, Alec White, Thomas Jagau, Kaushik Nanda, 
        Anastasia Gunina, Alexander Kunitsa, Joonho Lee.

   CCMAN original authors:
   Anna I. Krylov, C. David Sherrill, Steven R. Gwaltney,
   Edward F. C. Byrd (2000)
   Sergey V. Levchenko, Lyudmila V. Slipchenko, Tao Wang,
   Ana-Maria C. Cristian (2003)
   Piotr A. Pieniazek, C. Melania Oana, Evgeny Epifanovsky (2007)
   Prashant Manohar (2009)

 ------------------------------------------------------------------------------


 Calculation will run on 1 core using libxm for tensor contractions

 ------------------------------------------------------------------------------
Libxm Tensor Library
Copyright (c) 2014-2018 Ilya Kaliman
https://github.com/ilyak/libxm
Reference: https://dx.doi.org/10.1002/jcc.24713
 ------------------------------------------------------------------------------


 Alpha MOs, Restricted
 -- Occupied --                  
-328.25 -104.26 -104.26 -104.26 -104.26  -40.28  -35.09  -35.08
  1 Ag    2 Ag    3 Ag    1 B3u   1 B2u   4 Ag    1 B1u   2 B3u                
-35.079  -9.985  -9.985  -9.985  -9.985  -7.452  -7.452  -7.452
  2 B2u   5 Ag    3 B3u   3 B2u   6 Ag    7 Ag    8 Ag    4 B3u                
 -7.452  -7.452  -7.452  -7.452  -7.452  -7.452  -7.452  -7.452
  4 B2u   2 B1u   1 B2g   1 B3g   3 B1u   1 B1g   5 B2u   2 B1g                
 -7.452  -4.479  -2.794  -2.793  -2.793  -0.521  -0.506  -0.506
  5 B3u   9 Ag    4 B1u   6 B3u   6 B2u  10 Ag    7 B3u   7 B2u                
 -0.497  -0.021  -0.003   0.005   0.021   0.021   0.047   0.047
 11 Ag   12 Ag   13 Ag    3 B1g   2 B2g   2 B3g   8 B3u   8 B2u                
  0.062   0.069   0.091   0.093   0.099   0.099   0.102   0.102
  5 B1u  14 Ag    4 B1g   6 B1u   3 B2g   3 B3g   9 B2u   9 B3u                
  0.124   0.172
  5 B1g  15 Ag                                                                 
 -- Virtual --                   
  0.548   0.729   0.769   0.792   0.796   0.797   0.797   0.867
 16 Ag   17 Ag    7 B1u  18 Ag   19 Ag    4 B2g   4 B3g  10 B3u                
  0.867   0.887   0.978   0.981   0.981   1.005   1.016   1.018
 10 B2u   6 B1g   8 B1u  11 B2u  11 B3u   7 B1g  20 Ag    5 B2g                
  1.018   1.033   1.033   1.040   1.041   1.059   1.150   1.173
  5 B3g  12 B3u  12 B2u   9 B1u  21 Ag    8 B1g   1 Au   13 B3u                
  1.173   1.187   1.187   1.201   1.202   1.202   1.205   1.212
 13 B2u  14 B3u  14 B2u   2 Au    6 B3g   6 B2g  22 Ag   10 B1u                
  1.230   1.284   1.328   1.328   1.340   1.364   1.391   1.404
 23 Ag   11 B1u   7 B2g   7 B3g   9 B1g  24 Ag   10 B1g  15 B2u                
  1.404   1.408   1.654   1.699   1.699   1.763   1.763   1.776
 15 B3u  25 Ag   26 Ag    8 B2g   8 B3g  16 B3u  16 B2u  11 B1g                
  1.810   1.911   2.208   2.602   2.602   2.606   2.632   2.665
 27 Ag   28 Ag   29 Ag   17 B3u  17 B2u   3 Au   30 Ag    9 B3g                
  2.665   2.669   2.675   2.684   2.724   2.733   2.733   2.775
  9 B2g  12 B1u   4 Au   13 B1u  31 Ag   18 B2u  18 B3u  12 B1g                
  2.776   2.776   2.793   2.795   2.801   2.801   2.820   2.883
 10 B2g  10 B3g  32 Ag   33 Ag   19 B3u  19 B2u  13 B1g  20 B3u                
  2.883   2.945   2.953   2.955   2.955   2.959   2.960   2.960
 20 B2u  14 B1u   5 Au   21 B2u  21 B3u  15 B1u  11 B2g  11 B3g                
  2.960   2.961   2.962   2.963   2.966   2.966   2.972   2.972
  6 Au   34 Ag   14 B1g  16 B1u  12 B3g  12 B2g  22 B2u  22 B3u                
  2.977   2.981   2.983   2.983   3.016   3.016   3.058   3.100
 17 B1u  15 B1g  35 Ag   16 B1g  23 B3u  23 B2u  18 B1u  13 B2g                
  3.100   3.123   3.130   3.132   3.144   3.144   3.148   3.148
 13 B3g  19 B1u  36 Ag   17 B1g  24 B2u  24 B3u  14 B2g  14 B3g                
  3.149   3.175   3.187   3.263   3.263   3.271   3.438   3.535
 37 Ag   20 B1u  18 B1g  25 B3u  25 B2u  19 B1g  38 Ag   26 B3u                
  3.535   3.847   4.594   4.851   4.851   5.010   5.230   5.520
 26 B2u  39 Ag   40 Ag   15 B2g  15 B3g  20 B1g  41 Ag   42 Ag                 
  6.875   6.877   6.879   6.879   6.879   6.922   6.922  12.008
  7 Au   21 B1u  27 B2u  27 B3u  22 B1u  28 B3u  28 B2u  23 B1u                
 12.025  12.025  12.048  12.068  12.068  12.071  12.086  12.117
 29 B2u  29 B3u  24 B1u  16 B2g  16 B3g  21 B1g  22 B1g  30 B3u                
 12.117  12.292  12.292  25.762  25.762  26.117  26.648
 30 B2u  43 Ag   44 Ag   31 B3u  31 B2u  45 Ag   46 Ag                         

 Beta MOs, Restricted
 -- Occupied --                  
-328.25 -104.26 -104.26 -104.26 -104.26  -40.28  -35.09  -35.08
  1 Ag    2 Ag    3 Ag    1 B3u   1 B2u   4 Ag    1 B1u   2 B3u                
-35.079  -9.985  -9.985  -9.985  -9.985  -7.452  -7.452  -7.452
  2 B2u   5 Ag    3 B3u   3 B2u   6 Ag    7 Ag    8 Ag    4 B3u                
 -7.452  -7.452  -7.452  -7.452  -7.452  -7.452  -7.452  -7.452
  4 B2u   2 B1u   1 B2g   1 B3g   3 B1u   1 B1g   5 B2u   2 B1g                
 -7.452  -4.479  -2.794  -2.793  -2.793  -0.521  -0.506  -0.506
  5 B3u   9 Ag    4 B1u   6 B3u   6 B2u  10 Ag    7 B3u   7 B2u                
 -0.497  -0.021  -0.003   0.005   0.021   0.021   0.047   0.047
 11 Ag   12 Ag   13 Ag    3 B1g   2 B2g   2 B3g   8 B3u   8 B2u                
  0.062   0.069   0.091   0.093   0.099   0.099   0.102   0.102
  5 B1u  14 Ag    4 B1g   6 B1u   3 B2g   3 B3g   9 B2u   9 B3u                
  0.124   0.172
  5 B1g  15 Ag                                                                 
 -- Virtual --                   
  0.548   0.729   0.769   0.792   0.796   0.797   0.797   0.867
 16 Ag   17 Ag    7 B1u  18 Ag   19 Ag    4 B2g   4 B3g  10 B3u                
  0.867   0.887   0.978   0.981   0.981   1.005   1.016   1.018
 10 B2u   6 B1g   8 B1u  11 B2u  11 B3u   7 B1g  20 Ag    5 B2g                
  1.018   1.033   1.033   1.040   1.041   1.059   1.150   1.173
  5 B3g  12 B3u  12 B2u   9 B1u  21 Ag    8 B1g   1 Au   13 B3u                
  1.173   1.187   1.187   1.201   1.202   1.202   1.205   1.212
 13 B2u  14 B3u  14 B2u   2 Au    6 B3g   6 B2g  22 Ag   10 B1u                
  1.230   1.284   1.328   1.328   1.340   1.364   1.391   1.404
 23 Ag   11 B1u   7 B2g   7 B3g   9 B1g  24 Ag   10 B1g  15 B2u                
  1.404   1.408   1.654   1.699   1.699   1.763   1.763   1.776
 15 B3u  25 Ag   26 Ag    8 B2g   8 B3g  16 B3u  16 B2u  11 B1g                
  1.810   1.911   2.208   2.602   2.602   2.606   2.632   2.665
 27 Ag   28 Ag   29 Ag   17 B3u  17 B2u   3 Au   30 Ag    9 B3g                
  2.665   2.669   2.675   2.684   2.724   2.733   2.733   2.775
  9 B2g  12 B1u   4 Au   13 B1u  31 Ag   18 B2u  18 B3u  12 B1g                
  2.776   2.776   2.793   2.795   2.801   2.801   2.820   2.883
 10 B2g  10 B3g  32 Ag   33 Ag   19 B3u  19 B2u  13 B1g  20 B3u                
  2.883   2.945   2.953   2.955   2.955   2.959   2.960   2.960
 20 B2u  14 B1u   5 Au   21 B2u  21 B3u  15 B1u  11 B2g  11 B3g                
  2.960   2.961   2.962   2.963   2.966   2.966   2.972   2.972
  6 Au   34 Ag   14 B1g  16 B1u  12 B3g  12 B2g  22 B2u  22 B3u                
  2.977   2.981   2.983   2.983   3.016   3.016   3.058   3.100
 17 B1u  15 B1g  35 Ag   16 B1g  23 B3u  23 B2u  18 B1u  13 B2g                
  3.100   3.123   3.130   3.132   3.144   3.144   3.148   3.148
 13 B3g  19 B1u  36 Ag   17 B1g  24 B2u  24 B3u  14 B2g  14 B3g                
  3.149   3.175   3.187   3.263   3.263   3.271   3.438   3.535
 37 Ag   20 B1u  18 B1g  25 B3u  25 B2u  19 B1g  38 Ag   26 B3u                
  3.535   3.847   4.594   4.851   4.851   5.010   5.230   5.520
 26 B2u  39 Ag   40 Ag   15 B2g  15 B3g  20 B1g  41 Ag   42 Ag                 
  6.875   6.877   6.879   6.879   6.879   6.922   6.922  12.008
  7 Au   21 B1u  27 B2u  27 B3u  22 B1u  28 B3u  28 B2u  23 B1u                
 12.025  12.025  12.048  12.068  12.068  12.071  12.086  12.117
 29 B2u  29 B3u  24 B1u  16 B2g  16 B3g  21 B1g  22 B1g  30 B3u                
 12.117  12.292  12.292  25.762  25.762  26.117  26.648
 30 B2u  43 Ag   44 Ag   31 B3u  31 B2u  45 Ag   46 Ag                         

 Occupation and symmetry of molecular orbitals

 Point group: D2h (8 irreducible representations).

                           Ag   B1g  B2g  B3g  Au   B1u  B2u  B3u   All 
 ------------------------------------------------------------------------
 All molecular orbitals:
  - Alpha                  46   22   16   16   7    24   31   31    193 
  - Beta                   46   22   16   16   7    24   31   31    193 
 ------------------------------------------------------------------------
 Alpha orbitals:
  - Frozen occupied        9    2    1    1    0    4    6    6     29  
  - Active occupied        6    3    2    2    0    2    3    3     21  
  - Active virtual         31   17   13   13   7    18   22   22    143 
  - Frozen virtual         0    0    0    0    0    0    0    0     0   
 ------------------------------------------------------------------------
 Beta orbitals:
  - Frozen occupied        9    2    1    1    0    4    6    6     29  
  - Active occupied        6    3    2    2    0    2    3    3     21  
  - Active virtual         31   17   13   13   7    18   22   22    143 
  - Frozen virtual         0    0    0    0    0    0    0    0     0   
 ------------------------------------------------------------------------

 Import integrals:   CPU 0.00 s  wall 0.00 s

      Cholesky decomposition of two-electron integrals.
      with threshold: 1.0000000000e-03

      Initial pre-allocated memory: 4 (GB)
 ------------------------------------------------------------------------------
    Rank   Residual
 ------------------------------------------------------------------------------
       1  10.43452195012097
       5  2.70922302664831
      10  0.91747010228400
      45  0.27543697981911
     130  0.06476693726749
     354  0.01737757727204
     585  0.00434584984939
     765  0.00108819035623
     770  0.00099774917767
 ------------------------------------------------------------------------------
      The final rank of CD vector is 770
      The final allocated memory: 4 (GB)
 Cholesky decomposition time:   CPU 65.26 s  wall 65.27 s
 Import integrals:   CPU 103.42 s  wall 103.46 s

 Computing CCSD intermediates for later calculations in double precision
 Finished.

 MP2 amplitudes:   CPU 22.56 s  wall 22.64 s

        Solving for EOMIP-CCSD Ag transitions.

Running a double precision version
      CD-EOMIP-CCSD/MP2 right amplitudes will be solved using Davidson.
        Amplitudes will be solved using standard  algorithm.
     Hard-coded thresholds: 
     LinDepThresh=1.00e-15  NormThresh=1.00e-06  ReorthogonThresh=1.00e-02

      Roots     MaxVec    MaxIter   Precond   Conv      Shift    
      3         120       60        1         1.00e-05  0.00e+00  
 ------------------------------------------------------------------------------
      Iter ConvRoots NVecs ResNorm^2 Current eigenvalues (eV)
 ------------------------------------------------------------------------------
      0    0      3     2.29e-01   -2.6262   0.1753   1.8829   
      1    0      6     1.20e-01   -5.2656   -3.4266   -0.3019   
      2    0      9     3.82e-03   -6.6243   -4.8795   -1.1163   
      3    0      12    9.67e-04   -6.8519   -4.9237   -1.1371   
      4    0      15    9.40e-05   -6.8679   -4.9272   -1.1390   
      5    1      18    6.89e-03   -6.8812   -4.9282*  -1.7307   
      6    2      20    4.09e-04   -6.8819*  -4.9282*  -2.0761   
      7    2      21    4.80e-05   -6.8819*  -4.9282*  -2.1036   
      8    2      22    5.27e-06   -6.8819*  -4.9282*  -2.1065   
      9    3      23    1.36e-06   -6.8819*  -4.9282*  -2.1065*  

     Davidson procedure converged

 EOMIP transition 1/Ag
 Total energy = -3478.33278668 a.u.  Excitation energy = -6.8819 eV.
 R1^2 = 0.9262  R2^2 = 0.0738  Res^2 = 5.16e-07
 Conv-d = yes

 Amplitude    Transitions between orbitals
 -0.9080       15 (Ag) A                 ->    infty        
  0.3189       12 (Ag) A                 ->    infty        
  0.0030       11 (Ag) A                 ->    infty        

              Summary of significant orbitals:

               Number  Type             Irrep      Energy
               33      Occ  Alpha      11 (Ag)     -0.4971
               34      Occ  Alpha      12 (Ag)     -0.0206
               50      Occ  Alpha      15 (Ag)      0.1716


 EOMIP transition 2/Ag
 Total energy = -3478.26098860 a.u.  Excitation energy = -4.9282 eV.
 R1^2 = 0.9189  R2^2 = 0.0811  Res^2 = 2.15e-06
 Conv-d = yes

 Amplitude    Transitions between orbitals
 -0.9083       14 (Ag) A                 ->    infty        
 -0.3065       13 (Ag) A                 ->    infty        
 -0.0043       10 (Ag) A                 ->    infty        

              Summary of significant orbitals:

               Number  Type             Irrep      Energy
               30      Occ  Alpha      10 (Ag)     -0.5209
               35      Occ  Alpha      13 (Ag)     -0.0027
               42      Occ  Alpha      14 (Ag)      0.0690


 EOMIP transition 3/Ag
 Total energy = -3478.15729406 a.u.  Excitation energy = -2.1065 eV.
 R1^2 = 0.9241  R2^2 = 0.0759  Res^2 = 1.42e-06
 Conv-d = yes

 Amplitude    Transitions between orbitals
  0.9013       12 (Ag) A                 ->    infty        
  0.3339       15 (Ag) A                 ->    infty        
  0.0132       11 (Ag) A                 ->    infty        
  0.0001       13 (Ag) A                 ->    infty        

              Summary of significant orbitals:

               Number  Type             Irrep      Energy
               33      Occ  Alpha      11 (Ag)     -0.4971
               34      Occ  Alpha      12 (Ag)     -0.0206
               35      Occ  Alpha      13 (Ag)     -0.0027
               50      Occ  Alpha      15 (Ag)      0.1716


Running a double precision version
      CD-EOMIP-CCSD/MP2 left amplitudes will be solved using Davidson.
        Amplitudes will be solved using MOM  algorithm.
     Hard-coded thresholds: 
     LinDepThresh=1.00e-15  NormThresh=1.00e-06  ReorthogonThresh=1.00e-02

      Roots     MaxVec    MaxIter   Precond   Conv      Shift    
      3         120       60        1         1.00e-05  0.00e+00  
 ------------------------------------------------------------------------------
      Iter ConvRoots NVecs ResNorm^2 Current eigenvalues (eV)
 ------------------------------------------------------------------------------
      0    0      3     4.36e-02   -6.8819   -4.9282   -2.1065   
      1    0      6     9.70e-03   -6.8818   -4.9283   -2.1065   
      2    0      9     2.03e-04   -6.8818   -4.9283   -2.1066   
      3    0      12    1.54e-05   -6.8818   -4.9283   -2.1066   
      4    3      15    9.50e-07   -6.8819*  -4.9283*  -2.1066*  

     Davidson procedure converged

 EOMIP-CCSD transition 1/Ag
S^2 calculation will be performed in  double precision
 EOMIP-CCSD transition 2/Ag
S^2 calculation will be performed in  double precision
 EOMIP-CCSD transition 3/Ag
S^2 calculation will be performed in  double precision
 Excited state properties for  EOMIP-CCSD transition 1/Ag
 Dipole moment (a.u.): 0.000000 (X 0.000000, Y 0.000000, Z 0.000000)
 R-squared (a.u.): 1512.205234 (XX 729.728362, YY 729.727973, ZZ 52.748899)
 Gauge origin (a.u.): (0.000000, 0.000000, 0.000000)
 Angular momentum (a.u.) against gauge origin: 
 (X 0.000000i, Y 0.000000i, Z 0.000000i)
 Traces of the OPDMs: Tr(AA) 49.000000, Tr(BB) 50.000000
 <S^2> = 0.750000
 Density matrix was written to a file for further analysis.

State OPDM analysis using libwa module will be excecuted
 Created directory /scratch/sven/qchem26253/plots
 NOs (alpha)
   Occupation of frontier NOs:
      0.0322   0.9825
   Number of electrons: 49.000000
 NOs (beta)
   Occupation of frontier NOs:
      0.0019   0.9982
   Number of electrons: 50.000000
 NOs (spin-traced)
   Occupation of frontier NOs:
      1.0304   1.9810
   Number of electrons: 99.000000
   Number of unpaired electrons: n_u =  1.02968, n_u,nl =  0.99996
   NO participation ratio (PR_NO):  1.127106
 
 Mulliken Population Analysis
 Atom      Charge (e)        Spin (e)
 ------------------------------------
 1 Cu        0.969046        0.610380
 2 Cl       -0.742251        0.097400
 3 Cl       -0.742272        0.097410
 4 Cl       -0.742272        0.097410
 5 Cl       -0.742251        0.097400
 ------------------------------------
 Sum:       -2.000000        1.000000
 
 Multipole moment analysis of the density matrix
   Molecular charge:                      -2.000000
   Number of electrons:                   99.000000
     Center of electronic charge [Ang]: [ -0.000000,   0.000000,   0.000000]
   Total nuclear charge:                  97.000000
     Center of nuclear charge [Ang]:    [  0.000000,   0.000000,   0.000000]
   Dipole moment [D]:                     0.000000
     Cartesian components [D]:          [  0.000000,  -0.000000,  -0.000000]
   RMS size of the density [Ang]:         2.068183
     Cartesian components [Ang]:        [  1.436694,   1.436693,   0.386269]
 

 Excited state properties for  EOMIP-CCSD transition 2/Ag
 Dipole moment (a.u.): 0.000000 (X 0.000000, Y 0.000000, Z 0.000000)
 R-squared (a.u.): 1517.254321 (XX 732.445564, YY 732.445271, ZZ 52.363486)
 Gauge origin (a.u.): (0.000000, 0.000000, 0.000000)
 Angular momentum (a.u.) against gauge origin: 
 (X 0.000000i, Y 0.000000i, Z 0.000000i)
 Traces of the OPDMs: Tr(AA) 49.000000, Tr(BB) 50.000000
 <S^2> = 0.750000

State OPDM analysis using libwa module will be excecuted
 NOs (alpha)
   Occupation of frontier NOs:
      0.0046   0.9995
   Number of electrons: 49.000000
 NOs (beta)
   Occupation of frontier NOs:
      0.0001   0.9999
   Number of electrons: 50.000000
 NOs (spin-traced)
   Occupation of frontier NOs:
      1.0055   1.9998
   Number of electrons: 99.000000
   Number of unpaired electrons: n_u =  0.96063, n_u,nl =  1.00027
   NO participation ratio (PR_NO):  0.933061
 
 Mulliken Population Analysis
 Atom      Charge (e)        Spin (e)
 ------------------------------------
 1 Cu        1.177291        0.979090
 2 Cl       -0.794308        0.005228
 3 Cl       -0.794338        0.005227
 4 Cl       -0.794338        0.005227
 5 Cl       -0.794308        0.005228
 ------------------------------------
 Sum:       -2.000000        1.000000
 
 Multipole moment analysis of the density matrix
   Molecular charge:                      -2.000000
   Number of electrons:                   99.000000
     Center of electronic charge [Ang]: [ -0.000000,   0.000000,   0.000000]
   Total nuclear charge:                  97.000000
     Center of nuclear charge [Ang]:    [  0.000000,   0.000000,   0.000000]
   Dipole moment [D]:                     0.000000
     Cartesian components [D]:          [  0.000000,  -0.000000,  -0.000000]
   RMS size of the density [Ang]:         2.071633
     Cartesian components [Ang]:        [  1.439366,   1.439366,   0.384856]
 

 Excited state properties for  EOMIP-CCSD transition 3/Ag
 Dipole moment (a.u.): 0.000000 (X 0.000000, Y 0.000000, Z 0.000000)
 R-squared (a.u.): 1508.865781 (XX 728.118391, YY 728.114097, ZZ 52.633293)
 Gauge origin (a.u.): (0.000000, 0.000000, 0.000000)
 Angular momentum (a.u.) against gauge origin: 
 (X 0.000000i, Y 0.000000i, Z 0.000000i)
 Traces of the OPDMs: Tr(AA) 49.000000, Tr(BB) 50.000000
 <S^2> = 0.750000

State OPDM analysis using libwa module will be excecuted
 NOs (alpha)
   Occupation of frontier NOs:
      0.0674   0.9725
   Number of electrons: 49.000000
 NOs (beta)
   Occupation of frontier NOs:
      0.0064   0.9934
   Number of electrons: 50.000000
 NOs (spin-traced)
   Occupation of frontier NOs:
      1.0657   1.9665
   Number of electrons: 99.000000
   Number of unpaired electrons: n_u =  1.12180, n_u,nl =  0.99964
   NO participation ratio (PR_NO):  1.438092
 
 Mulliken Population Analysis
 Atom      Charge (e)        Spin (e)
 ------------------------------------
 1 Cu        0.784012        0.340200
 2 Cl       -0.696049        0.164899
 3 Cl       -0.695957        0.165001
 4 Cl       -0.695957        0.165001
 5 Cl       -0.696049        0.164899
 ------------------------------------
 Sum:       -2.000000        1.000000
 
 Multipole moment analysis of the density matrix
   Molecular charge:                      -2.000000
   Number of electrons:                   99.000000
     Center of electronic charge [Ang]: [ -0.000000,   0.000000,   0.000000]
   Total nuclear charge:                  97.000000
     Center of nuclear charge [Ang]:    [  0.000000,   0.000000,   0.000000]
   Dipole moment [D]:                     0.000000
     Cartesian components [D]:          [  0.000000,  -0.000000,  -0.000000]
   RMS size of the density [Ang]:         2.065898
     Cartesian components [Ang]:        [  1.435108,   1.435104,   0.385846]
 

        Solving for EOMIP-CCSD B1g transitions.

Warning! Not enough singles to form guess subspace. Doubles guess vectors will be generated.
In case of poor EOM convergence, reduce requested IP_STATES.

Running a double precision version
      CD-EOMIP-CCSD/MP2 right amplitudes will be solved using Davidson.
        Amplitudes will be solved using standard  algorithm.
     Hard-coded thresholds: 
     LinDepThresh=1.00e-15  NormThresh=1.00e-06  ReorthogonThresh=1.00e-02

      Roots     MaxVec    MaxIter   Precond   Conv      Shift    
      8         120       60        1         1.00e-05  0.00e+00  
 ------------------------------------------------------------------------------
      Iter ConvRoots NVecs ResNorm^2 Current eigenvalues (eV)
 ------------------------------------------------------------------------------
      0    0      8     8.18e-02   -1.7028   -0.5748   1.6331   19.0800   23.3627   25.7349   30.9324   33.8044   
      1    0      16    9.43e-02   -3.9573   -3.5193   -1.0726   18.2350   22.3749   25.4133   29.2295   33.1270   
      2    0      24    4.17e-02   -5.3933   -4.1289   -1.8451   15.0944   17.0247   18.1478   20.5214   21.5028   
      3    0      32    2.76e-02   -5.4317   -4.1374   -1.8629   11.4724   12.6218   12.7014   13.6163   14.2348   
      4    2      40    1.61e-02   -5.4347   -4.1377*  -1.8644*  9.0711   9.8819   9.9046   11.3440   11.8175   
      5    3      46    7.54e-03   -5.4355*  -4.1377*  -1.8645*  6.9531   7.3791   8.3607   8.9719   10.4774   
      6    3      51    5.13e-03   -5.4355*  -4.1377*  -1.8646*  6.3889   6.6212   7.9759   8.4176   8.6252   
      7    3      56    2.54e-03   -5.4355*  -4.1377*  -1.8646*  6.2033   6.3907   6.9717   7.7547   8.0869   
      8    3      61    1.48e-03   -5.4355*  -4.1377*  -1.8646*  6.1350   6.2467   6.5317   7.5782   7.6841   
      9    3      66    7.17e-04   -5.4355*  -4.1377*  -1.8646*  6.1049   6.1358   6.4065   7.4002   7.5040   
      10   3      71    3.01e-04   -5.4355*  -4.1377*  -1.8646*  6.0742   6.1048   6.3788   7.2754   7.4615   
      11   3      76    1.74e-04   -5.4355*  -4.1377*  -1.8646*  6.0519   6.1001   6.3712   7.2054   7.4422   
      12   4      81    9.92e-05   -5.4355*  -4.1377*  -1.8646*  6.0405   6.0991*  6.3684   7.1560   7.4323   
      13   5      85    4.46e-05   -5.4355*  -4.1377*  -1.8646*  6.0369   6.0990*  6.3676*  7.1292   7.4273   
      14   6      88    2.46e-05   -5.4355*  -4.1377*  -1.8646*  6.0362*  6.0989*  6.3674*  7.1171   7.4248   
      15   6      90    1.69e-05   -5.4355*  -4.1377*  -1.8646*  6.0362*  6.0989*  6.3674*  7.1094   7.4231   
      16   6      92    1.64e-05   -5.4355*  -4.1377*  -1.8646*  6.0361*  6.0989*  6.3674*  7.1031   7.4217   
      17   6      94    1.08e-05   -5.4355*  -4.1377*  -1.8646*  6.0361*  6.0989*  6.3674*  7.0981   7.4204   
      18   6      96    7.72e-06   -5.4355*  -4.1377*  -1.8646*  6.0361*  6.0989*  6.3674*  7.0955   7.4195   
      19   6      98    5.70e-06   -5.4355*  -4.1377*  -1.8646*  6.0361*  6.0989*  6.3674*  7.0940   7.4187   
      20   7      100   4.90e-06   -5.4355*  -4.1377*  -1.8646*  6.0361*  6.0989*  6.3674*  7.0932*  7.4180   
      21   8      101   3.91e-06   -5.4355*  -4.1377*  -1.8646*  6.0361*  6.0989*  6.3673*  7.0928*  7.4174*  

     Davidson procedure converged

 EOMIP transition 1/B1g
 Total energy = -3478.27963216 a.u.  Excitation energy = -5.4355 eV.
 R1^2 = 0.9187  R2^2 = 0.0813  Res^2 = 9.36e-07
 Conv-d = yes

 Amplitude    Transitions between orbitals
  0.8559       4 (B1g) A                 ->    infty        
  0.4313       3 (B1g) A                 ->    infty        

              Summary of significant orbitals:

               Number  Type             Irrep      Energy
               36      Occ  Alpha       3 (B1g)      0.0050
               43      Occ  Alpha       4 (B1g)      0.0911


 EOMIP transition 2/B1g
 Total energy = -3478.23194054 a.u.  Excitation energy = -4.1377 eV.
 R1^2 = 0.9369  R2^2 = 0.0631  Res^2 = 1.29e-06
 Conv-d = yes

 Amplitude    Transitions between orbitals
  0.9679       5 (B1g) A                 ->    infty        

              Summary of significant orbitals:

               Number  Type             Irrep      Energy
               49      Occ  Alpha       5 (B1g)      0.1235


 EOMIP transition 3/B1g
 Total energy = -3478.14840405 a.u.  Excitation energy = -1.8646 eV.
 R1^2 = 0.9313  R2^2 = 0.0687  Res^2 = 3.00e-06
 Conv-d = yes

 Amplitude    Transitions between orbitals
 -0.8584       3 (B1g) A                 ->    infty        
  0.4411       4 (B1g) A                 ->    infty        

              Summary of significant orbitals:

               Number  Type             Irrep      Energy
               36      Occ  Alpha       3 (B1g)      0.0050
               43      Occ  Alpha       4 (B1g)      0.0911


 EOMIP transition 4/B1g
 Total energy = -3477.85805797 a.u.  Excitation energy = 6.0361 eV.
 R1^2 = 0.0000  R2^2 = 1.0000  Res^2 = 5.03e-06
 Conv-d = yes

 Amplitude    Transitions between orbitals
 -0.4911       5 (B1g) A     15 (Ag) B   ->    16 (Ag) B    
  0.4911       15 (Ag) B     5 (B1g) A   ->    16 (Ag) B    
 -0.4909       15 (Ag) A     5 (B1g) A   ->    16 (Ag) A    
  0.4909       5 (B1g) A     15 (Ag) A   ->    16 (Ag) A    
  0.4899       15 (Ag) A     5 (B1g) B   ->    16 (Ag) B    
 -0.4899       5 (B1g) B     15 (Ag) A   ->    16 (Ag) B    
 -0.1513       15 (Ag) A     5 (B1g) A   ->    19 (Ag) A    
  0.1513       5 (B1g) A     15 (Ag) A   ->    19 (Ag) A    
  0.1506       15 (Ag) A     5 (B1g) B   ->    19 (Ag) B    
 -0.1506       5 (B1g) B     15 (Ag) A   ->    19 (Ag) B    
 -0.1504       5 (B1g) A     15 (Ag) B   ->    19 (Ag) B    
  0.1504       15 (Ag) B     5 (B1g) A   ->    19 (Ag) B    
 -0.1246       15 (Ag) A     5 (B1g) A   ->    17 (Ag) A    
  0.1246       5 (B1g) A     15 (Ag) A   ->    17 (Ag) A    
  0.1240       15 (Ag) A     5 (B1g) B   ->    17 (Ag) B    
 -0.1240       5 (B1g) B     15 (Ag) A   ->    17 (Ag) B    
 -0.1237       5 (B1g) A     15 (Ag) B   ->    17 (Ag) B    
  0.1237       15 (Ag) B     5 (B1g) A   ->    17 (Ag) B    
  0.1220       9 (B3u) A     8 (B2u) B   ->    16 (Ag) B    
 -0.1220       8 (B2u) B     9 (B3u) A   ->    16 (Ag) B    
 -0.1219       8 (B3u) A     9 (B2u) B   ->    16 (Ag) B    
  0.1219       9 (B2u) B     8 (B3u) A   ->    16 (Ag) B    
  0.1218       9 (B2u) A     8 (B3u) B   ->    16 (Ag) B    
 -0.1218       8 (B3u) B     9 (B2u) A   ->    16 (Ag) B    
  0.1216       8 (B2u) A     9 (B3u) A   ->    16 (Ag) A    
 -0.1216       9 (B3u) A     8 (B2u) A   ->    16 (Ag) A    
 -0.1213       8 (B2u) A     9 (B3u) B   ->    16 (Ag) B    
  0.1213       9 (B3u) B     8 (B2u) A   ->    16 (Ag) B    
 -0.1211       9 (B2u) A     8 (B3u) A   ->    16 (Ag) A    
  0.1211       8 (B3u) A     9 (B2u) A   ->    16 (Ag) A    

              Summary of significant orbitals:

               Number  Type             Irrep      Energy
               50      Occ  Alpha      15 (Ag)      0.1716
               49      Occ  Alpha       5 (B1g)      0.1235
               40      Occ  Alpha       8 (B2u)      0.0467
               47      Occ  Alpha       9 (B2u)      0.1017
               39      Occ  Alpha       8 (B3u)      0.0467
               48      Occ  Alpha       9 (B3u)      0.1017
               50      Occ  Beta       15 (Ag)      0.1716
               49      Occ  Beta        5 (B1g)      0.1235
               40      Occ  Beta        8 (B2u)      0.0467
               47      Occ  Beta        9 (B2u)      0.1017
               39      Occ  Beta        8 (B3u)      0.0467
               48      Occ  Beta        9 (B3u)      0.1017
               51      Vir  Alpha      16 (Ag)      0.5482
               52      Vir  Alpha      17 (Ag)      0.7294
               55      Vir  Alpha      19 (Ag)      0.7963
               51      Vir  Beta       16 (Ag)      0.5482
               52      Vir  Beta       17 (Ag)      0.7294
               55      Vir  Beta       19 (Ag)      0.7963


 EOMIP transition 5/B1g
 Total energy = -3477.85574942 a.u.  Excitation energy = 6.0989 eV.
 R1^2 = 0.0002  R2^2 = 0.9998  Res^2 = 4.47e-06
 Conv-d = yes

 Amplitude    Transitions between orbitals
  0.6206       15 (Ag) A     5 (B1g) B   ->    16 (Ag) B    
 -0.6206       5 (B1g) B     15 (Ag) A   ->    16 (Ag) B    
  0.5568       5 (B1g) A     15 (Ag) B   ->    16 (Ag) B    
 -0.5568       15 (Ag) B     5 (B1g) A   ->    16 (Ag) B    
  0.2599       9 (B3u) A     9 (B2u) B   ->    16 (Ag) B    
 -0.2599       9 (B2u) B     9 (B3u) A   ->    16 (Ag) B    
  0.2587       9 (B2u) A     9 (B3u) B   ->    16 (Ag) B    
 -0.2587       9 (B3u) B     9 (B2u) A   ->    16 (Ag) B    
  0.1618       15 (Ag) A     5 (B1g) B   ->    19 (Ag) B    
 -0.1618       5 (B1g) B     15 (Ag) A   ->    19 (Ag) B    
  0.1419       5 (B1g) A     15 (Ag) B   ->    19 (Ag) B    
 -0.1419       15 (Ag) B     5 (B1g) A   ->    19 (Ag) B    
  0.1410       15 (Ag) A     5 (B1g) B   ->    17 (Ag) B    
 -0.1410       5 (B1g) B     15 (Ag) A   ->    17 (Ag) B    
  0.1195       5 (B1g) A     15 (Ag) B   ->    17 (Ag) B    
 -0.1195       15 (Ag) B     5 (B1g) A   ->    17 (Ag) B    

              Summary of significant orbitals:

               Number  Type             Irrep      Energy
               50      Occ  Alpha      15 (Ag)      0.1716
               49      Occ  Alpha       5 (B1g)      0.1235
               47      Occ  Alpha       9 (B2u)      0.1017
               48      Occ  Alpha       9 (B3u)      0.1017
               50      Occ  Beta       15 (Ag)      0.1716
               49      Occ  Beta        5 (B1g)      0.1235
               47      Occ  Beta        9 (B2u)      0.1017
               48      Occ  Beta        9 (B3u)      0.1017
               51      Vir  Beta       16 (Ag)      0.5482
               52      Vir  Beta       17 (Ag)      0.7294
               55      Vir  Beta       19 (Ag)      0.7963


 EOMIP transition 6/B1g
 Total energy = -3477.84588532 a.u.  Excitation energy = 6.3673 eV.
 R1^2 = 0.0005  R2^2 = 0.9995  Res^2 = 2.68e-06
 Conv-d = yes

 Amplitude    Transitions between orbitals
  0.7173       15 (Ag) A     5 (B1g) A   ->    16 (Ag) A    
 -0.7173       5 (B1g) A     15 (Ag) A   ->    16 (Ag) A    
 -0.4134       5 (B1g) A     15 (Ag) B   ->    16 (Ag) B    
  0.4134       15 (Ag) B     5 (B1g) A   ->    16 (Ag) B    
  0.3046       15 (Ag) A     5 (B1g) B   ->    16 (Ag) B    
 -0.3046       5 (B1g) B     15 (Ag) A   ->    16 (Ag) B    
 -0.1864       8 (B2u) A     9 (B3u) A   ->    16 (Ag) A    
  0.1864       9 (B3u) A     8 (B2u) A   ->    16 (Ag) A    
  0.1859       9 (B2u) A     8 (B3u) A   ->    16 (Ag) A    
 -0.1859       8 (B3u) A     9 (B2u) A   ->    16 (Ag) A    
  0.1498       15 (Ag) A     5 (B1g) A   ->    19 (Ag) A    
 -0.1498       5 (B1g) A     15 (Ag) A   ->    19 (Ag) A    
  0.1408       15 (Ag) A     5 (B1g) A   ->    17 (Ag) A    
 -0.1408       5 (B1g) A     15 (Ag) A   ->    17 (Ag) A    

              Summary of significant orbitals:

               Number  Type             Irrep      Energy
               50      Occ  Alpha      15 (Ag)      0.1716
               49      Occ  Alpha       5 (B1g)      0.1235
               40      Occ  Alpha       8 (B2u)      0.0467
               47      Occ  Alpha       9 (B2u)      0.1017
               39      Occ  Alpha       8 (B3u)      0.0467
               48      Occ  Alpha       9 (B3u)      0.1017
               50      Occ  Beta       15 (Ag)      0.1716
               49      Occ  Beta        5 (B1g)      0.1235
               51      Vir  Alpha      16 (Ag)      0.5482
               52      Vir  Alpha      17 (Ag)      0.7294
               55      Vir  Alpha      19 (Ag)      0.7963
               51      Vir  Beta       16 (Ag)      0.5482


 EOMIP transition 7/B1g
 Total energy = -3477.81922444 a.u.  Excitation energy = 7.0928 eV.
 R1^2 = 0.0000  R2^2 = 1.0000  Res^2 = 5.18e-06
 Conv-d = yes

 Amplitude    Transitions between orbitals
 -0.3810       15 (Ag) A     4 (B1g) A   ->    16 (Ag) A    
  0.3810       4 (B1g) A     15 (Ag) A   ->    16 (Ag) A    
 -0.3722       4 (B1g) A     15 (Ag) B   ->    16 (Ag) B    
  0.3722       15 (Ag) B     4 (B1g) A   ->    16 (Ag) B    
  0.3658       15 (Ag) A     4 (B1g) B   ->    16 (Ag) B    
 -0.3658       4 (B1g) B     15 (Ag) A   ->    16 (Ag) B    
  0.3024       9 (B2u) A     9 (B3u) A   ->    16 (Ag) A    
 -0.3024       9 (B3u) A     9 (B2u) A   ->    16 (Ag) A    
 -0.2928       9 (B2u) A     9 (B3u) B   ->    16 (Ag) B    
  0.2928       9 (B3u) B     9 (B2u) A   ->    16 (Ag) B    
  0.2928       9 (B3u) A     9 (B2u) B   ->    16 (Ag) B    
 -0.2928       9 (B2u) B     9 (B3u) A   ->    16 (Ag) B    
  0.1960       15 (Ag) A     3 (B1g) A   ->    16 (Ag) A    
 -0.1960       3 (B1g) A     15 (Ag) A   ->    16 (Ag) A    
  0.1904       3 (B1g) A     15 (Ag) B   ->    16 (Ag) B    
 -0.1904       15 (Ag) B     3 (B1g) A   ->    16 (Ag) B    
 -0.1883       15 (Ag) A     3 (B1g) B   ->    16 (Ag) B    
  0.1883       3 (B1g) B     15 (Ag) A   ->    16 (Ag) B    
 -0.1314       15 (Ag) A     4 (B1g) A   ->    19 (Ag) A    
  0.1314       4 (B1g) A     15 (Ag) A   ->    19 (Ag) A    
 -0.1294       4 (B1g) A     15 (Ag) B   ->    19 (Ag) B    
  0.1294       15 (Ag) B     4 (B1g) A   ->    19 (Ag) B    
  0.1269       15 (Ag) A     4 (B1g) B   ->    19 (Ag) B    
 -0.1269       4 (B1g) B     15 (Ag) A   ->    19 (Ag) B    
 -0.1115       15 (Ag) A     4 (B1g) A   ->    17 (Ag) A    
  0.1115       4 (B1g) A     15 (Ag) A   ->    17 (Ag) A    
 -0.1093       4 (B1g) A     15 (Ag) B   ->    17 (Ag) B    
  0.1093       15 (Ag) B     4 (B1g) A   ->    17 (Ag) B    
  0.1074       15 (Ag) A     4 (B1g) B   ->    17 (Ag) B    
 -0.1074       4 (B1g) B     15 (Ag) A   ->    17 (Ag) B    

              Summary of significant orbitals:

               Number  Type             Irrep      Energy
               50      Occ  Alpha      15 (Ag)      0.1716
               36      Occ  Alpha       3 (B1g)      0.0050
               43      Occ  Alpha       4 (B1g)      0.0911
               47      Occ  Alpha       9 (B2u)      0.1017
               48      Occ  Alpha       9 (B3u)      0.1017
               50      Occ  Beta       15 (Ag)      0.1716
               36      Occ  Beta        3 (B1g)      0.0050
               43      Occ  Beta        4 (B1g)      0.0911
               47      Occ  Beta        9 (B2u)      0.1017
               48      Occ  Beta        9 (B3u)      0.1017
               51      Vir  Alpha      16 (Ag)      0.5482
               52      Vir  Alpha      17 (Ag)      0.7294
               55      Vir  Alpha      19 (Ag)      0.7963
               51      Vir  Beta       16 (Ag)      0.5482
               52      Vir  Beta       17 (Ag)      0.7294
               55      Vir  Beta       19 (Ag)      0.7963


 EOMIP transition 8/B1g
 Total energy = -3477.80729674 a.u.  Excitation energy = 7.4174 eV.
 R1^2 = 0.0001  R2^2 = 0.9999  Res^2 = 8.68e-06
 Conv-d = yes

 Amplitude    Transitions between orbitals
  0.5442       4 (B1g) A     15 (Ag) B   ->    16 (Ag) B    
 -0.5442       15 (Ag) B     4 (B1g) A   ->    16 (Ag) B    
  0.4227       15 (Ag) A     4 (B1g) B   ->    16 (Ag) B    
 -0.4227       4 (B1g) B     15 (Ag) A   ->    16 (Ag) B    
 -0.2928       3 (B1g) A     15 (Ag) B   ->    16 (Ag) B    
  0.2928       15 (Ag) B     3 (B1g) A   ->    16 (Ag) B    
 -0.2127       15 (Ag) A     3 (B1g) B   ->    16 (Ag) B    
  0.2127       3 (B1g) B     15 (Ag) A   ->    16 (Ag) B    
 -0.2006       9 (B2u) A     8 (B3u) B   ->    16 (Ag) B    
  0.2006       8 (B3u) B     9 (B2u) A   ->    16 (Ag) B    
  0.1980       9 (B3u) A     8 (B2u) B   ->    16 (Ag) B    
 -0.1980       8 (B2u) B     9 (B3u) A   ->    16 (Ag) B    
  0.1867       8 (B2u) A     9 (B3u) B   ->    16 (Ag) B    
 -0.1867       9 (B3u) B     8 (B2u) A   ->    16 (Ag) B    
 -0.1850       8 (B3u) A     9 (B2u) B   ->    16 (Ag) B    
  0.1850       9 (B2u) B     8 (B3u) A   ->    16 (Ag) B    
  0.1620       4 (B1g) A     15 (Ag) B   ->    19 (Ag) B    
 -0.1620       15 (Ag) B     4 (B1g) A   ->    19 (Ag) B    
  0.1518       15 (Ag) A     4 (B1g) B   ->    19 (Ag) B    
 -0.1518       4 (B1g) B     15 (Ag) A   ->    19 (Ag) B    
  0.1431       4 (B1g) A     15 (Ag) B   ->    17 (Ag) B    
 -0.1431       15 (Ag) B     4 (B1g) A   ->    17 (Ag) B    
 -0.1334       15 (Ag) A     4 (B1g) A   ->    16 (Ag) A    
  0.1334       4 (B1g) A     15 (Ag) A   ->    16 (Ag) A    
  0.1331       15 (Ag) A     4 (B1g) B   ->    17 (Ag) B    
 -0.1331       4 (B1g) B     15 (Ag) A   ->    17 (Ag) B    
  0.1261       9 (B2u) A     9 (B3u) A   ->    16 (Ag) A    
 -0.1261       9 (B3u) A     9 (B2u) A   ->    16 (Ag) A    
  0.1101       4 (B1g) A     12 (Ag) B   ->    16 (Ag) B    
 -0.1101       12 (Ag) B     4 (B1g) A   ->    16 (Ag) B    

              Summary of significant orbitals:

               Number  Type             Irrep      Energy
               50      Occ  Alpha      15 (Ag)      0.1716
               36      Occ  Alpha       3 (B1g)      0.0050
               43      Occ  Alpha       4 (B1g)      0.0911
               40      Occ  Alpha       8 (B2u)      0.0467
               47      Occ  Alpha       9 (B2u)      0.1017
               39      Occ  Alpha       8 (B3u)      0.0467
               48      Occ  Alpha       9 (B3u)      0.1017
               34      Occ  Beta       12 (Ag)     -0.0206
               50      Occ  Beta       15 (Ag)      0.1716
               36      Occ  Beta        3 (B1g)      0.0050
               43      Occ  Beta        4 (B1g)      0.0911
               40      Occ  Beta        8 (B2u)      0.0467
               47      Occ  Beta        9 (B2u)      0.1017
               39      Occ  Beta        8 (B3u)      0.0467
               48      Occ  Beta        9 (B3u)      0.1017
               51      Vir  Alpha      16 (Ag)      0.5482
               51      Vir  Beta       16 (Ag)      0.5482
               52      Vir  Beta       17 (Ag)      0.7294
               55      Vir  Beta       19 (Ag)      0.7963


Running a double precision version
      CD-EOMIP-CCSD/MP2 left amplitudes will be solved using Davidson.
        Amplitudes will be solved using MOM  algorithm.
     Hard-coded thresholds: 
     LinDepThresh=1.00e-15  NormThresh=1.00e-06  ReorthogonThresh=1.00e-02

      Roots     MaxVec    MaxIter   Precond   Conv      Shift    
      8         120       60        1         1.00e-05  0.00e+00  
 ------------------------------------------------------------------------------
      Iter ConvRoots NVecs ResNorm^2 Current eigenvalues (eV)
 ------------------------------------------------------------------------------
      0    0      8     8.86e-03   -5.4355   -4.1377   -1.8646   6.0361   6.0989   6.3673   7.0928   7.4174   
      1    0      16    2.32e-03   -5.4356   -4.1378   -1.8648   6.0361   6.0989   6.3673   7.0928   7.4173   
      2    4      24    3.50e-05   -5.4356   -4.1378   -1.8648   6.0360*  6.0988*  6.3672*  7.0927*  7.4171   
      3    7      28    6.96e-06   -5.4356   -4.1379*  -1.8648*  6.0360*  6.0988*  6.3672*  7.0927*  7.4171*  
      4    8      29    5.03e-06   -5.4356*  -4.1379*  -1.8648*  6.0360*  6.0988*  6.3672*  7.0927*  7.4171*  

     Davidson procedure converged

 EOMIP-CCSD transition 1/B1g
S^2 calculation will be performed in  double precision
 EOMIP-CCSD transition 2/B1g
S^2 calculation will be performed in  double precision
 EOMIP-CCSD transition 3/B1g
S^2 calculation will be performed in  double precision
 EOMIP-CCSD transition 4/B1g
S^2 calculation will be performed in  double precision
 EOMIP-CCSD transition 5/B1g
S^2 calculation will be performed in  double precision
 EOMIP-CCSD transition 6/B1g
S^2 calculation will be performed in  double precision
 EOMIP-CCSD transition 7/B1g
S^2 calculation will be performed in  double precision
 EOMIP-CCSD transition 8/B1g
S^2 calculation will be performed in  double precision
 Excited state properties for  EOMIP-CCSD transition 1/B1g
 Dipole moment (a.u.): 0.000000 (X 0.000000, Y 0.000000, Z 0.000000)
 R-squared (a.u.): 1515.914682 (XX 731.465553, YY 731.465157, ZZ 52.983971)
 Gauge origin (a.u.): (0.000000, 0.000000, 0.000000)
 Angular momentum (a.u.) against gauge origin: 
 (X 0.000000i, Y 0.000000i, Z 0.000000i)
 Traces of the OPDMs: Tr(AA) 49.000000, Tr(BB) 50.000000
 <S^2> = 0.750000

State OPDM analysis using libwa module will be excecuted
 NOs (alpha)
   Occupation of frontier NOs:
      0.0160   0.9908
   Number of electrons: 49.000000
 NOs (beta)
   Occupation of frontier NOs:
      0.0004   0.9995
   Number of electrons: 50.000000
 NOs (spin-traced)
   Occupation of frontier NOs:
      1.0163   1.9904
   Number of electrons: 99.000000
   Number of unpaired electrons: n_u =  0.98057, n_u,nl =  1.00015
   NO participation ratio (PR_NO):  0.993464
 
 Mulliken Population Analysis
 Atom      Charge (e)        Spin (e)
 ------------------------------------
 1 Cu        1.138142        0.897771
 2 Cl       -0.784520        0.025559
 3 Cl       -0.784550        0.025556
 4 Cl       -0.784550        0.025556
 5 Cl       -0.784520        0.025559
 ------------------------------------
 Sum:       -2.000000        1.000000
 
 Multipole moment analysis of the density matrix
   Molecular charge:                      -2.000000
   Number of electrons:                   99.000000
     Center of electronic charge [Ang]: [ -0.000000,   0.000000,   0.000000]
   Total nuclear charge:                  97.000000
     Center of nuclear charge [Ang]:    [  0.000000,   0.000000,   0.000000]
   Dipole moment [D]:                     0.000000
     Cartesian components [D]:          [  0.000000,  -0.000000,  -0.000000]
   RMS size of the density [Ang]:         2.070718
     Cartesian components [Ang]:        [  1.438403,   1.438402,   0.387129]
 

 Excited state properties for  EOMIP-CCSD transition 2/B1g
 Dipole moment (a.u.): 0.000000 (X 0.000000, Y 0.000000, Z 0.000000)
 R-squared (a.u.): 1505.383743 (XX 726.510372, YY 726.510748, ZZ 52.362624)
 Gauge origin (a.u.): (0.000000, 0.000000, 0.000000)
 Angular momentum (a.u.) against gauge origin: 
 (X 0.000000i, Y 0.000000i, Z 0.000000i)
 Traces of the OPDMs: Tr(AA) 49.000000, Tr(BB) 50.000000
 <S^2> = 0.750000

State OPDM analysis using libwa module will be excecuted
 NOs (alpha)
   Occupation of frontier NOs:
      0.0546   0.9836
   Number of electrons: 49.000000
 NOs (beta)
   Occupation of frontier NOs:
      0.0036   0.9951
   Number of electrons: 50.000000
 NOs (spin-traced)
   Occupation of frontier NOs:
      1.0496   1.9796
   Number of electrons: 99.000000
   Number of unpaired electrons: n_u =  1.11155, n_u,nl =  1.00064
   NO participation ratio (PR_NO):  1.365699
 
 Mulliken Population Analysis
 Atom      Charge (e)        Spin (e)
 ------------------------------------
 1 Cu        0.585488       -0.017638
 2 Cl       -0.646376        0.254409
 3 Cl       -0.646368        0.254409
 4 Cl       -0.646368        0.254409
 5 Cl       -0.646376        0.254409
 ------------------------------------
 Sum:       -2.000000        1.000000
 
 Multipole moment analysis of the density matrix
   Molecular charge:                      -2.000000
   Number of electrons:                   99.000000
     Center of electronic charge [Ang]: [  0.000000,  -0.000000,   0.000000]
   Total nuclear charge:                  97.000000
     Center of nuclear charge [Ang]:    [  0.000000,   0.000000,   0.000000]
   Dipole moment [D]:                     0.000000
     Cartesian components [D]:          [ -0.000000,   0.000000,  -0.000000]
   RMS size of the density [Ang]:         2.063513
     Cartesian components [Ang]:        [  1.433522,   1.433523,   0.384852]
 

 Excited state properties for  EOMIP-CCSD transition 3/B1g
 Dipole moment (a.u.): 0.000000 (X 0.000000, Y 0.000000, Z 0.000000)
 R-squared (a.u.): 1507.440367 (XX 727.490889, YY 727.491622, ZZ 52.457856)
 Gauge origin (a.u.): (0.000000, 0.000000, 0.000000)
 Angular momentum (a.u.) against gauge origin: 
 (X 0.000000i, Y 0.000000i, Z 0.000000i)
 Traces of the OPDMs: Tr(AA) 49.000000, Tr(BB) 50.000000
 <S^2> = 0.750000

State OPDM analysis using libwa module will be excecuted
 NOs (alpha)
   Occupation of frontier NOs:
      0.0674   0.9853
   Number of electrons: 49.000000
 NOs (beta)
   Occupation of frontier NOs:
      0.0052   0.9940
   Number of electrons: 50.000000
 NOs (spin-traced)
   Occupation of frontier NOs:
      1.0660   1.9807
   Number of electrons: 99.000000
   Number of unpaired electrons: n_u =  1.12706, n_u,nl =  0.99823
   NO participation ratio (PR_NO):  1.453214
 
 Mulliken Population Analysis
 Atom      Charge (e)        Spin (e)
 ------------------------------------
 1 Cu        0.636351        0.105322
 2 Cl       -0.659071        0.223656
 3 Cl       -0.659104        0.223683
 4 Cl       -0.659104        0.223683
 5 Cl       -0.659071        0.223656
 ------------------------------------
 Sum:       -2.000000        1.000000
 
 Multipole moment analysis of the density matrix
   Molecular charge:                      -2.000000
   Number of electrons:                   99.000000
     Center of electronic charge [Ang]: [ -0.000000,  -0.000000,   0.000000]
   Total nuclear charge:                  97.000000
     Center of nuclear charge [Ang]:    [  0.000000,   0.000000,   0.000000]
   Dipole moment [D]:                     0.000000
     Cartesian components [D]:          [  0.000000,   0.000000,  -0.000000]
   RMS size of the density [Ang]:         2.064922
     Cartesian components [Ang]:        [  1.434489,   1.434490,   0.385202]
 

 Excited state properties for  EOMIP-CCSD transition 4/B1g
 Dipole moment (a.u.): 0.000000 (X 0.000000, Y 0.000000, Z 0.000000)
 R-squared (a.u.): 1523.914842 (XX 730.128827, YY 730.103915, ZZ 63.682100)
 Gauge origin (a.u.): (0.000000, 0.000000, 0.000000)
 Angular momentum (a.u.) against gauge origin: 
 (X 0.000000i, Y 0.000000i, Z 0.000000i)
 Traces of the OPDMs: Tr(AA) 49.000000, Tr(BB) 50.000000
 <S^2> = 3.749935

State OPDM analysis using libwa module will be excecuted
 NOs (alpha)
   Occupation of frontier NOs:
      0.4149   0.4162
   Number of electrons: 49.000000
 NOs (beta)
   Occupation of frontier NOs:
      0.6275   0.7077
   Number of electrons: 50.000000
 NOs (spin-traced)
   Occupation of frontier NOs:
      1.1237   1.1239
   Number of electrons: 99.000000
   Number of unpaired electrons: n_u =  3.00000, n_u,nl =  2.98172
   NO participation ratio (PR_NO):  3.695093
 
 Mulliken Population Analysis
 Atom      Charge (e)        Spin (e)
 ------------------------------------
 1 Cu       -0.126127        0.465449
 2 Cl       -0.468852        0.134072
 3 Cl       -0.468084        0.133204
 4 Cl       -0.468084        0.133204
 5 Cl       -0.468852        0.134072
 ------------------------------------
 Sum:       -2.000000        1.000000
 
 Multipole moment analysis of the density matrix
   Molecular charge:                      -2.000000
   Number of electrons:                   99.000000
     Center of electronic charge [Ang]: [  0.000000,  -0.000000,  -0.000000]
   Total nuclear charge:                  97.000000
     Center of nuclear charge [Ang]:    [  0.000000,   0.000000,   0.000000]
   Dipole moment [D]:                     0.000000
     Cartesian components [D]:          [ -0.000000,   0.000000,   0.000000]
   RMS size of the density [Ang]:         2.076175
     Cartesian components [Ang]:        [  1.437088,   1.437063,   0.424416]
 

 Excited state properties for  EOMIP-CCSD transition 5/B1g
 Dipole moment (a.u.): 0.000000 (X 0.000000, Y 0.000000, Z 0.000000)
 R-squared (a.u.): 1524.259413 (XX 729.882753, YY 729.901876, ZZ 64.474784)
 Gauge origin (a.u.): (0.000000, 0.000000, 0.000000)
 Angular momentum (a.u.) against gauge origin: 
 (X 0.000000i, Y 0.000000i, Z 0.000000i)
 Traces of the OPDMs: Tr(AA) 49.000000, Tr(BB) 50.000000
 <S^2> = 0.750021

State OPDM analysis using libwa module will be excecuted
 NOs (alpha)
   Occupation of frontier NOs:
      0.5497   0.6366
   Number of electrons: 49.000000
 NOs (beta)
   Occupation of frontier NOs:
      0.5502   0.6426
   Number of electrons: 50.000000
 NOs (spin-traced)
   Occupation of frontier NOs:
      1.1869   1.1923
   Number of electrons: 99.000000
   Number of unpaired electrons: n_u =  2.99970, n_u,nl =  3.02181
   NO participation ratio (PR_NO):  3.965054
 
 Mulliken Population Analysis
 Atom      Charge (e)        Spin (e)
 ------------------------------------
 1 Cu       -0.181753        1.115403
 2 Cl       -0.454238       -0.028018
 3 Cl       -0.454886       -0.029684
 4 Cl       -0.454886       -0.029684
 5 Cl       -0.454238       -0.028018
 ------------------------------------
 Sum:       -2.000000        1.000000
 
 Multipole moment analysis of the density matrix
   Molecular charge:                      -2.000000
   Number of electrons:                   99.000000
     Center of electronic charge [Ang]: [  0.000000,  -0.000000,  -0.000000]
   Total nuclear charge:                  97.000000
     Center of nuclear charge [Ang]:    [  0.000000,   0.000000,   0.000000]
   Dipole moment [D]:                     0.000000
     Cartesian components [D]:          [ -0.000000,   0.000000,   0.000000]
   RMS size of the density [Ang]:         2.076409
     Cartesian components [Ang]:        [  1.436846,   1.436864,   0.427050]
 

 Excited state properties for  EOMIP-CCSD transition 6/B1g
 Dipole moment (a.u.): 0.000000 (X 0.000000, Y 0.000000, Z 0.000000)
 R-squared (a.u.): 1525.309427 (XX 730.169421, YY 730.035326, ZZ 65.104680)
 Gauge origin (a.u.): (0.000000, 0.000000, 0.000000)
 Angular momentum (a.u.) against gauge origin: 
 (X 0.000000i, Y 0.000000i, Z 0.000000i)
 Traces of the OPDMs: Tr(AA) 49.000000, Tr(BB) 50.000000
 <S^2> = 0.750043

State OPDM analysis using libwa module will be excecuted
 NOs (alpha)
   Occupation of frontier NOs:
      0.3222   0.6333
   Number of electrons: 49.000000
 NOs (beta)
   Occupation of frontier NOs:
      0.3249   0.8110
   Number of electrons: 50.000000
 NOs (spin-traced)
   Occupation of frontier NOs:
      1.1279   1.1333
   Number of electrons: 99.000000
   Number of unpaired electrons: n_u =  2.99913, n_u,nl =  2.98438
   NO participation ratio (PR_NO):  3.679502
 
 Mulliken Population Analysis
 Atom      Charge (e)        Spin (e)
 ------------------------------------
 1 Cu       -0.169227       -0.195597
 2 Cl       -0.459769        0.297987
 3 Cl       -0.455618        0.299811
 4 Cl       -0.455618        0.299811
 5 Cl       -0.459769        0.297987
 ------------------------------------
 Sum:       -2.000000        1.000000
 
 Multipole moment analysis of the density matrix
   Molecular charge:                      -2.000000
   Number of electrons:                   99.000000
     Center of electronic charge [Ang]: [  0.000000,  -0.000000,  -0.000000]
   Total nuclear charge:                  97.000000
     Center of nuclear charge [Ang]:    [  0.000000,   0.000000,   0.000000]
   Dipole moment [D]:                     0.000000
     Cartesian components [D]:          [ -0.000000,   0.000000,   0.000000]
   RMS size of the density [Ang]:         2.077124
     Cartesian components [Ang]:        [  1.437128,   1.436996,   0.429131]
 

 Excited state properties for  EOMIP-CCSD transition 7/B1g
 Dipole moment (a.u.): 0.000000 (X 0.000000, Y 0.000000, Z 0.000000)
 R-squared (a.u.): 1523.957087 (XX 729.983317, YY 729.937268, ZZ 64.036502)
 Gauge origin (a.u.): (0.000000, 0.000000, 0.000000)
 Angular momentum (a.u.) against gauge origin: 
 (X 0.000000i, Y 0.000000i, Z 0.000000i)
 Traces of the OPDMs: Tr(AA) 49.000000, Tr(BB) 50.000000
 <S^2> = 3.749214

State OPDM analysis using libwa module will be excecuted
 NOs (alpha)
   Occupation of frontier NOs:
      0.5602   0.5635
   Number of electrons: 49.000000
 NOs (beta)
   Occupation of frontier NOs:
      0.6092   0.7816
   Number of electrons: 50.000000
 NOs (spin-traced)
   Occupation of frontier NOs:
      1.3418   1.3568
   Number of electrons: 99.000000
   Number of unpaired electrons: n_u =  3.00000, n_u,nl =  3.02895
   NO participation ratio (PR_NO):  4.773579
 
 Mulliken Population Analysis
 Atom      Charge (e)        Spin (e)
 ------------------------------------
 1 Cu       -0.224336        0.411145
 2 Cl       -0.444558        0.147418
 3 Cl       -0.443274        0.147009
 4 Cl       -0.443274        0.147009
 5 Cl       -0.444558        0.147418
 ------------------------------------
 Sum:       -2.000000        1.000000
 
 Multipole moment analysis of the density matrix
   Molecular charge:                      -2.000000
   Number of electrons:                   99.000000
     Center of electronic charge [Ang]: [ -0.000000,  -0.000000,  -0.000000]
   Total nuclear charge:                  97.000000
     Center of nuclear charge [Ang]:    [  0.000000,   0.000000,   0.000000]
   Dipole moment [D]:                     0.000000
     Cartesian components [D]:          [  0.000000,   0.000000,   0.000000]
   RMS size of the density [Ang]:         2.076203
     Cartesian components [Ang]:        [  1.436945,   1.436899,   0.425596]
 

 Excited state properties for  EOMIP-CCSD transition 8/B1g
 Dipole moment (a.u.): 0.000000 (X 0.000000, Y 0.000000, Z 0.000000)
 R-squared (a.u.): 1524.751124 (XX 730.332155, YY 730.323347, ZZ 64.095623)
 Gauge origin (a.u.): (0.000000, 0.000000, 0.000000)
 Angular momentum (a.u.) against gauge origin: 
 (X 0.000000i, Y 0.000000i, Z 0.000000i)
 Traces of the OPDMs: Tr(AA) 49.000000, Tr(BB) 50.000000
 <S^2> = 0.755220

State OPDM analysis using libwa module will be excecuted
 NOs (alpha)
   Occupation of frontier NOs:
      0.5275   0.6895
   Number of electrons: 49.000000
 NOs (beta)
   Occupation of frontier NOs:
      0.5409   0.7217
   Number of electrons: 50.000000
 NOs (spin-traced)
   Occupation of frontier NOs:
      1.2304   1.2495
   Number of electrons: 99.000000
   Number of unpaired electrons: n_u =  2.99980, n_u,nl =  2.92192
   NO participation ratio (PR_NO):  4.362543
 
 Mulliken Population Analysis
 Atom      Charge (e)        Spin (e)
 ------------------------------------
 1 Cu       -0.181384        0.969472
 2 Cl       -0.454732        0.006876
 3 Cl       -0.454576        0.008388
 4 Cl       -0.454576        0.008388
 5 Cl       -0.454732        0.006876
 ------------------------------------
 Sum:       -2.000000        1.000000
 
 Multipole moment analysis of the density matrix
   Molecular charge:                      -2.000000
   Number of electrons:                   99.000000
     Center of electronic charge [Ang]: [ -0.000000,  -0.000000,  -0.000000]
   Total nuclear charge:                  97.000000
     Center of nuclear charge [Ang]:    [  0.000000,   0.000000,   0.000000]
   Dipole moment [D]:                     0.000000
     Cartesian components [D]:          [  0.000000,   0.000000,   0.000000]
   RMS size of the density [Ang]:         2.076744
     Cartesian components [Ang]:        [  1.437288,   1.437279,   0.425792]
 

        Solving for EOMIP-CCSD B2g transitions.

Warning! Not enough singles to form guess subspace. Doubles guess vectors will be generated.
In case of poor EOM convergence, reduce requested IP_STATES.

Running a double precision version
      CD-EOMIP-CCSD/MP2 right amplitudes will be solved using Davidson.
        Amplitudes will be solved using standard  algorithm.
     Hard-coded thresholds: 
     LinDepThresh=1.00e-15  NormThresh=1.00e-06  ReorthogonThresh=1.00e-02

      Roots     MaxVec    MaxIter   Precond   Conv      Shift    
      8         120       60        1         1.00e-05  0.00e+00  
 ------------------------------------------------------------------------------
      Iter ConvRoots NVecs ResNorm^2 Current eigenvalues (eV)
 ------------------------------------------------------------------------------
      0    0      8     7.76e-02   -0.9463   1.3839   16.8346   23.0629   28.9151   30.9342   36.2105   68.6875   
      1    0      16    3.76e-01   -3.7499   -1.8419   16.4934   21.9484   28.0563   30.5179   34.0118   39.4158   
      2    0      24    9.87e-02   -5.1157   -2.6180   13.6964   16.0550   18.0187   20.4260   22.0817   23.3071   
      3    0      32    2.74e-02   -5.1528   -2.6339   10.8960   12.0708   13.0491   13.5243   16.2710   16.3849   
      4    1      40    1.95e-02   -5.1556   -2.6351*  8.7512   9.4576   10.2699   10.7048   10.9581   13.2806   
      5    2      47    9.48e-03   -5.1565*  -2.6353*  7.2820   8.0276   8.6259   9.7577   10.0440   10.2350   
      6    2      53    4.91e-03   -5.1565*  -2.6353*  6.9380   7.4164   7.7411   8.5877   9.0304   9.6541   
      7    2      59    3.53e-03   -5.1565*  -2.6353*  6.8274   7.1568   7.4418   7.7337   8.6505   9.2542   
      8    2      65    1.55e-03   -5.1565*  -2.6353*  6.7696   7.0369   7.2874   7.4135   8.3682   8.8527   
      9    2      71    1.09e-03   -5.1564*  -2.6353*  6.7374   6.9857   7.1890   7.3308   8.0776   8.7092   
      10   2      77    1.22e-03   -5.1564*  -2.6353*  6.7199   6.9630   7.1557   7.2827   7.7460   8.5738   
      11   2      83    1.91e-03   -5.1564*  -2.6353*  6.7088   6.9439   7.1350   7.2375   7.5270   7.9327   
      12   2      89    7.06e-04   -5.1565*  -2.6353*  6.6993   6.9143   7.1077   7.1894   7.3546   7.4744   
      13   2      95    2.80e-04   -5.1565*  -2.6353*  6.6907   6.8769   7.0680   7.1525   7.2551   7.4375   
      14   2      101   1.15e-04   -5.1565*  -2.6353*  6.6847   6.8522   7.0457   7.1405   7.2357   7.4239   
      15   2      107   4.37e-05   -5.1565*  -2.6353*  6.6817   6.8405   7.0365   7.1365   7.2298   7.4173   
      16   3      113   1.56e-05   -5.1565*  -2.6353*  6.6806*  6.8366   7.0334   7.1351   7.2279   7.4144   
      17   7      118   5.77e-06   -5.1565*  -2.6353*  6.6802*  6.8352   7.0323*  7.1346*  7.2271*  7.4135*  
      18   8      119   3.35e-06   -5.1565*  -2.6353*  6.6801*  6.8348*  7.0320*  7.1344*  7.2270*  7.4134*  

     Davidson procedure converged

 EOMIP transition 1/B2g
 Total energy = -3478.26937722 a.u.  Excitation energy = -5.1565 eV.
 R1^2 = 0.9192  R2^2 = 0.0808  Res^2 = 6.87e-07
 Conv-d = yes

 Amplitude    Transitions between orbitals
 -0.7352       3 (B2g) A                 ->    infty        
 -0.6154       2 (B2g) A                 ->    infty        

              Summary of significant orbitals:

               Number  Type             Irrep      Energy
               37      Occ  Alpha       2 (B2g)      0.0211
               45      Occ  Alpha       3 (B2g)      0.0986


 EOMIP transition 2/B2g
 Total energy = -3478.17672741 a.u.  Excitation energy = -2.6353 eV.
 R1^2 = 0.9342  R2^2 = 0.0658  Res^2 = 2.10e-06
 Conv-d = yes

 Amplitude    Transitions between orbitals
 -0.7363       2 (B2g) A                 ->    infty        
  0.6261       3 (B2g) A                 ->    infty        

              Summary of significant orbitals:

               Number  Type             Irrep      Energy
               37      Occ  Alpha       2 (B2g)      0.0211
               45      Occ  Alpha       3 (B2g)      0.0986


 EOMIP transition 3/B2g
 Total energy = -3477.83439266 a.u.  Excitation energy = 6.6801 eV.
 R1^2 = 0.0000  R2^2 = 1.0000  Res^2 = 1.04e-06
 Conv-d = yes

 Amplitude    Transitions between orbitals
  0.4468       15 (Ag) A     3 (B2g) A   ->    16 (Ag) A    
 -0.4468       3 (B2g) A     15 (Ag) A   ->    16 (Ag) A    
  0.4468       3 (B2g) A     15 (Ag) B   ->    16 (Ag) B    
 -0.4468       15 (Ag) B     3 (B2g) A   ->    16 (Ag) B    
 -0.4462       15 (Ag) A     3 (B2g) B   ->    16 (Ag) B    
  0.4462       3 (B2g) B     15 (Ag) A   ->    16 (Ag) B    
 -0.1610       9 (B3u) A     6 (B1u) B   ->    16 (Ag) B    
  0.1610       6 (B1u) B     9 (B3u) A   ->    16 (Ag) B    
 -0.1609       6 (B1u) A     9 (B3u) A   ->    16 (Ag) A    
  0.1609       9 (B3u) A     6 (B1u) A   ->    16 (Ag) A    
  0.1608       6 (B1u) A     9 (B3u) B   ->    16 (Ag) B    
 -0.1608       9 (B3u) B     6 (B1u) A   ->    16 (Ag) B    
  0.1487       15 (Ag) A     2 (B2g) B   ->    16 (Ag) B    
 -0.1487       2 (B2g) B     15 (Ag) A   ->    16 (Ag) B    
 -0.1486       15 (Ag) A     2 (B2g) A   ->    16 (Ag) A    
  0.1486       2 (B2g) A     15 (Ag) A   ->    16 (Ag) A    
 -0.1486       2 (B2g) A     15 (Ag) B   ->    16 (Ag) B    
  0.1486       15 (Ag) B     2 (B2g) A   ->    16 (Ag) B    
  0.1355       3 (B2g) A     15 (Ag) B   ->    19 (Ag) B    
 -0.1355       15 (Ag) B     3 (B2g) A   ->    19 (Ag) B    
  0.1354       15 (Ag) A     3 (B2g) A   ->    19 (Ag) A    
 -0.1354       3 (B2g) A     15 (Ag) A   ->    19 (Ag) A    
 -0.1346       15 (Ag) A     3 (B2g) B   ->    19 (Ag) B    
  0.1346       3 (B2g) B     15 (Ag) A   ->    19 (Ag) B    
  0.1255       3 (B2g) A     15 (Ag) B   ->    17 (Ag) B    
 -0.1255       15 (Ag) B     3 (B2g) A   ->    17 (Ag) B    
  0.1254       15 (Ag) A     3 (B2g) A   ->    17 (Ag) A    
 -0.1254       3 (B2g) A     15 (Ag) A   ->    17 (Ag) A    
 -0.1249       15 (Ag) A     3 (B2g) B   ->    17 (Ag) B    
  0.1249       3 (B2g) B     15 (Ag) A   ->    17 (Ag) B    

              Summary of significant orbitals:

               Number  Type             Irrep      Energy
               50      Occ  Alpha      15 (Ag)      0.1716
               37      Occ  Alpha       2 (B2g)      0.0211
               45      Occ  Alpha       3 (B2g)      0.0986
               44      Occ  Alpha       6 (B1u)      0.0926
               48      Occ  Alpha       9 (B3u)      0.1017
               50      Occ  Beta       15 (Ag)      0.1716
               37      Occ  Beta        2 (B2g)      0.0211
               45      Occ  Beta        3 (B2g)      0.0986
               44      Occ  Beta        6 (B1u)      0.0926
               48      Occ  Beta        9 (B3u)      0.1017
               51      Vir  Alpha      16 (Ag)      0.5482
               52      Vir  Alpha      17 (Ag)      0.7294
               55      Vir  Alpha      19 (Ag)      0.7963
               51      Vir  Beta       16 (Ag)      0.5482
               52      Vir  Beta       17 (Ag)      0.7294
               55      Vir  Beta       19 (Ag)      0.7963


 EOMIP transition 4/B2g
 Total energy = -3477.82870613 a.u.  Excitation energy = 6.8348 eV.
 R1^2 = 0.0002  R2^2 = 0.9998  Res^2 = 3.40e-06
 Conv-d = yes

 Amplitude    Transitions between orbitals
  0.5478       15 (Ag) A     3 (B2g) B   ->    16 (Ag) B    
 -0.5478       3 (B2g) B     15 (Ag) A   ->    16 (Ag) B    
  0.5358       3 (B2g) A     15 (Ag) B   ->    16 (Ag) B    
 -0.5358       15 (Ag) B     3 (B2g) A   ->    16 (Ag) B    
  0.2275       9 (B3u) A     6 (B1u) B   ->    16 (Ag) B    
 -0.2275       6 (B1u) B     9 (B3u) A   ->    16 (Ag) B    
  0.2269       6 (B1u) A     9 (B3u) B   ->    16 (Ag) B    
 -0.2269       9 (B3u) B     6 (B1u) A   ->    16 (Ag) B    
 -0.1877       2 (B2g) A     15 (Ag) B   ->    16 (Ag) B    
  0.1877       15 (Ag) B     2 (B2g) A   ->    16 (Ag) B    
 -0.1857       15 (Ag) A     2 (B2g) B   ->    16 (Ag) B    
  0.1857       2 (B2g) B     15 (Ag) A   ->    16 (Ag) B    
  0.1532       15 (Ag) A     3 (B2g) B   ->    19 (Ag) B    
 -0.1532       3 (B2g) B     15 (Ag) A   ->    19 (Ag) B    
  0.1512       15 (Ag) A     3 (B2g) B   ->    17 (Ag) B    
 -0.1512       3 (B2g) B     15 (Ag) A   ->    17 (Ag) B    
  0.1362       3 (B2g) A     15 (Ag) B   ->    19 (Ag) B    
 -0.1362       15 (Ag) B     3 (B2g) A   ->    19 (Ag) B    
  0.1324       3 (B2g) A     15 (Ag) B   ->    17 (Ag) B    
 -0.1324       15 (Ag) B     3 (B2g) A   ->    17 (Ag) B    
 -0.1160       8 (B3u) A     6 (B1u) B   ->    16 (Ag) B    
  0.1160       6 (B1u) B     8 (B3u) A   ->    16 (Ag) B    
  0.1132       5 (B1u) A     9 (B3u) B   ->    16 (Ag) B    
 -0.1132       9 (B3u) B     5 (B1u) A   ->    16 (Ag) B    
 -0.1122       6 (B1u) A     8 (B3u) B   ->    16 (Ag) B    
  0.1122       8 (B3u) B     6 (B1u) A   ->    16 (Ag) B    
  0.1106       9 (B3u) A     5 (B1u) B   ->    16 (Ag) B    
 -0.1106       5 (B1u) B     9 (B3u) A   ->    16 (Ag) B    

              Summary of significant orbitals:

               Number  Type             Irrep      Energy
               50      Occ  Alpha      15 (Ag)      0.1716
               37      Occ  Alpha       2 (B2g)      0.0211
               45      Occ  Alpha       3 (B2g)      0.0986
               41      Occ  Alpha       5 (B1u)      0.0622
               44      Occ  Alpha       6 (B1u)      0.0926
               39      Occ  Alpha       8 (B3u)      0.0467
               48      Occ  Alpha       9 (B3u)      0.1017
               50      Occ  Beta       15 (Ag)      0.1716
               37      Occ  Beta        2 (B2g)      0.0211
               45      Occ  Beta        3 (B2g)      0.0986
               41      Occ  Beta        5 (B1u)      0.0622
               44      Occ  Beta        6 (B1u)      0.0926
               39      Occ  Beta        8 (B3u)      0.0467
               48      Occ  Beta        9 (B3u)      0.1017
               51      Vir  Beta       16 (Ag)      0.5482
               52      Vir  Beta       17 (Ag)      0.7294
               55      Vir  Beta       19 (Ag)      0.7963


 EOMIP transition 5/B2g
 Total energy = -3477.82146121 a.u.  Excitation energy = 7.0320 eV.
 R1^2 = 0.0002  R2^2 = 0.9998  Res^2 = 2.96e-06
 Conv-d = yes

 Amplitude    Transitions between orbitals
 -0.6392       15 (Ag) A     3 (B2g) A   ->    16 (Ag) A    
  0.6392       3 (B2g) A     15 (Ag) A   ->    16 (Ag) A    
  0.3323       3 (B2g) A     15 (Ag) B   ->    16 (Ag) B    
 -0.3323       15 (Ag) B     3 (B2g) A   ->    16 (Ag) B    
 -0.3076       15 (Ag) A     3 (B2g) B   ->    16 (Ag) B    
  0.3076       3 (B2g) B     15 (Ag) A   ->    16 (Ag) B    
  0.2677       6 (B1u) A     9 (B3u) A   ->    16 (Ag) A    
 -0.2677       9 (B3u) A     6 (B1u) A   ->    16 (Ag) A    
  0.2152       15 (Ag) A     2 (B2g) A   ->    16 (Ag) A    
 -0.2152       2 (B2g) A     15 (Ag) A   ->    16 (Ag) A    
 -0.1558       15 (Ag) A     3 (B2g) A   ->    17 (Ag) A    
  0.1558       3 (B2g) A     15 (Ag) A   ->    17 (Ag) A    
  0.1421       6 (B1u) A     9 (B3u) B   ->    16 (Ag) B    
 -0.1421       9 (B3u) B     6 (B1u) A   ->    16 (Ag) B    
 -0.1417       15 (Ag) A     3 (B2g) A   ->    19 (Ag) A    
  0.1417       3 (B2g) A     15 (Ag) A   ->    19 (Ag) A    
 -0.1275       6 (B1u) A     8 (B3u) A   ->    16 (Ag) A    
  0.1275       8 (B3u) A     6 (B1u) A   ->    16 (Ag) A    
 -0.1239       9 (B3u) A     6 (B1u) B   ->    16 (Ag) B    
  0.1239       6 (B1u) B     9 (B3u) A   ->    16 (Ag) B    
  0.1226       5 (B1u) A     9 (B3u) A   ->    16 (Ag) A    
 -0.1226       9 (B3u) A     5 (B1u) A   ->    16 (Ag) A    
 -0.1193       2 (B2g) A     15 (Ag) B   ->    16 (Ag) B    
  0.1193       15 (Ag) B     2 (B2g) A   ->    16 (Ag) B    
 -0.1151       5 (B1u) A     8 (B3u) A   ->    16 (Ag) A    
  0.1151       8 (B3u) A     5 (B1u) A   ->    16 (Ag) A    

              Summary of significant orbitals:

               Number  Type             Irrep      Energy
               50      Occ  Alpha      15 (Ag)      0.1716
               37      Occ  Alpha       2 (B2g)      0.0211
               45      Occ  Alpha       3 (B2g)      0.0986
               41      Occ  Alpha       5 (B1u)      0.0622
               44      Occ  Alpha       6 (B1u)      0.0926
               39      Occ  Alpha       8 (B3u)      0.0467
               48      Occ  Alpha       9 (B3u)      0.1017
               50      Occ  Beta       15 (Ag)      0.1716
               45      Occ  Beta        3 (B2g)      0.0986
               44      Occ  Beta        6 (B1u)      0.0926
               48      Occ  Beta        9 (B3u)      0.1017
               51      Vir  Alpha      16 (Ag)      0.5482
               52      Vir  Alpha      17 (Ag)      0.7294
               55      Vir  Alpha      19 (Ag)      0.7963
[...]
   102    9.416136610994e-15
   103    1.962366632491e-03
   104   -6.388330978966e-16
   105   -1.110667344327e-15
   106   -4.859846900913e-02
   107    3.716006814463e-14
   108    1.253492229840e-02
   109   -3.581807000365e-15
   110   -1.821566186028e-15
   111   -1.466128652272e-01
   112    1.586282261797e-13
   113    1.099290434687e-16
   114   -2.208886492108e-15
   115   -9.324886349131e-04
   116    3.463784336681e-16
   117    2.352097552281e-17
   118   -4.050096640104e-16
   119   -2.270058450274e-03
   120   -6.750224070381e-03
   121   -3.230568160895e-03
   122    4.418107890739e-02
   123   -1.514314655327e-01
   124    1.952816182028e-01
   125    7.613428813344e-15
   126   -3.702797562695e-02
   127    9.735539193901e-15
   128   -4.266684373561e-15
   129   -4.431939409275e-03
   130    6.242453264864e-16
   131    2.519105342669e-14
   132   -7.927495897349e-03
   133    3.571551407173e-15
   134   -1.478078907438e-13
   135    2.960388509401e-01
   136   -8.073442687131e-14
   137    2.774551191734e-13
   138   -1.890076285664e-01
   139    1.006761217541e-13
   140   -1.962366632493e-03
   141    2.486466809784e-16
   142   -3.071991710656e-15
   143    4.859846900913e-02
   144   -4.345202120641e-14
   145   -1.253492229841e-02
   146    5.654995543623e-17
   147   -9.282840411442e-15
   148    1.466128652272e-01
   149   -1.712630848256e-13
   150   -3.529433059298e-17
   151   -2.339067835753e-15
   152   -9.324886349127e-04
   153    6.021145467130e-16
   154   -1.542469022856e-16
   155   -5.829424919099e-16
   156   -2.270058450274e-03
   157    2.947555960990e-15
   158    1.760174444402e-15
   159   -1.925053590999e-14
   160    5.641446405722e-14
   161   -5.864381481185e-14
   162    3.890745438634e-14
   163   -8.305094720426e-02
   164    6.752509737215e-15
   165    8.503177339178e-15
   166   -8.103288489876e-03
   167    9.431460491853e-16
   168   -6.831044697837e-15
   169   -2.478066273151e-02
   170    7.206426419040e-16
   171   -2.918470915643e-13
   172    7.042169222462e-01
   173   -5.381746954071e-14
   174    3.138127204514e-13
   175   -8.613209380378e-01
   176    6.282151677888e-14
   177    3.391374329797e-15
   178   -3.164032561230e-15
   179   -9.959921863186e-17
   180    2.241084896038e-14
   181    3.896917614416e-02
   182   -1.954084184346e-14
   183   -6.805101272794e-15
   184   -3.231373632497e-15
   185    8.648380684563e-14
   186    1.364506639965e-01
   187   -9.550592599792e-17
   188   -2.003103698868e-15
   189    5.030826432557e-04
   190   -1.629584235693e-16
   191    3.422694303558e-16
   192   -1.757257739953e-15
   193    4.315240896337e-03
Sym=X
Ene= 0.981166
Spin=Alpha
Occup=0
     1   -8.350160932895e-16
     2    2.623386403157e-15
     3   -8.503072400792e-15
     4   -5.217777162679e-15
     5   -7.815796596818e-15
     6   -1.901387035616e-14
     7   -3.311599081181e-02
     8   -3.979847869540e-15
     9    3.429101117717e-17
    10    8.724623787489e-02
    11    5.392630365714e-15
    12   -2.016659796330e-17
    13    6.677047913492e-02
    14    4.277287718332e-14
    15   -6.383329302992e-16
    16   -5.442860678563e-01
    17    6.444134870561e-14
    18    3.382093916352e-15
    19   -6.805459962251e-15
    20    5.505192496791e-16
    21   -6.698516271267e-17
    22   -3.283804411132e-15
    23    4.826964647438e-15
    24   -7.133874120959e-15
    25    4.750022051193e-16
    26   -8.471211641806e-17
    27   -9.372927556418e-16
    28    3.734119791748e-15
    29    2.299961440088e-14
    30   -1.314628287341e-15
    31    3.163666184606e-16
    32    4.551480620549e-15
    33   -5.737009203033e-15
    34   -1.328256086025e-14
    35    6.777387138153e-16
    36   -1.426787112608e-16
    37   -5.556080747140e-14
    38   -1.944756817804e-14
    39   -2.218338480239e-19
    40   -7.452641929684e-04
    41   -1.832471202094e-15
    42    2.562956330718e-18
    43    1.297116288128e-16
    44    9.842896190178e-04
    45   -2.974842381886e-15
    46   -6.750224077044e-03
    47   -3.230568168140e-03
    48    4.418107894792e-02
    49   -1.514314655745e-01
    50    1.952816180463e-01
    51    3.702797555625e-02
    52    2.343844988585e-14
    53   -5.580152182645e-16
    54    4.431939390718e-03
    55   -3.179921101342e-16
    56    1.010301560276e-16
    57    7.927495925850e-03
    58    1.794123493068e-14
    59   -1.821577852005e-16
    60   -2.960388504701e-01
    61   -2.127097573381e-13
    62    3.950685585859e-15
    63    1.890076282230e-01
    64    2.555377191675e-13
    65   -4.671987523345e-15
    66   -1.962366656118e-03
    67    2.288813626850e-16
    68    3.219569907111e-16
    69   -4.859846894250e-02
    70    1.848206507947e-14
    71   -1.253492233747e-02
    72   -3.673227144396e-16
    73    6.469228357375e-16
    74   -1.466128649938e-01
    75    1.023689480827e-13
    76   -1.473512361818e-16
    77    9.324886326373e-04
    78    1.784327953729e-15
    79    1.481456369769e-16
    80   -4.595635467091e-17
    81   -2.270058446179e-03
    82   -5.904759066699e-15
    83   -6.198975450422e-15
    84   -3.651660533873e-15
    85    3.963406861759e-14
    86   -9.839851966800e-14
    87    6.707870701351e-15
    88    8.305094727388e-02
    89    4.836654489971e-14
    90   -3.371378838513e-16
    91    8.103288508774e-03
    92    5.151606659535e-15
    93    1.364539314856e-16
    94    2.478066269993e-02
    95    1.280409601569e-14
    96   -2.856305025774e-17
    97   -7.042169227009e-01
    98   -3.976967301366e-13
    99    1.608450335538e-15
   100    8.613209384712e-01
   101    4.841037766745e-13
   102   -1.622912722121e-15
   103   -1.279448892948e-14
   104    4.538261993144e-16
   105    6.450097788904e-17
   106   -5.551238151404e-15
   107    3.896917612236e-02
   108   -5.559516394057e-14
   109    2.248733568329e-15
   110   -4.690029082716e-16
   111    1.262512274791e-14
   112    1.364506640064e-01
   113    1.898197778203e-16
   114   -5.030826436789e-04
   115    2.080471454329e-15
   116    2.148163529114e-16
   117   -5.260007963427e-17
   118    4.315240888404e-03
   119   -4.566055839460e-16
   120    5.248137759608e-15
   121    3.042579465485e-15
   122   -3.356278711790e-14
   123    8.483032563647e-14
   124   -4.195338576102e-14
   125    8.305094727387e-02
   126    6.047619544721e-14
   127   -1.264602391110e-16
   128    8.103288508776e-03
   129    8.242992311384e-15
   130   -2.254368480563e-17
   131    2.478066269992e-02
   132    9.332697491149e-15
   133   -4.817393657516e-16
   134   -7.042169227008e-01
   135   -4.881644022775e-13
   136    2.597535532505e-15
   137    8.613209384712e-01
   138    5.782153979928e-13
   139   -2.643197088681e-15
   140    1.176878283235e-14
   141   -1.137146743090e-15
   142   -6.983339242700e-16
   143    7.048107995134e-15
   144   -3.896917612235e-02
   145    4.388838248598e-14
   146   -2.761990388581e-15
   147    6.864881575763e-17
   148   -8.738908509182e-15
   149   -1.364506640064e-01
   150   -2.795618538043e-16
   151   -5.030826436784e-04
   152    1.817796376020e-15
   153    8.086261700626e-18
   154   -4.877474652978e-17
   155    4.315240888405e-03
   156   -6.118904402908e-16
   157    6.750224077042e-03
   158    3.230568168140e-03
   159   -4.418107894791e-02
   160    1.514314655745e-01
   161   -1.952816180462e-01
   162    3.702797555625e-02
   163    2.675029370014e-14
   164   -1.293796598994e-15
   165    4.431939390723e-03
   166    7.641537200672e-17
   167    1.780928514141e-16
   168    7.927495925838e-03
   169    1.834655194689e-14
   170   -3.643334131908e-16
   171   -2.960388504701e-01
   172   -2.402338605321e-13
   173    8.541551592190e-15
   174    1.890076282230e-01
   175    2.829199199088e-13
   176   -9.608464169909e-15
   177    1.962366656111e-03
   178    5.055700552434e-17
   179    1.553845819870e-16
   180    4.859846894249e-02
   181   -1.789463341376e-14
   182    1.253492233744e-02
   183    2.838313615119e-15
   184   -1.621696894002e-15
   185    1.466128649938e-01
   186   -9.656101101800e-14
   187   -7.261582984555e-16
   188    9.324886326370e-04
   189    1.821553408306e-15
   190    1.497552217877e-16
   191   -1.918116090714e-16
   192   -2.270058446179e-03
   193   -5.265838905661e-15
Sym=X
Ene= 1.004721
Spin=Alpha
Occup=0
     1   -3.145527446126e-16
     2   -1.445723281602e-15
     3   -6.867009837333e-15
     4    3.356377867508e-14
     5   -7.494665132401e-13
     6    1.808502014517e-13
     7   -2.545462091064e-15
     8    8.888916214418e-16
     9   -4.557207192647e-16
    10    6.631794705423e-15
    11   -2.411744628739e-15
    12    1.022631507383e-15
    13    5.642919324562e-15
    14   -1.277054633916e-15
    15    6.209020338962e-16
    16   -2.297617243136e-14
    17    4.391883449799e-14
    18   -5.592103517082e-15
    19   -3.278487122945e-14
    20   -1.513118629915e-15
    21   -1.303497575936e-15
    22   -6.768778258541e-13
    23   -1.759381471902e-03
    24   -2.926709612319e-14
    25   -1.506562508939e-15
    26   -1.175833364668e-15
    27   -8.212580020677e-13
    28   -3.226803656734e-02
    29    1.169483540887e-13
    30    3.821655111908e-15
    31    2.871935733661e-15
    32    3.811698889772e-12
    33    1.595711196346e-01
    34   -1.581342129333e-13
    35    1.322796709409e-14
    36    1.043120557571e-14
    37   -1.363066575949e-11
    38    2.108023165593e-01
    39   -3.428826428585e-17
    40   -1.335034891255e-16
    41   -1.047786108501e-16
    42    4.528751784875e-16
    43    1.904989983748e-17
    44    2.305230110236e-16
    45   -3.461035914787e-16
    46   -1.435418833459e-15
    47    1.133710599229e-15
    48    1.164192779292e-14
    49   -3.273645589476e-13
    50    5.212051142099e-12
    51    3.982104060416e-13
    52   -8.364722059866e-02
    53   -3.662148870223e-15
    54    2.350464091265e-14
    55   -1.708732026327e-02
    56   -5.400380808964e-16
    57    2.201695102576e-13
    58    1.318507440016e-02
    59   -5.469627812840e-17
    60   -4.161794931316e-12
    61    6.028425180880e-01
    62    2.853097285767e-14
    63    4.752381713047e-12
    64   -6.711715306793e-01
    65   -3.840043314117e-14
    66   -4.966475556104e-13
    67   -2.614211049361e-15
    68   -5.254109371582e-17
    69    2.656468914607e-13
    70   -2.192265120600e-03
    71   -9.623613398411e-13
    72   -8.655160092647e-15
    73   -9.686584014378e-16
    74    1.149111538453e-13
    75   -2.307311633058e-02
    76   -6.724599514086e-17
    77   -8.174772892019e-14
    78    5.273902809347e-04
    79    4.896198271536e-16
    80    2.666147455727e-16
    81    8.503199554107e-14
    82    2.206902799769e-03
    83    2.293202831413e-14
    84    9.952080278334e-15
    85   -1.511358058121e-13
    86    7.359100171882e-13
    87   -5.515204192749e-12
    88   -8.364722076277e-02
    89   -4.772719809744e-13
    90   -1.435997952493e-15
    91   -1.708732027038e-02
    92   -3.483929541218e-14
    93   -2.861067568107e-16
    94    1.318507431502e-02
    95   -2.304561474337e-13
    96    2.660174315057e-16
    97    6.028425196549e-01
    98    4.820873545542e-12
    99    1.032985292556e-14
   100   -6.711715328533e-01
   101   -5.666338672319e-12
   102   -1.475404049785e-14
   103    5.077073484591e-13
   104    8.000477200277e-16
   105   -1.851129524086e-15
   106    3.041906607196e-13
   107   -2.192265232277e-03
   108    9.730023592533e-13
   109    4.161477094708e-16
   110   -4.652349781116e-15
   111    1.356576439690e-13
   112   -2.307311671845e-02
   113   -2.895366391712e-17
   114    5.273902809591e-04
   115    8.566584267201e-14
   116    6.185043411402e-16
   117   -4.678220933098e-16
   118   -2.206902793729e-03
   119    8.551554346767e-14
   120    2.243366917396e-14
   121    1.024756263979e-14
   122   -1.474828169849e-13
   123    7.165858532693e-13
   124   -5.476647215297e-12
   125    8.364722076276e-02
   126    4.848219497515e-13
   127    2.890250396975e-15
   128    1.708732027038e-02
   129    3.603976323283e-14
   130    4.121532474913e-17
   131   -1.318507431502e-02
   132    2.311781108841e-13
   133    1.914880656510e-15
   134   -6.028425196548e-01
   135   -4.886147625629e-12
   136   -2.660003840216e-14
   137    6.711715328533e-01
   138    5.771870463172e-12
   139    3.547249513588e-14
   140    5.075466133694e-13
   141   -4.994548104963e-16
   142   -1.514760502907e-15
   143    3.135021150846e-13
   144   -2.192265232279e-03
   145    9.675811146097e-13
   146   -1.574515597260e-15
   147   -5.984308364720e-15
   148    1.629544445176e-13
   149   -2.307311671845e-02
   150   -2.912593235298e-16
   151   -5.273902809590e-04
   152   -8.588714858479e-14
   153    6.058113188976e-16
   154    2.675679595576e-16
   155    2.206902793729e-03
   156   -8.567788220245e-14
   157   -3.002017091912e-15
   158   -2.249157886367e-16
   159    2.117023915256e-14
   160   -3.511777265994e-13
   161    5.213934790439e-12
   162   -3.864672615495e-13
   163    8.364722059865e-02
   164    8.574212283691e-16
   165   -2.070788063170e-14
   166    1.708732026327e-02
   167   -4.351701868684e-16
   168   -2.221194143559e-13
   169   -1.318507440016e-02
   170    1.502069880658e-15
   171    4.075027213086e-12
   172   -6.028425180879e-01
   173   -1.028730941147e-14
   174   -4.673536503536e-12
   175    6.711715306792e-01
   176    1.856899976144e-14
   177   -4.905953815671e-13
   178    8.736010666742e-16
   179    2.547061871793e-17
   180    2.701587959191e-13
   181   -2.192265120601e-03
   182   -9.164455185111e-13
   183   -5.724571085610e-16
   184   -1.191274881498e-15
   185    1.322706449343e-13
   186   -2.307311633058e-02
   187   -3.335444427124e-16
   188    8.235837708460e-14
   189   -5.273902809349e-04
   190    3.867766342716e-16
   191    8.178140549369e-17
   192   -8.588615929561e-14
   193   -2.206902799769e-03
Sym=X
Ene= 1.015588
Spin=Alpha
Occup=0
     1   -3.006702810700e-11
     2    8.588246506306e-11
     3   -2.506140019071e-10
     4   -1.555045405866e-10
     5   -7.553096399195e-10
     6    6.926788215819e-10
     7   -6.923594371297e-15
     8   -3.052774895489e-14
     9   -3.499795368121e-15
    10    1.946252336268e-14
    11    8.472442734798e-14
    12    6.201271816168e-15
    13    6.840699068398e-15
    14    2.449287481464e-14
    15    2.654640899988e-14
    16   -2.514850307167e-14
    17   -8.042161026756e-14
    18   -1.596889303286e-13
    19   -1.168732629361e-10
    20    4.346358976771e-15
    21    7.871904406520e-15
    22   -7.710864000814e-02
    23    6.086509318954e-14
    24   -1.710794700027e-10
    25    9.258221253058e-15
    26    7.999249406382e-15
    27   -9.660132979583e-02
    28    2.964820987064e-13
    29    6.528528465039e-10
    30   -1.281322798583e-14
    31   -2.957930957585e-14
    32    4.506584215593e-01
    33   -1.345562656517e-12
    34   -1.445948682742e-09
    35   -1.174551680864e-14
    36    1.224813386811e-13
    37   -1.771362036844e+00
    38   -2.148094788376e-12
    39    2.697230248763e-16
    40    1.218578867370e-15
    41   -1.342959488738e-15
    42    2.138132416515e-17
    43   -1.311451138571e-16
    44   -1.052868729701e-15
    45   -3.182972870601e-15
    46    1.344594788224e-03
    47    1.399897224436e-03
    48   -8.197698933676e-03
    49   -2.306603975741e-02
    50    6.847875237016e-01
    51    4.715391763019e-02
    52    7.585367255898e-13
    53    3.668105997429e-14
    54    3.065673822783e-03
    55    1.342471054729e-13
    56    4.786758034876e-15
    57    2.488081963299e-02
    58   -3.442386715357e-14
    59    5.819756516901e-15
    60   -4.925043826173e-01
    61   -5.756080576992e-12
    62   -2.951885516965e-13
    63    5.405061816246e-01
    64    6.854873292740e-12
    65    3.436406095511e-13
    66   -6.349596559345e-02
    67   -6.785624599239e-15
    68   -2.402976408096e-14
    69    3.343460760731e-02
    70    1.381803961134e-13
    71   -1.347037033593e-01
    72    8.434141905193e-14
    73   -5.520313612848e-14
    74    1.634921009361e-02
    75    6.330224151122e-13
    76    1.105187718818e-14
    77   -9.899723030495e-03
    78   -1.630198937626e-14
    79   -1.409716331814e-14
    80    8.139576049927e-16
    81    1.002168920935e-02
    82   -1.143204152835e-14
    83   -1.344594839200e-03
    84   -1.399897258515e-03
    85    8.197699262165e-03
    86    2.306603891190e-02
    87   -6.847875240022e-01
    88    5.712196913952e-13
    89   -4.715391794863e-02
    90    1.783662056765e-14
    91    1.239309770055e-13
    92   -3.065673912532e-03
    93    4.392948988411e-15
    94   -1.181831206927e-13
    95   -2.488081949082e-02
    96   -8.062367264028e-15
    97   -4.027552678301e-12
    98    4.925043847925e-01
    99   -1.100853955832e-13
   100    4.466083827358e-12
   101   -5.405061839127e-01
   102    8.182791488866e-14
   103    6.349596553878e-02
   104   -6.914021824959e-15
   105   -6.216097496985e-17
   106    3.343460774467e-02
   107   -4.486135346939e-14
   108    1.347037030720e-01
   109   -4.812222367079e-14
   110    8.739704664242e-14
   111    1.634921036118e-02
   112    2.972304341672e-14
   113   -3.823424160713e-15
   114   -6.633926043995e-16
   115    9.899723055563e-03
   116   -1.064955056173e-15
   117    5.986211154103e-15
   118    3.222757076395e-14
   119    1.002168923141e-02
   120   -1.344594839216e-03
   121   -1.399897258525e-03
   122    8.197699262270e-03
   123    2.306603891163e-02
   124   -6.847875240021e-01
   125   -5.973449964616e-13
   126    4.715391794877e-02
   127    3.115842939655e-14
   128   -1.292907016460e-13
   129    3.065673912565e-03
   130    6.297813860396e-15
   131    1.250921397445e-13
   132    2.488081949078e-02
   133   -7.577809152372e-15
   134    4.202749798431e-12
   135   -4.925043847934e-01
   136   -2.297406404967e-13
   137   -4.630519180441e-12
   138    5.405061839136e-01
   139    3.222942030119e-13
   140    6.349596553874e-02
   141    2.696551393129e-14
   142    1.278077832127e-14
   143    3.343460774466e-02
   144   -6.238026147877e-14
   145    1.347037030718e-01
   146    2.902351638416e-14
   147    9.098718049390e-15
   148    1.634921036122e-02
   149   -4.634182984185e-14
   150   -2.551776882325e-15
   151    9.286142902944e-16
   152   -9.899723055572e-03
   153   -1.249572199955e-15
   154   -3.678460304259e-15
   155   -3.036603967951e-14
   156   -1.002168923140e-02
   157    1.344594788217e-03
   158    1.399897224431e-03
   159   -8.197698933629e-03
   160   -2.306603975755e-02
   161    6.847875237017e-01
   162   -4.715391763016e-02
   163   -8.536283173870e-13
   164    2.424226456701e-14
   165   -3.065673822778e-03
   166   -1.603657528848e-13
   167    1.011473977224e-14
   168   -2.488081963299e-02
   169    7.783355605584e-14
   170   -3.529856130763e-14
   171    4.925043826171e-01
   172    6.366340081691e-12
   173   -1.096643793906e-13
   174   -5.405061816244e-01
   175   -7.411462610502e-12
   176    1.519384647896e-13
   177   -6.349596559346e-02
   178    9.445431206181e-15
   179   -2.925132063173e-14
   180    3.343460760731e-02
   181    6.973141767594e-14
   182   -1.347037033593e-01
   183    6.872486641839e-15
   184    7.902654412136e-14
   185    1.634921009360e-02
   186    3.570808307692e-13
   187   -1.057449810468e-14
   188    9.899723030495e-03
   189    7.838804186245e-15
   190    1.201412067016e-14
   191   -1.006435829822e-15
   192   -1.002168920935e-02
   193    5.755081442986e-15
[5D7F]

======= END OF MOLDEN-FORMATTED INPUT FILE =======


        *************************************************************
        *                                                           *
        *  Thank you very much for using Q-Chem.  Have a nice day.  *
        *                                                           *
        *************************************************************


