                  Welcome to Q-Chem
     A Quantum Leap Into The Future Of Chemistry


 Q-Chem 6.0 (devel), Q-Chem, Inc., Pleasanton, CA (2022)

 E. Epifanovsky,  A. T. B. Gilbert,  Xintian Feng,  Joonho Lee,  Yuezhi Mao,  
 N. Mardirossian,  P. Pokhilko,  A. White,  M. Wormit,  M. P. Coons,  
 A. L. Dempwolff,  Zhengting Gan,  D. Hait,  P. R. Horn,  L. D. Jacobson,  
 I. Kaliman,  J. Kussmann,  A. W. Lange,  Ka Un Lao,  D. S. Levine,  Jie Liu,  
 S. C. McKenzie,  A. F. Morrison,  K. Nanda,  F. Plasser,  D. R. Rehn,  
 M. L. Vidal,  Zhi-Qiang You,  Ying Zhu,  B. Alam,  B. Albrecht,  
 A. Aldossary,  E. Alguire,  J. H. Andersen,  V. Athavale,  D. Barton,  
 K. Begam,  A. Behn,  N. Bellonzi,  Y. A. Bernard,  E. J. Berquist,  
 H. Burton,  A. Carreras,  K. Carter-Fenk,  Romit Chakraborty,  
 Chandrima Chakravarty,  Junhan Chen,  A. D. Chien,  K. D. Closser,  
 V. Cofer-Shabica,  L. Cunha,  S. Dasgupta,  Jia Deng,  M. de Wergifosse,  
 M. Diedenhofen,  Hainam Do,  S. Ehlert,  Po-Tung Fang,  S. Fatehi,  
 Qingguo Feng,  T. Friedhoff,  B. Ganoe,  J. Gayvert,  Qinghui Ge,  
 G. Gidofalvi,  M. Goldey,  J. Gomes,  C. Gonzalez-Espinoza,  S. Gulania,  
 A. Gunina,  J. A. Gyamfi,  M. W. D. Hanson-Heine,  P. H. P. Harbach,  
 A. W. Hauser,  M. F. Herbst,  M. Hernandez Vera,  M. Hodecker,  
 Z. C. Holden,  S. Houck,  Xunkun Huang,  Kerwin Hui,  B. C. Huynh,  
 K. Ikeda,  M. Ivanov,  Hyunjun Ji,  Zuxin Jin,  Hanjie Jiang,  B. Kaduk,  
 S. Kaehler,  R. Kang,  K. Khistyaev,  Jaehoon Kim,  Yongbin Kim,  
 P. Klunzinger,  Z. Koczor-Benda,  Joong Hoon Koh,  D. Kosenkov,  
 Saikiran Kotaru,  L. Koulias,  T. Kowalczyk,  C. M. Krauter,  K. Kue,  
 A. Kunitsa,  T. Kus,  A. Landau,  K. V. Lawler,  D. Lefrancois,  S. Lehtola,  
 Rain Li,  Shaozhi Li,  Yi-Pei Li,  Jiashu Liang,  M. Liebenthal,  
 Hung-Hsuan Lin,  You-Sheng Lin,  Fenglai Liu,  Kuan-Yu Liu,  
 M. Loipersberger,  A. Luenser,  C. Malbon,  A. Manjanath,  P. Manohar,  
 E. Mansoor,  S. F. Manzer,  Shan-Ping Mao,  A. V. Marenich,  T. Markovich,  
 S. Mason,  F. Matz,  S. A. Maurer,  P. F. McLaughlin,  M. F. S. J. Menger,  
 J.-M. Mewes,  S. A. Mewes,  P. Morgante,  Mohammad Mostafanejad,  
 J. W. Mullinax,  K. J. Oosterbaan,  G. Paran,  V. Parravicini,  
 Alexander C. Paul,  Suranjan K. Paul,  F. Pavosevic,  Zheng Pei,  S. Prager,  
 E. I. Proynov,  E. Ramos,  B. Rana,  A. E. Rask,  A. Rettig,  R. M. Richard,  
 F. Rob,  E. Rossomme,  T. Scheele,  M. Scheurer,  M. Schneider,  
 P. E. Schneider,  N. Sergueev,  S. M. Sharada,  Hengyuan Shen,  
 W. Skomorowski,  D. W. Small,  C. J. Stein,  Yingli Su,  Yu-Chuan Su,  
 E. J. Sundstrom,  Zhen Tao,  J. Thirman,  Hung-Yi Tsai,  T. Tsuchimochi,  
 N. M. Tubman,  C. Utku,  S. P. Veccham,  O. Vydrov,  J. Wenzel,  
 Jonathan Wong,  J. Witte,  A. Yamada,  Chou-Hsun Yang,  Kun Yao,  
 S. Yeganeh,  S. R. Yost,  A. Zech,  F. Zeller,  Igor Ying Zhang,  
 Xing Zhang,  Yu Zhang,  D. Zuev,  A. Aspuru-Guzik,  A. T. Bell,  
 N. A. Besley,  K. B. Bravaya,  B. R. Brooks,  D. Casanova,  Jeng-Da Chai,  
 Hsing-Ta Chen,  S. Coriani,  C. J. Cramer,  A. E. DePrince, III,  
 R. A. DiStasio Jr.,  A. Dreuw,  B. D. Dunietz,  T. R. Furlani,  
 W. A. Goddard III,  S. Grimme,  S. Hammes-Schiffer,  T. Head-Gordon,  
 W. J. Hehre,  Chao-Ping Hsu,  T.-C. Jagau,  Yousung Jung,  A. Klamt,  
 Jing Kong,  D. S. Lambrecht,  Xiangyuan Li,  WanZhen Liang,  N. J. Mayhall,  
 C. W. McCurdy,  J. B. Neaton,  T. Neudecker,  C. Ochsenfeld,  
 J. A. Parkhill,  R. Peverati,  V. A. Rassolov,  Haisheng Ren,  Yihan Shao,  
 L. V. Slipchenko,  R. P. Steele,  J. E. Subotnik,  A. J. W. Thom,  
 A. Tkatchenko,  D. G. Truhlar,  T. Van Voorhis,  Fan Wang,  
 T. A. Wesolowski,  K. B. Whaley,  H. L. Woodcock III,  P. M. Zimmerman,  
 S. Faraji,  P. M. W. Gill,  M. Head-Gordon,  J. M. Herbert,  A. I. Krylov

 Contributors to earlier versions of Q-Chem not listed above: 
 R. D. Adamson,  B. Austin,  R. Baer,  J. Baker,  G. J. O. Beran,  
 K. Brandhorst,  S. T. Brown,  E. F. C. Byrd,  Arup K. Chakraborty,  
 G. K. L. Chan,  Chun-Min Chang,  Yunqing Chen,  C.-L. Cheng,  
 Siu Hung Chien,  D. M. Chipman,  D. L. Crittenden,  H. Dachsel,  
 R. J. Doerksen,  A. D. Dutoi,  R. G. Edgar,  J. Fosso-Tande,  
 L. Fusti-Molnar,  D. Ghosh,  A. Ghysels,  A. Golubeva-Zadorozhnaya,  
 J. Gonthier,  M. S. Gordon,  S. R. Gwaltney,  G. Hawkins,  J. E. Herr,  
 A. Heyden,  S. Hirata,  E. G. Hohenstein,  G. Kedziora,  F. J. Keil,  
 C. Kelley,  Jihan Kim,  R. A. King,  R. Z. Khaliullin,  P. P. Korambath,  
 W. Kurlancheek,  A. Laurent,  A. M. Lee,  M. S. Lee,  S. V. Levchenko,  
 Ching Yeh Lin,  D. Liotard,  E. Livshits,  R. C. Lochan,  I. Lotan,  
 L. A. Martinez-Martinez,  P. E. Maslen,  N. Nair,  D. P. O'Neill,  
 D. Neuhauser,  E. Neuscamman,  C. M. Oana,  R. Olivares-Amaya,  R. Olson,  
 T. M. Perrine,  B. Peters,  P. A. Pieniazek,  A. Prociuk,  Y. M. Rhee,  
 J. Ritchie,  M. A. Rohrdanz,  E. Rosta,  N. J. Russ,  H. F. Schaefer III,  
 M. W. Schmidt,  N. E. Schultz,  S. Sharma,  N. Shenvi,  C. D. Sherrill,  
 A. C. Simmonett,  A. Sodt,  T. Stein,  D. Stuck,  K. S. Thanthiriwatte,  
 V. Vanovschi,  L. Vogt,  Tao Wang,  A. Warshel,  M. A. Watson,  
 C. F. Williams,  Q. Wu,  X. Xu,  Jun Yang,  W. Zhang,  Yan Zhao

   Please cite Q-Chem as follows:
  "Software for the frontiers of quantum chemistry:
   An overview of developments in the Q-Chem 5 package"
   J. Chem. Phys. 155, 084801 (2021)
   https://doi.org/10.1063/5.0055522 (open access)

 Q-Chem 6.0.1 for Intel X86 EM64T Linux

 Parts of Q-Chem use Armadillo 9.900.5 (Nocturnal Misbehaviour).
 http://arma.sourceforge.net/

 Q-Chem begins on Tue Sep  5 10:42:13 2023  

 Host: atlas-204
0

     Scratch files written to ./qchem195666//
 Processing $rem in /scratch/abel/SOFTWARE/qchem/config/preferences:
 Processing $rem in /dipc/acebg/.qchemrc:

 Checking the input file for inconsistencies... 	...done.

--------------------------------------------------------------
User input:
--------------------------------------------------------------
$comment
 RAS-SF CALCULATION
$end

$molecule
 READ 2n1.molecule
$end

$rem
!**CALCULATION TYPE***     
JOBTYPE            sp    
EXCHANGE           HF
CORRELATION        RASCI    !RASCI=Casanova; RASCI2=Zimmerman
BASIS              6-311G(d,p)

!***SCF REFERENCE***
!SKIP_SCFMAN        FALSE
UNRESTRICTED       FALSE
!SCF_GUESS          core
!SCF_GUESS_MIX      FALSE
!SCF_GUESS_ALWAYS   FALSE
MAX_SCF_CYCLES     500
!SCF_CONVERGENCE    8
!SCF_ALGORITHM      DIIS !DIIS,DM,DIIS_DM,GDM,DIIS_GDM,GD

!SYMMETRY           TRUE   !use of symmetry for calculating integrals
!SYM_IGNORE         FALSE  !turn off using symmetry
!SYM_TOL            5      !tolerance for determining point group
!USE_ABELIAN_SUBGROUP      !define to use abelian group

!THRESH             14
SCF_FINAL_PRINT     1 !0,1,2,3

!****RAS-SF****
RAS_ROOTS          20       !number of RAS-CI roots to be computed
SET_ITER           100     !number of iterations in RASCI
RAS_ELEC           7       !number of electrons in RAS2
!RAS_ELEC_ALPHA     6       !spin-α electrons in RAS2 
!RAS_ELEC_BETA      4       !spin-β electrons in RAS2

RAS_ACT            7       !number of orbitals in RAS2 
RAS_ACT_ORB  [70,71,72,73,74,75,76] !user-selected RAS2 orbitals
RAS_OCC            69       !number of orbitals in RAS1
!N_FROZEN_CORE      47     !Number of frozen core orbitals
!N_FROZEN_VIRTUAL   371      !Number of frozen virtual orbitals

RAS_DO_HOLE        TRUE   !presence of hole excitations in RAS-CI wave function
RAS_DO_PART        TRUE   !presence of particle excitations
!RAS_AMPL_PRINT     10     !threshold (×10 2 ) for the CI amplitudes

!RAS_GUESS_CS       0      !number of closed shell guess conﬁgurations
!RAS_SPIN_MULT      0      !spin multiplicity. Only for Ms = 0 
!RAS_SRDFT          FALSE  !short-range density functional RAS-CI
!RAS_NFRAG          0     !fragments of excitation analysis in RASCI

RAS_PRINT          2      !level of information
RAS_NATORB         TRUE   !computation of the natural orbital occupancies
!RAS_NATORB_STATE  0      !Saves NO of i RAS computed state in .fchk ﬁle
!RAS_FOD            TRUE

!****RAS-SOC****
CALC_SOC           TRUE   !calculate SOC for EOM-CC, RAS-CI, ADC, TDDFT/TDA and TDDFT
!RAS_SOC_2E        TRUE   !two-electron mean-ﬁeld contribution, default=true
RAS_SOC_SYM_DENS   TRUE   !averaging of α and β densities

!****MEMORY****
MEM_TOTAL          12000 !Default 2000 MB
MEM_STATIC         3000  !Default 64 MB

!**Molecular Properties and Analysis **                                                                                          
POP_MULLIKEN       TRUE   !Run Mulliken population analysis
LOWDIN_POPULATION  TRUE   !Run Löwdin population analysis
GUI                2       !Checkpoints generation
STATE_ANALYSIS     TRUE

!**Wave function analysis of RAS-CI states: MOLDEN**
!PLOTS = 0     ! Note: This can be omitted, default is 0
!NTO_PAIRS = 2 ! Note: This can be omitted, default is 2
!GUI 0
!MOLDEN_FORMAT      TRUE
!PRINT_ORBITALS     15

!**Wave function analysis of RAS-CI state: CUBE**
!NTO_PAIRS = 2 ! Note: This can be omitted, default is 2
!PLOTS = 1
!GUI 0

!**SR-DFT**
!RAS_SRDFT           TRUE !Perform short-range density functional RAS-CI
!RAS_SRDFT_EXC       0 !EX functional. 0=HF. 
!RAS_SRDFT_ONLY_COR  TRUE !No use of EXC functional
!RAS_SRDFT_COR       srPBE !short-range correlation functional
!ras_srdft_0         TRUE !true: no iteration (one-shot); false: iteration
!RAS_OMEGA           400 !Coulomb range-separation parameter. def=400
!RAS_SRDFT_DAMP     0.5 !dumping factor. def=0.5
$end

!$plots
!   grid_points 100 100 100
!   grid_range  (-10,10) (-10,10) (-10,10)
!$end
--------------------------------------------------------------
 ----------------------------------------------------------------
             Standard Nuclear Orientation (Angstroms)
    I     Atom           X                Y                Z
 ----------------------------------------------------------------
    1      N       0.0000013996    -0.0030897928    -0.0000000000
    2      C      -0.0007188792     1.3908000263    -0.0000000000
    3      C       1.2129231599    -0.7035375130     0.0000000000
    4      C      -1.2121865205    -0.7048018866    -0.0000000000
    5      C       1.2300034795     2.1054301032     0.0000000000
    6      C       2.4315005640     1.4158374640     0.0000000000
    7      H       3.3676056093     1.9616206482     0.0000000000
    8      C       2.4549881186     0.0050574481     0.0000000000
    9      C       3.6596260811    -0.7097938409     0.0000000000
   10      H       4.5892974965    -0.1555834265     0.0000000000
   11      C       3.6508352065    -2.1010077557     0.0000000000
   12      H       4.5903580882    -2.6415732002     0.0000000000
   13      C       2.4659555656    -2.7987180888     0.0000000000
   14      H       2.4579620379    -3.8819016317     0.0000000000
   15      C       1.2135170558    -2.1290473894     0.0000000000
   16      C       0.0014742349    -2.8193794197     0.0000000000
   17      H       0.0020307021    -3.9025492805     0.0000000000
   18      C      -1.2112926246    -2.1303116338    -0.0000000000
   19      C      -2.4630337878    -2.8012807584    -0.0000000000
   20      H      -2.4539073128    -3.8844669285    -0.0000000000
   21      C      -3.6486438323    -2.1048112768    -0.0000000000
   22      H      -4.5876007033    -2.6463556888    -0.0000000000
   23      C      -3.6588829561    -0.7136055573    -0.0000000000
   24      H      -4.5891312949    -0.1603661175    -0.0000000000
   25      C      -2.4549912366     0.0025029651    -0.0000000000
   26      C      -2.4329787954     1.4133025756    -0.0000000000
   27      H      -3.3696534990     1.9580992471    -0.0000000000
   28      C      -1.2322061974     2.1041497524    -0.0000000000
   29      C      -1.2003188518     3.5267836166    -0.0000000000
   30      H      -2.1464159836     4.0539962287    -0.0000000000
   31      C      -0.0021964990     4.2181996521    -0.0000000000
   32      H      -0.0027630868     5.3016495086    -0.0000000000
   33      C       1.1966308312     3.5280358631     0.0000000000
   34      H       2.1421834507     4.0562331144     0.0000000000
 ----------------------------------------------------------------
 Molecular Point Group                 Cs    NOp =  2
 Largest Abelian Subgroup              Cs    NOp =  2
 Nuclear Repulsion Energy =        1623.05446091 hartrees
 There are       73 alpha and       72 beta electrons
 Requested basis set is 6-311G(d,p)
 There are 158 shells and 468 basis functions

 Total QAlloc Memory Limit  12000 MB
 Mega-Array Size      2933 MB
 MEM_STATIC part      3000 MB

 A cutoff of  1.0D-09 yielded   7090 shell pairs
 There are     68696 function pairs (     75127 Cartesian)
 Smallest overlap matrix eigenvalue = 1.09E-04

 Scale SEOQF with 1.000000e-01/1.000000e-02/1.000000e+00

 Standard Electronic Orientation quadrupole field applied
 Nucleus-field energy     =     0.0000000315 hartrees
 Guess from superposition of atomic densities
 Warning:  Energy on first SCF cycle will be non-variational
 SAD guess density has 145.000000 electrons

 -----------------------------------------------------------------------
  General SCF calculation program by
  Eric Jon Sundstrom, Paul Horn, Yuezhi Mao, Dmitri Zuev, Alec White,
  David Stuck, Shaama M.S., Shane Yost, Joonho Lee, David Small,
  Daniel Levine, Susi Lehtola, Hugh Burton, Evgeny Epifanovsky,
  Bang C. Huynh
 -----------------------------------------------------------------------
 Hartree-Fock
 Orthonormalizing orbitals
 A restricted open-shell SCF calculation will be
 performed using GDM
 SCF converges when RMS gradient is below 1.0e-05
 ---------------------------------------
  Cycle       Energy        RMS Gradient
 ---------------------------------------
    1    -853.5642266516      2.91e-01   Descent step
    2    -854.3530720059      2.39e-01   Descent step
    3    -855.0190721862      1.86e-01   Descent step
    4    -855.5691770782      1.42e-01   Descent step
    5    -856.0096387735      1.11e-01   Descent step
    6    -856.3462777564      8.59e-02   Descent step
    7    -856.5846345266      6.44e-02   Descent step
    8    -856.7301525594      4.51e-02   Dog-leg BFGS step
    9    -856.7891195566      1.34e-02   Normal BFGS step
   10    -856.7919688622      7.58e-03   Normal BFGS step
   11    -856.7922617066      4.94e-03   Normal BFGS step
   12    -856.7923996237      1.30e-03   Normal BFGS step
   13    -856.7924262713      6.87e-04   Normal BFGS step
   14    -856.7924312351      6.33e-04   Normal BFGS step
   15    -856.7924316172      2.32e-04   Normal BFGS step
   16    -856.7924318256      1.28e-04   Normal BFGS step
   17    -856.7924321795      1.09e-04   Normal BFGS step
   18    -856.7924324358      3.87e-05   Normal BFGS step
   19    -856.7924325738      1.61e-05   Normal BFGS step
   20    -856.7924329243      7.22e-06  Convergence criterion met
The disked orbital energies are calculated using alpha and beta Focks
 ---------------------------------------
 Alpha HF Exchange    Energy = -60.22789082897734
 Beta HF Exchange     Energy = -59.78186058005018
 Nuclear Attraction   Energy =   0.00000000000000
 One-Electron (alpha) Energy = -2203.92154084899266
 One-Electron (beta)  Energy = -2180.36785505024636
 Total Coulomb        Energy = 2024.45225344268192
 Final Alpha MO Eigenvalues
            1           2           3           4           5           6
    1 -15.7048339 -11.3114244 -11.3114005 -11.3061792 -11.2722792 -11.2722490
            7           8           9          10          11          12
    1 -11.2641319 -11.2641319 -11.2607385 -11.2615305 -11.2567242 -11.2567194
           13          14          15          16          17          18
    1 -11.2579184 -11.2563281 -11.2563269 -11.2343667 -11.2343637 -11.2103028
           19          20          21          22          23          24
    1 -11.2101314 -11.2101232 -11.2092745 -11.2092677  -1.3624415  -1.1933813
           25          26          27          28          29          30
    1  -1.1814164  -1.1572691  -1.1105681  -1.1080787  -1.0505501  -1.0362775
           31          32          33          34          35          36
    1  -1.0370696  -1.0252619  -0.9394503  -0.9240652  -0.9018733  -0.8916824
           37          38          39          40          41          42
    1  -0.8904260  -0.8246929  -0.7848007  -0.7671050  -0.7600876  -0.7547891
           43          44          45          46          47          48
    1  -0.7440679  -0.6840398  -0.6836024  -0.6625300  -0.6497169  -0.6464167
           49          50          51          52          53          54
    1  -0.6411055  -0.6381067  -0.6117701  -0.6080156  -0.6052876  -0.5762687
           55          56          57          58          59          60
    1  -0.5679549  -0.5488032  -0.5466797  -0.5329414  -0.5417004  -0.5265318
           61          62          63          64          65          66
    1  -0.5281815  -0.5063947  -0.4869708  -0.4858031  -0.4913345  -0.4480071
           67          68          69          70          71          72
    1  -0.4420851  -0.3797465  -0.3508483  -0.3396537  -0.3440087  -0.1899578
           73          74          75          76          77          78
    1  -0.2446062   0.0315825   0.0917776   0.0958430   0.1090252   0.1442698
           79          80          81          82          83          84
    1   0.1596339   0.1638920   0.1749389   0.1782239   0.1927565   0.1868152
           85          86          87          88          89          90
    1   0.2015129   0.2164844   0.2160678   0.2246668   0.2240929   0.2597258
           91          92          93          94          95          96
    1   0.2619466   0.2752205   0.3311240   0.3488096   0.3487913   0.3574919
           97          98          99         100         101         102
    1   0.3643741   0.3914080   0.3969070   0.3980041   0.3991828   0.4095534
          103         104         105         106         107         108
    1   0.4186834   0.4235584   0.4374691   0.4465252   0.4619153   0.4636615
          109         110         111         112         113         114
    1   0.4707300   0.4791147   0.4801215   0.4952457   0.4979268   0.5129918
          115         116         117         118         119         120
    1   0.5137880   0.5311622   0.5469653   0.5548658   0.5571687   0.5606780
          121         122         123         124         125         126
    1   0.5701640   0.5727299   0.5810877   0.5874380   0.5948347   0.5972600
          127         128         129         130         131         132
    1   0.5949347   0.6062257   0.6091823   0.6146158   0.6147345   0.6290352
          133         134         135         136         137         138
    1   0.6349908   0.6398743   0.6380785   0.6491759   0.6561148   0.6568529
          139         140         141         142         143         144
    1   0.6616243   0.6607923   0.6668411   0.6765802   0.6770391   0.6832196
          145         146         147         148         149         150
    1   0.6892514   0.7120358   0.7127824   0.7180356   0.7190088   0.7324311
          151         152         153         154         155         156
    1   0.7369247   0.7467288   0.7491467   0.7712153   0.7735462   0.7744825
          157         158         159         160         161         162
    1   0.8040835   0.8045301   0.8088749   0.8202858   0.8311349   0.8346291
          163         164         165         166         167         168
    1   0.8415583   0.8414138   0.8428168   0.8506975   0.8596451   0.8647642
          169         170         171         172         173         174
    1   0.8718383   0.8765117   0.8895527   0.9119150   0.9134997   0.9175985
          175         176         177         178         179         180
    1   0.9214231   0.9390153   0.9451501   0.9693569   0.9766074   0.9849099
          181         182         183         184         185         186
    1   1.0130895   1.0171733   1.0196332   1.0484546   1.0494881   1.0569136
          187         188         189         190         191         192
    1   1.0576114   1.0727754   1.0756899   1.0794836   1.0853259   1.0861962
          193         194         195         196         197         198
    1   1.1103465   1.1161324   1.1195619   1.1236829   1.1437974   1.1460290
          199         200         201         202         203         204
    1   1.1497041   1.1522411   1.1738860   1.1772950   1.1783429   1.2165793
          205         206         207         208         209         210
    1   1.2168498   1.2188370   1.2196559   1.2314280   1.2394389   1.2398695
          211         212         213         214         215         216
    1   1.2841830   1.2874306   1.3068690   1.3069238   1.3091117   1.3148895
          217         218         219         220         221         222
    1   1.3134682   1.3137336   1.3248016   1.3302061   1.3446543   1.3493591
          223         224         225         226         227         228
    1   1.3621808   1.3760618   1.3829304   1.3856785   1.4218288   1.4223833
          229         230         231         232         233         234
    1   1.4234490   1.4243107   1.4694210   1.4701893   1.4745386   1.4756543
          235         236         237         238         239         240
    1   1.5250173   1.5480032   1.5542187   1.5640420   1.5668527   1.6099607
          241         242         243         244         245         246
    1   1.6543452   1.6662419   1.6818721   1.6950731   1.7028502   1.7067214
          247         248         249         250         251         252
    1   1.7120121   1.7185775   1.7204176   1.7378655   1.7525079   1.7536076
          253         254         255         256         257         258
    1   1.7758183   1.7761697   1.7821295   1.7982725   1.8049710   1.8133402
          259         260         261         262         263         264
    1   1.8142705   1.8166585   1.8253299   1.8265964   1.8328746   1.8401127
          265         266         267         268         269         270
    1   1.8561475   1.8599744   1.8879972   1.9145076   1.9273928   1.9302481
          271         272         273         274         275         276
    1   1.9501880   1.9532095   1.9547745   1.9799445   1.9937163   2.0209851
          277         278         279         280         281         282
    1   2.0227698   2.0267618   2.0281895   2.0572155   2.0612710   2.0638954
          283         284         285         286         287         288
    1   2.0637841   2.0771809   2.0794987   2.1022752   2.1103345   2.1110914
          289         290         291         292         293         294
    1   2.1153116   2.1188068   2.1242850   2.1810139   2.1930535   2.1927181
          295         296         297         298         299         300
    1   2.1928769   2.1947736   2.2005152   2.2051097   2.2088580   2.2144892
          301         302         303         304         305         306
    1   2.2155492   2.2323688   2.2384983   2.2415414   2.2453876   2.2806769
          307         308         309         310         311         312
    1   2.2866336   2.2908444   2.2918187   2.2931926   2.3326728   2.3828097
          313         314         315         316         317         318
    1   2.3887325   2.4036067   2.4068968   2.4092122   2.4241550   2.4351423
          319         320         321         322         323         324
    1   2.4514899   2.4829304   2.4987501   2.5138495   2.5223561   2.5258120
          325         326         327         328         329         330
    1   2.5429630   2.5449733   2.5563383   2.5749440   2.5853555   2.6054147
          331         332         333         334         335         336
    1   2.6278706   2.6429923   2.6440126   2.6645735   2.6745696   2.6796054
          337         338         339         340         341         342
    1   2.6916563   2.7347469   2.7472719   2.8220064   2.8477422   2.8637146
          343         344         345         346         347         348
    1   2.8753316   2.8887500   2.8933221   2.8959992   2.8995008   2.9002064
          349         350         351         352         353         354
    1   2.9013399   2.9143956   2.9184295   2.9293169   2.9290502   2.9382697
          355         356         357         358         359         360
    1   2.9471196   2.9519083   2.9572504   2.9640203   2.9674235   2.9771302
          361         362         363         364         365         366
    1   2.9891736   2.9953507   2.9965451   3.0080665   3.0162113   3.0269193
          367         368         369         370         371         372
    1   3.0346157   3.0367529   3.0709060   3.0834342   3.0950495   3.1199348
          373         374         375         376         377         378
    1   3.1198211   3.1357987   3.1466360   3.1594881   3.1650782   3.1688700
          379         380         381         382         383         384
    1   3.1710989   3.1895787   3.1925125   3.2182082   3.2383089   3.2441300
          385         386         387         388         389         390
    1   3.2479562   3.2857438   3.2988058   3.3221011   3.3281787   3.3463622
          391         392         393         394         395         396
    1   3.4109940   3.4106251   3.4316471   3.4713313   3.4784537   3.5365125
          397         398         399         400         401         402
    1   3.6186841   3.6386058   3.6400312   3.6740790   3.6797011   3.7103249
          403         404         405         406         407         408
    1   3.7209116   3.7490244   3.7523631   3.7636270   3.7753624   3.8067708
          409         410         411         412         413         414
    1   3.8171291   3.8352469   3.8384597   3.8565645   3.8604178   3.8843922
          415         416         417         418         419         420
    1   3.9039151   3.9344516   3.9351435   3.9854450   3.9993425   4.0075606
          421         422         423         424         425         426
    1   4.0257918   4.0302533   4.0412179   4.0510140   4.0742238   4.3458322
          427         428         429         430         431         432
    1   4.3962483   4.4303284   4.4439249   4.4847617   4.4925570   4.5025556
          433         434         435         436         437         438
    1   4.5037443   4.5239706   4.5270139   4.6374211   4.6413158   4.6671978
          439         440         441         442         443         444
    1   4.9647931   4.9809755   5.2277582   5.2671250   5.2815881   5.2923478
          445         446         447         448         449         450
    1   5.6670980   5.6758011  24.5802835  24.7935977  24.8052795  24.9882208
          451         452         453         454         455         456
    1  24.9898354  25.0162066  25.0684018  25.0704529  25.1109777  25.1116433
          457         458         459         460         461         462
    1  25.1469244  25.1672661  25.1736720  25.2400561  25.2425844  25.2754128
          463         464         465         466         467         468
    1  25.2799779  25.3117858  25.3304445  25.3713721  25.3765280  36.9402486
 Final Beta MO Eigenvalues
            1           2           3           4           5           6
    1 -15.7048337 -11.3109858 -11.3109645 -11.3061791 -11.2722633 -11.2722335
            7           8           9          10          11          12
    1 -11.2641218 -11.2641218 -11.2570978 -11.2556529 -11.2567235 -11.2567188
           13          14          15          16          17          18
    1 -11.2557116 -11.2540454 -11.2540455 -11.2343646 -11.2343616 -11.2103014
           19          20          21          22          23          24
    1 -11.2098321 -11.2098242 -11.2089078 -11.2089013  -1.3617103  -1.1850602
           25          26          27          28          29          30
    1  -1.1782802  -1.1546703  -1.1042006  -1.1013909  -1.0448678  -1.0337907
           31          32          33          34          35          36
    1  -1.0313446  -1.0214191  -0.9227648  -0.9213421  -0.8991039  -0.8896175
           37          38          39          40          41          42
    1  -0.8876925  -0.8198897  -0.7798097  -0.7642499  -0.7584261  -0.7520507
           43          44          45          46          47          48
    1  -0.7427728  -0.6813499  -0.6811266  -0.6584779  -0.6455908  -0.6434942
           49          50          51          52          53          54
    1  -0.6402931  -0.6365225  -0.6101355  -0.6057556  -0.6034546  -0.5735043
           55          56          57          58          59          60
    1  -0.5644275  -0.5477649  -0.5445359  -0.5300577  -0.5188748  -0.5256166
           61          62          63          64          65          66
    1  -0.5186025  -0.5052969  -0.4864292  -0.4844339  -0.4789439  -0.4237224
           67          68          69          70          71          72
    1  -0.4225710  -0.3495339  -0.3433405  -0.3322479  -0.3209279  -0.1755428
           73          74          75          76          77          78
    1   0.0047696   0.0489721   0.1059306   0.1141729   0.1204843   0.1454987
           79          80          81          82          83          84
    1   0.1603924   0.1641582   0.1755278   0.1785917   0.1930348   0.2094300
           85          86          87          88          89          90
    1   0.2023125   0.2172586   0.2318916   0.2250226   0.2328055   0.2607808
           91          92          93          94          95          96
    1   0.2632636   0.2755118   0.3472937   0.3496612   0.3525453   0.3587537
           97          98          99         100         101         102
    1   0.3658817   0.3921804   0.3988423   0.4000664   0.4019457   0.4122954
          103         104         105         106         107         108
    1   0.4212269   0.4253996   0.4379121   0.4488959   0.4633259   0.4657997
          109         110         111         112         113         114
    1   0.4727137   0.4807205   0.4809385   0.4974589   0.4989287   0.5148123
          115         116         117         118         119         120
    1   0.5168831   0.5399904   0.5568911   0.5638090   0.5643335   0.5684942
          121         122         123         124         125         126
    1   0.5730650   0.5763766   0.5822266   0.5947429   0.5995639   0.5991096
          127         128         129         130         131         132
    1   0.6059189   0.6098914   0.6149694   0.6162647   0.6167481   0.6302468
          133         134         135         136         137         138
    1   0.6369204   0.6410379   0.6540870   0.6526756   0.6587932   0.6589410
          139         140         141         142         143         144
    1   0.6641250   0.6685942   0.6705182   0.6777708   0.6787276   0.6842000
          145         146         147         148         149         150
    1   0.6913547   0.7134612   0.7140699   0.7262444   0.7305221   0.7345289
          151         152         153         154         155         156
    1   0.7395229   0.7480103   0.7510546   0.7725941   0.7768374   0.7760276
          157         158         159         160         161         162
    1   0.8053757   0.8117479   0.8107842   0.8204982   0.8333694   0.8373067
          163         164         165         166         167         168
    1   0.8426595   0.8448037   0.8455435   0.8518210   0.8618294   0.8667174
          169         170         171         172         173         174
    1   0.8746481   0.8772722   0.8900871   0.9142499   0.9147412   0.9194467
          175         176         177         178         179         180
    1   0.9229503   0.9421255   0.9463720   0.9708878   0.9787103   0.9861142
          181         182         183         184         185         186
    1   1.0145772   1.0188161   1.0219739   1.0518057   1.0508557   1.0583434
          187         188         189         190         191         192
    1   1.0606365   1.0738859   1.0761990   1.0805009   1.0863783   1.0868846
          193         194         195         196         197         198
    1   1.1117300   1.1180652   1.1207784   1.1249232   1.1452065   1.1478220
          199         200         201         202         203         204
    1   1.1560561   1.1583974   1.1758647   1.1781127   1.1792754   1.2182847
          205         206         207         208         209         210
    1   1.2182508   1.2262593   1.2260855   1.2381804   1.2421803   1.2416643
          211         212         213         214         215         216
    1   1.2938977   1.2913889   1.3088625   1.3123772   1.3104475   1.3154229
          217         218         219         220         221         222
    1   1.3185114   1.3216561   1.3266233   1.3313141   1.3471610   1.3503240
          223         224         225         226         227         228
    1   1.3708624   1.3775953   1.3874395   1.3882534   1.4232355   1.4268822
          229         230         231         232         233         234
    1   1.4248280   1.4264603   1.4704028   1.4715566   1.4752837   1.4776242
          235         236         237         238         239         240
    1   1.5265574   1.5490143   1.5563907   1.5646331   1.5674116   1.6133395
          241         242         243         244         245         246
    1   1.6557863   1.6674361   1.6855817   1.6967647   1.7053710   1.7138378
          247         248         249         250         251         252
    1   1.7127321   1.7195940   1.7235780   1.7391702   1.7546308   1.7544355
          253         254         255         256         257         258
    1   1.7800707   1.7795637   1.7856092   1.8049181   1.8071637   1.8165176
          259         260         261         262         263         264
    1   1.8175730   1.8191775   1.8259024   1.8293053   1.8337488   1.8406485
          265         266         267         268         269         270
    1   1.8585367   1.8614928   1.8893663   1.9158551   1.9282191   1.9344579
          271         272         273         274         275         276
    1   1.9514696   1.9545639   1.9554386   1.9803800   1.9985900   2.0218012
          277         278         279         280         281         282
    1   2.0247838   2.0275531   2.0297667   2.0644097   2.0648843   2.0668038
          283         284         285         286         287         288
    1   2.0680743   2.0803129   2.0807085   2.1069079   2.1117646   2.1152177
          289         290         291         292         293         294
    1   2.1161646   2.1196918   2.1250327   2.1819145   2.1937284   2.1960568
          295         296         297         298         299         300
    1   2.1978417   2.1957728   2.2013201   2.2053624   2.2123446   2.2159597
          301         302         303         304         305         306
    1   2.2207394   2.2370876   2.2392035   2.2419127   2.2473951   2.2823193
          307         308         309         310         311         312
    1   2.2897862   2.2914640   2.2940682   2.2947444   2.3333112   2.3838483
          313         314         315         316         317         318
    1   2.3920431   2.4041403   2.4073233   2.4149237   2.4257810   2.4384340
          319         320         321         322         323         324
    1   2.4530377   2.4838566   2.5010815   2.5151728   2.5282362   2.5261676
          325         326         327         328         329         330
    1   2.5438558   2.5466303   2.5572055   2.5758230   2.5858726   2.6081559
          331         332         333         334         335         336
    1   2.6295469   2.6435238   2.6500856   2.6656379   2.6749641   2.6813779
          337         338         339         340         341         342
    1   2.6927013   2.7352223   2.7476062   2.8235739   2.8503027   2.8645293
          343         344         345         346         347         348
    1   2.8773526   2.8898847   2.8941618   2.8967866   2.9013528   2.9017724
          349         350         351         352         353         354
    1   2.9022794   2.9154091   2.9185677   2.9296991   2.9360363   2.9385717
          355         356         357         358         359         360
    1   2.9480995   2.9529588   2.9623417   2.9643753   2.9694662   2.9778311
          361         362         363         364         365         366
    1   2.9902312   2.9958425   2.9971149   3.0084891   3.0166443   3.0330477
          367         368         369         370         371         372
    1   3.0387654   3.0370913   3.0728949   3.0848877   3.0958800   3.1207897
          373         374         375         376         377         378
    1   3.1315152   3.1366123   3.1470552   3.1644505   3.1654205   3.1702992
          379         380         381         382         383         384
    1   3.1750049   3.1905043   3.1930101   3.2268457   3.2417282   3.2468945
          385         386         387         388         389         390
    1   3.2495951   3.2869161   3.2990524   3.3239467   3.3323411   3.3469231
          391         392         393         394         395         396
    1   3.4138443   3.4163395   3.4333347   3.4732903   3.4793780   3.5373171
          397         398         399         400         401         402
    1   3.6203599   3.6388595   3.6403312   3.6748015   3.6802537   3.7109819
          403         404         405         406         407         408
    1   3.7217555   3.7499737   3.7540112   3.7650095   3.7757671   3.8074560
          409         410         411         412         413         414
    1   3.8186536   3.8359814   3.8390361   3.8573711   3.8615564   3.8847710
          415         416         417         418         419         420
    1   3.9063165   3.9347964   3.9354109   3.9863605   3.9996564   4.0095894
          421         422         423         424         425         426
    1   4.0273691   4.0316023   4.0419268   4.0517182   4.0749344   4.3459522
          427         428         429         430         431         432
    1   4.3980846   4.4318805   4.4442482   4.4893606   4.4940148   4.5029487
          433         434         435         436         437         438
    1   4.5044469   4.5243887   4.5275182   4.6403377   4.6428368   4.6674234
          439         440         441         442         443         444
    1   4.9667816   4.9819679   5.2303883   5.2684121   5.2819456   5.2932211
          445         446         447         448         449         450
    1   5.6674108   5.6760532  24.5807701  24.7945193  24.8055406  24.9890112
          451         452         453         454         455         456
    1  24.9903850  25.0165693  25.0686400  25.0707360  25.1112002  25.1119264
          457         458         459         460         461         462
    1  25.1470624  25.1692154  25.1749634  25.2403217  25.2428872  25.2761619
          463         464         465         466         467         468
    1  25.2807222  25.3118318  25.3319817  25.3714880  25.3766291  36.9402531
 SCF time:   CPU 531.23s  wall 539.00s 
<S^2> =          0.750000000
 SCF   energy in the final basis set =     -856.7924329243
 Total energy in the final basis set =     -856.7924329243
  
     ##========================================##
     ||                                        ||
     ||              R A S M A N 2             ||
     ||________________________________________||
     ||                                        ||
     ||  Author:                               ||
     ||                                        ||
     ||        David Casanova (2010)           ||
     ||                                        ||
     ##========================================##
  
Setting single-point xc-functionals (if necessary)

  ***************************************************
  *  RAS-CI Dimensions:                             *
  *                                                 *
  *  Active Elec.:   7 ( 4, 3)   Active Orb.:   7   *
  *  Doubly Occ. :  69           Doubly Vir.: 392   *
  *  Frozen Occ. :   0           Frozen Vir.:   0   *
  *                                                 *
  *  Total CI configurations:    904785             * 
  *    Active configurations:      1225             * 
  *      Hole configurations:    135240             * 
  *  Particle configurations:    768320             * 
  *                                                 *
  *   Requested states:       20                    *
  *  Spin multiplicity: Any multiplicity            *
  *                                                 *
  ***************************************************
-----------------------------------------
    Memory requirements of RASCI

 Each CI-vector requires      6.90 MiB 
 Max. subspace vectors           2000      

 Reduced Lists                0.00 MiB 
 Excitation Lists             0.00 MiB 
 Excitation Lists Sign        0.00 MiB 
 CI-space (Max)           13974.52 MiB 
 Integrals                  136.35 MiB 
 Memory required (Max)    13974.52 MiB 
 Memory available          2861.02 MiB 

 Q-Chem warning in module rasman2/ras_mem_check.C, line 162:

 Static memory may be insufficient to store the subspace vectors


    Disk requirements of RASCI

 Fock matrix                  3.34 MiB 
 2-electron integrals       259.58 MiB 
 CI-space                 27611.85 MiB 
 Disk required            27874.76 MiB 
-----------------------------------------
  
RAS1 HF-like energy:           -851.5432769808
 Computing integrals
 Computing J and K matrices
 Computing addressing
 Making amplitude guesses
 
Direct CI diagonalization
 ---------------------------------------------------
 Iter    Rts Conv    Rts Left    Ttl Dev     Max Dev
 ---------------------------------------------------
   1         0          20      0.004192    0.000305
   2         0          20      0.002443    0.000158
   3         0          20      0.001892    0.000120
   4         0          20      0.001854    0.000311
   5         0          20      0.001683    0.000237
   6         0          20      0.001511    0.000209
   7         0          20      0.001306    0.000158
   8         0          20      0.001138    0.000121
   9         0          20      0.000969    0.000098
  10         0          20      0.000861    0.000089
  11         0          20      0.000822    0.000125
  12         1          19      0.000778    0.000112
  13         1          19      0.000675    0.000125
  14         3          17      0.000558    0.000128
  15         5          15      0.000453    0.000094
  16         5          15      0.000322    0.000062
  17         6          14      0.000233    0.000043
  18         6          14      0.000173    0.000031
  19         7          13      0.000129    0.000023
  20         8          12      0.000097    0.000020
  21         8          12      0.000073    0.000017
  22         8          12      0.000054    0.000014
  23        10          10      0.000040    0.000012
  24        12           8      0.000030    0.000010
  25        12           8      0.000024    0.000009
  26        15           5      0.000022    0.000009
  27        13           7      0.000022    0.000009
  28        16           4      0.000018    0.000007
  29        17           3      0.000018    0.000009
  30        19           1      0.000016    0.000007
  31        19           1      0.000012    0.000005
  32        19           1      0.000012    0.000004
  33        19           1      0.000013    0.000005
  34        19           1      0.000012    0.000004
  35        19           1      0.000010    0.000002
  36        19           1      0.000010    0.000002
  37        19           1      0.000010    0.000003
  38        19           1      0.000010    0.000003
  39        19           1      0.000009    0.000001
  40        19           1      0.000009    0.000001
  41        19           1      0.000010    0.000002
  42        19           1      0.000010    0.000002
  43        19           1      0.000010    0.000002
  44        19           1      0.000014    0.000006
  45        19           1      0.000290    0.000283
  46        19           1      0.000231    0.000223
  47        19           1      0.000206    0.000198
  48        19           1      0.000180    0.000173
  49        19           1      0.000106    0.000099
  50        19           1      0.000073    0.000066
  51        19           1      0.000068    0.000060
  52        19           1      0.000046    0.000038
  53        19           1      0.000028    0.000020
  54        19           1      0.000023    0.000016
  55        19           1      0.000021    0.000013
  56        19           1      0.000017    0.000009
  57        19           1      0.000015    0.000007
  58        19           1      0.000013    0.000005
  59        19           1      0.000011    0.000003
  60        19           1      0.000011    0.000003
  61        19           1      0.000010    0.000003
  62        19           1      0.000009    0.000002
  63        19           1      0.000009    0.000002
  64        19           1      0.000009    0.000002
  65        19           1      0.000009    0.000001
  66        19           1      0.000009    0.000001
  67        18           2      0.000201    0.000192
  68        19           1      0.000134    0.000126
  69        19           1      0.000113    0.000105
  70        19           1      0.000119    0.000111
  71        19           1      0.000092    0.000084
  72        19           1      0.000067    0.000060
  73        19           1      0.000059    0.000052
  74        19           1      0.000046    0.000039
  75        19           1      0.000037    0.000030
  76        19           1      0.000035    0.000028
  77        19           1      0.000027    0.000020
  78        19           1      0.000020    0.000013
  79        19           1      0.000019    0.000012
  80        19           1      0.000018    0.000011
  81        19           1      0.000015    0.000008
  82        19           1      0.000015    0.000008
  83        19           1      0.000014    0.000007
  84        19           1      0.000012    0.000005
  85        19           1      0.000013    0.000006
  86        19           1      0.000012    0.000005
  87        19           1      0.000011    0.000004
  88        19           1      0.000010    0.000003
  89        19           1      0.000010    0.000003
  90        19           1      0.000009    0.000002
  91        19           1      0.000009    0.000002
  92        19           1      0.000008    0.000001
  93        20           0      0.000008    0.000001    Roots Converged
 ---------------------------------------------------
   
**************************************************
 RAS-CI total energy for state   1:   -856.853830683537
  Excitation energy (eV) =  0.000000000000
  State symmetry: A"    (Cs       )
  <S^2>      :  0.7500
  Dipole Moment:    0.0006 X    -0.8545 Y     0.0000 Z
 NATURAL OCCUPATION NUMBERS (higher than 1.0E-05)
            1           2           3           4           5           6
    1   2.0000000   2.0000000   2.0000000   2.0000000   2.0000000   2.0000000
            7           8           9          10          11          12
    1   2.0000000   2.0000000   2.0000000   2.0000000   2.0000000   2.0000000
           13          14          15          16          17          18
    1   2.0000000   2.0000000   2.0000000   2.0000000   2.0000000   2.0000000
           19          20          21          22          23          24
    1   2.0000000   2.0000000   2.0000000   2.0000000   2.0000000   2.0000000
           25          26          27          28          29          30
    1   2.0000000   2.0000000   2.0000000   2.0000000   2.0000000   2.0000000
           31          32          33          34          35          36
    1   2.0000000   2.0000000   2.0000000   2.0000000   2.0000000   2.0000000
           37          38          39          40          41          42
    1   2.0000000   2.0000000   2.0000000   2.0000000   2.0000000   2.0000000
           43          44          45          46          47          48
    1   2.0000000   2.0000000   2.0000000   2.0000000   2.0000000   2.0000000
           49          50          51          52          53          54
    1   2.0000000   2.0000000   2.0000000   2.0000000   2.0000000   2.0000000
           55          56          57          58          59          60
    1   2.0000000   2.0000000   2.0000000   2.0000000   2.0000000   2.0000000
           61          62          63          64          65          66
    1   2.0000000   1.9994484   1.9989883   1.9987310   1.9977956   1.9964329
           67          68          69          70          71          72
    1   1.9948928   1.9937272   1.9877566   1.9729531   1.9563219   1.8671653
           73          74          75          76          77          78
    1   1.0043371   0.1238083   0.0378096   0.0362677   0.0188349   0.0042815
           79          80          81          82          83          84
    1   0.0035613   0.0025779   0.0009169   0.0008741   0.0005322   0.0002926
           85          86          87          88          89          90
    1   0.0002425   0.0002197   0.0001646   0.0001488   0.0001290   0.0001286
           91          92          93          94          95          96
    1   0.0000951   0.0000753   0.0000577   0.0000570   0.0000478   0.0000476
           97          98          99         100         101         102
    1   0.0000406   0.0000338   0.0000283   0.0000278   0.0000243   0.0000189
          103         104         105         106
    1   0.0000168   0.0000165   0.0000144   0.0000135
Natural Orbitals stored in FCHK

  Amplitudes : 
  
 | HOLE  | ALPHA   | BETA    | PART  |    AMPLITUDE 
--------------------------------------------------
 |       | 1111000 | 1110000 |       |     9.1790711725857E-01
 |       | 1110100 | 1101000 |       |     1.2214560079867E-01
 |       | 1101100 | 1100100 |       |     1.4548164520956E-01
--------------------------------------------------
*** Contributions RASCI wfn    Active:  92.24
                                 Hole:   3.92
                                 Part:   3.85

      Mulliken population analysis 
 ---------------------------------------------------
   Atom    Charge (a.u.)   Spin (a.u.)  
 ---------------------------------------------------
   1  N   -0.892100       -0.008356 
   2  C    0.295821        0.021251 
   3  C    0.304382        0.027980 
   4  C    0.304368        0.027979 
   5  C   -0.128012       -0.026091 
   6  C    0.160599        0.187552 
   7  H    0.092822        0.001307 
   8  C   -0.102356       -0.007455 
   9  C   -0.142231        0.039456 
  10  H    0.072914        0.000229 
  11  C   -0.026193       -0.000846 
  12  H    0.096310       -0.000022 
  13  C   -0.145889        0.039153 
  14  H    0.077064        0.000294 
  15  C   -0.082766       -0.004161 
  16  C    0.117864       -0.046321 
  17  H    0.075042       -0.000349 
  18  C   -0.082761       -0.004161 
  19  C   -0.145879        0.039180 
  20  H    0.077067        0.000294 
  21  C   -0.026199       -0.000848 
  22  H    0.096312       -0.000022 
  23  C   -0.142218        0.039483 
  24  H    0.072918        0.000229 
  25  C   -0.102369       -0.007460 
  26  C    0.160620        0.187618 
  27  H    0.092822        0.001307 
  28  C   -0.128021       -0.026095 
  29  C   -0.094067        0.268928 
  30  H    0.098614        0.001823 
  31  C   -0.066459       -0.022352 
  32  H    0.107436       -0.000207 
  33  C   -0.094067        0.268858 
  34  H    0.098612        0.001823 
 ---------------------------------------------------
   Sum:   -0.000000        1.000000 
 ---------------------------------------------------
 
  
 NATURAL OCCUPATION NUMBERS (higher than 1.0E-05)
            1           2           3           4           5           6
    1   2.0000000   2.0000000   2.0000000   2.0000000   2.0000000   2.0000000
            7           8           9          10          11          12
    1   2.0000000   2.0000000   2.0000000   2.0000000   2.0000000   2.0000000
           13          14          15          16          17          18
    1   2.0000000   2.0000000   2.0000000   2.0000000   2.0000000   2.0000000
           19          20          21          22          23          24
    1   2.0000000   2.0000000   2.0000000   2.0000000   2.0000000   2.0000000
           25          26          27          28          29          30
    1   2.0000000   2.0000000   2.0000000   2.0000000   2.0000000   2.0000000
           31          32          33          34          35          36
    1   2.0000000   2.0000000   2.0000000   2.0000000   2.0000000   2.0000000
           37          38          39          40          41          42
    1   2.0000000   2.0000000   2.0000000   2.0000000   2.0000000   2.0000000
           43          44          45          46          47          48
    1   2.0000000   2.0000000   2.0000000   2.0000000   2.0000000   2.0000000
           49          50          51          52          53          54
    1   2.0000000   2.0000000   2.0000000   2.0000000   2.0000000   2.0000000
           55          56          57          58          59          60
    1   2.0000000   2.0000000   2.0000000   2.0000000   2.0000000   2.0000000
           61          62          63          64          65          66
    1   2.0000000   1.9994484   1.9989883   1.9987310   1.9977956   1.9964329
           67          68          69          70          71          72
    1   1.9948928   1.9937272   1.9877566   1.9729531   1.9563219   1.8671653
           73          74          75          76          77          78
    1   1.0043371   0.1238083   0.0378096   0.0362677   0.0188349   0.0042815
           79          80          81          82          83          84
    1   0.0035613   0.0025779   0.0009169   0.0008741   0.0005322   0.0002926
           85          86          87          88          89          90
    1   0.0002425   0.0002197   0.0001646   0.0001488   0.0001290   0.0001286
           91          92          93          94          95          96
    1   0.0000951   0.0000753   0.0000577   0.0000570   0.0000478   0.0000476
           97          98          99         100         101         102
    1   0.0000406   0.0000338   0.0000283   0.0000278   0.0000243   0.0000189
          103         104         105         106
    1   0.0000168   0.0000165   0.0000144   0.0000135
  
*** Unpaired Electrons
 Yamaguchi Nd:         1.90
 Head-Gordon Nu:       1.46
 Head-Gordon Nu_nl:    1.14
  
**************************************************
 RAS-CI total energy for state   2:   -856.840990268195
  Excitation energy (eV) =  0.349405478638
  State symmetry: A"    (Cs       )
  <S^2>      :  0.7500
  Dipole Moment:   -0.0008 X     1.1925 Y    -0.0000 Z
  Trans. Moment:   -0.9734 X    -0.0007 Y     0.0000 Z
  Strength   :  0.008111
  Natural transition orbitals ( 1 -> 2 ):
   e-/hole pair  1 alpha:  ampl =  0.163130 (  2.7%)   [7 : 8]
   e-/hole pair  2 alpha:  ampl =  0.129308 (  1.7%)   [6 : 9]
   e-/hole pair  1 beta :  ampl =  0.822380 ( 67.6%)   [7 : 8]
   e-/hole pair  2 beta :  ampl =  0.058688 (  0.3%)   [6 : 9]
   Sum of square amplitudes: 0.73

 NATURAL OCCUPATION NUMBERS (higher than 1.0E-05)
            1           2           3           4           5           6
    1   2.0000000   2.0000000   2.0000000   2.0000000   2.0000000   2.0000000
            7           8           9          10          11          12
    1   2.0000000   2.0000000   2.0000000   2.0000000   2.0000000   2.0000000
           13          14          15          16          17          18
    1   2.0000000   2.0000000   2.0000000   2.0000000   2.0000000   2.0000000
           19          20          21          22          23          24
    1   2.0000000   2.0000000   2.0000000   2.0000000   2.0000000   2.0000000
           25          26          27          28          29          30
    1   2.0000000   2.0000000   2.0000000   2.0000000   2.0000000   2.0000000
           31          32          33          34          35          36
    1   2.0000000   2.0000000   2.0000000   2.0000000   2.0000000   2.0000000
           37          38          39          40          41          42
    1   2.0000000   2.0000000   2.0000000   2.0000000   2.0000000   2.0000000
           43          44          45          46          47          48
    1   2.0000000   2.0000000   2.0000000   2.0000000   2.0000000   2.0000000
           49          50          51          52          53          54
    1   2.0000000   2.0000000   2.0000000   2.0000000   2.0000000   2.0000000
           55          56          57          58          59          60
    1   2.0000000   2.0000000   2.0000000   2.0000000   2.0000000   2.0000000
           61          62          63          64          65          66
    1   2.0000000   1.9996836   1.9994035   1.9988561   1.9981686   1.9972657
           67          68          69          70          71          72
    1   1.9936781   1.9928965   1.9892239   1.9685067   1.9648889   1.7999442
           73          74          75          76          77          78
    1   1.0290274   0.1457904   0.0504737   0.0289881   0.0246609   0.0053155
           79          80          81          82          83          84
    1   0.0049028   0.0031462   0.0011110   0.0010263   0.0008118   0.0003731
           85          86          87          88          89          90
    1   0.0002837   0.0002797   0.0002314   0.0001562   0.0001284   0.0001203
           91          92          93          94          95          96
    1   0.0000949   0.0000695   0.0000565   0.0000551   0.0000502   0.0000411
           97          98          99         100         101         102
    1   0.0000380   0.0000369   0.0000302   0.0000264   0.0000258   0.0000193
          103         104         105
    1   0.0000180   0.0000156   0.0000132
Natural Orbitals stored in FCHK

  Amplitudes : 
  
 | HOLE  | ALPHA   | BETA    | PART  |    AMPLITUDE 
--------------------------------------------------
 |       | 1111000 | 1101000 |       |     8.1879779042658E-01
 |       | 1111000 | 1100001 |       |     2.2735751832554E-01
 |       | 1110100 | 1110000 |       |     1.4994550349505E-01
 |       | 1110100 | 1100100 |       |    -1.3462591574432E-01
 |       | 1110001 | 1101000 |       |     2.3907857462944E-01
 |       | 1101100 | 1101000 |       |    -1.5968561291374E-01
 |       | 1110000 | 1101000 |  77   |     1.3494468236533E-01
--------------------------------------------------
*** Contributions RASCI wfn    Active:  88.53
                                 Hole:   4.36
                                 Part:   7.11

      Mulliken population analysis 
 ---------------------------------------------------
   Atom    Charge (a.u.)   Spin (a.u.)  
 ---------------------------------------------------
   1  N   -0.899514       -0.002852 
   2  C    0.394977        0.047890 
   3  C    0.264940        0.038384 
   4  C    0.264955        0.038386 
   5  C   -0.127632        0.004820 
   6  C    0.126994        0.036229 
   7  H    0.092514        0.000234 
   8  C   -0.108051       -0.007681 
   9  C   -0.064473        0.163395 
  10  H    0.073595        0.001125 
  11  C   -0.041065       -0.012286 
  12  H    0.096227       -0.000116 
  13  C   -0.112908        0.143913 
  14  H    0.077236        0.000929 
  15  C   -0.093551       -0.014307 
  16  C    0.217890        0.273590 
  17  H    0.075834        0.001958 
  18  C   -0.093547       -0.014304 
  19  C   -0.112935        0.143881 
  20  H    0.077239        0.000929 
  21  C   -0.041065       -0.012282 
  22  H    0.096229       -0.000116 
  23  C   -0.064488        0.163360 
  24  H    0.073598        0.001125 
  25  C   -0.108062       -0.007676 
  26  C    0.126991        0.036174 
  27  H    0.092514        0.000234 
  28  C   -0.127639        0.004823 
  29  C   -0.212743       -0.014087 
  30  H    0.097673       -0.000111 
  31  C   -0.034346       -0.001359 
  32  H    0.107687       -0.000008 
  33  C   -0.212743       -0.014082 
  34  H    0.097671       -0.000111 
 ---------------------------------------------------
   Sum:   -0.000000        1.000000 
 ---------------------------------------------------
 
  
 NATURAL OCCUPATION NUMBERS (higher than 1.0E-05)
            1           2           3           4           5           6
    1   2.0000000   2.0000000   2.0000000   2.0000000   2.0000000   2.0000000
            7           8           9          10          11          12
    1   2.0000000   2.0000000   2.0000000   2.0000000   2.0000000   2.0000000
           13          14          15          16          17          18
    1   2.0000000   2.0000000   2.0000000   2.0000000   2.0000000   2.0000000
           19          20          21          22          23          24
    1   2.0000000   2.0000000   2.0000000   2.0000000   2.0000000   2.0000000
           25          26          27          28          29          30
    1   2.0000000   2.0000000   2.0000000   2.0000000   2.0000000   2.0000000
           31          32          33          34          35          36
    1   2.0000000   2.0000000   2.0000000   2.0000000   2.0000000   2.0000000
           37          38          39          40          41          42
    1   2.0000000   2.0000000   2.0000000   2.0000000   2.0000000   2.0000000
           43          44          45          46          47          48
    1   2.0000000   2.0000000   2.0000000   2.0000000   2.0000000   2.0000000
           49          50          51          52          53          54
    1   2.0000000   2.0000000   2.0000000   2.0000000   2.0000000   2.0000000
           55          56          57          58          59          60
    1   2.0000000   2.0000000   2.0000000   2.0000000   2.0000000   2.0000000
           61          62          63          64          65          66
    1   2.0000000   1.9996836   1.9994035   1.9988561   1.9981686   1.9972657
           67          68          69          70          71          72
    1   1.9936781   1.9928965   1.9892239   1.9685067   1.9648889   1.7999442
           73          74          75          76          77          78
    1   1.0290274   0.1457904   0.0504737   0.0289881   0.0246609   0.0053155
           79          80          81          82          83          84
    1   0.0049028   0.0031462   0.0011110   0.0010263   0.0008118   0.0003731
           85          86          87          88          89          90
    1   0.0002837   0.0002797   0.0002314   0.0001562   0.0001284   0.0001203
           91          92          93          94          95          96
    1   0.0000949   0.0000695   0.0000565   0.0000551   0.0000502   0.0000411
           97          98          99         100         101         102
    1   0.0000380   0.0000369   0.0000302   0.0000264   0.0000258   0.0000193
          103         104         105
    1   0.0000180   0.0000156   0.0000132
  
*** Unpaired Electrons
 Yamaguchi Nd:         2.06
 Head-Gordon Nu:       1.54
 Head-Gordon Nu_nl:    1.23
  
**************************************************
 RAS-CI total energy for state   3:   -856.822411944970
  Excitation energy (eV) =  0.854947374765
  State symmetry: A"    (Cs       )
  <S^2>      :  3.7500
  Dipole Moment:   -0.0000 X     0.1109 Y     0.0000 Z
  Trans. Moment:    0.0000 X    -0.0000 Y    -0.0000 Z
  Strength   :  0.000000
  Natural transition orbitals ( 1 -> 3 ):
   e-/hole pair  1 alpha:  ampl =  0.534731 ( 28.6%)   [7 : 8]
   e-/hole pair  2 alpha:  ampl =  0.094510 (  0.9%)   [6 : 9]
   e-/hole pair  1 beta :  ampl =  0.534731 ( 28.6%)   [7 : 8]
   e-/hole pair  2 beta :  ampl =  0.094510 (  0.9%)   [6 : 9]
   Sum of square amplitudes: 0.60

 NATURAL OCCUPATION NUMBERS (higher than 1.0E-05)
            1           2           3           4           5           6
    1   2.0000000   2.0000000   2.0000000   2.0000000   2.0000000   2.0000000
            7           8           9          10          11          12
    1   2.0000000   2.0000000   2.0000000   2.0000000   2.0000000   2.0000000
           13          14          15          16          17          18
    1   2.0000000   2.0000000   2.0000000   2.0000000   2.0000000   2.0000000
           19          20          21          22          23          24
    1   2.0000000   2.0000000   2.0000000   2.0000000   2.0000000   2.0000000
           25          26          27          28          29          30
    1   2.0000000   2.0000000   2.0000000   2.0000000   2.0000000   2.0000000
           31          32          33          34          35          36
    1   2.0000000   2.0000000   2.0000000   2.0000000   2.0000000   2.0000000
           37          38          39          40          41          42
    1   2.0000000   2.0000000   2.0000000   2.0000000   2.0000000   2.0000000
           43          44          45          46          47          48
    1   2.0000000   2.0000000   2.0000000   2.0000000   2.0000000   2.0000000
           49          50          51          52          53          54
    1   2.0000000   2.0000000   2.0000000   2.0000000   2.0000000   2.0000000
           55          56          57          58          59          60
    1   2.0000000   2.0000000   2.0000000   2.0000000   2.0000000   2.0000000
           61          62          63          64          65          66
    1   2.0000000   1.9996802   1.9993259   1.9992682   1.9984192   1.9978713
           67          68          69          70          71          72
    1   1.9962513   1.9941435   1.9874321   1.9680789   1.9573064   1.0044195
           73          74          75          76          77          78
    1   1.0005642   0.9951722   0.0387045   0.0296366   0.0186332   0.0043604
           79          80          81          82          83          84
    1   0.0040098   0.0031327   0.0007424   0.0006748   0.0004071   0.0003300
           85          86          87          88          89          90
    1   0.0001945   0.0001731   0.0001611   0.0001600   0.0001088   0.0001033
           91          92          93          94          95          96
    1   0.0000827   0.0000646   0.0000502   0.0000427   0.0000377   0.0000332
           97          98          99         100         101         102
    1   0.0000299   0.0000294   0.0000255   0.0000190   0.0000168   0.0000161
          103         104
    1   0.0000148   0.0000113
Natural Orbitals stored in FCHK

  Amplitudes : 
  
 | HOLE  | ALPHA   | BETA    | PART  |    AMPLITUDE 
--------------------------------------------------
 |       | 1111000 | 1100100 |       |    -5.3490023483240E-01
 |       | 1110100 | 1101000 |       |     5.3490023483367E-01
 |       | 1101100 | 1110000 |       |    -5.3490023483151E-01
--------------------------------------------------
*** Contributions RASCI wfn    Active:  90.63
                                 Hole:   4.34
                                 Part:   5.03

      Mulliken population analysis 
 ---------------------------------------------------
   Atom    Charge (a.u.)   Spin (a.u.)  
 ---------------------------------------------------
   1  N   -1.008633        0.053491 
   2  C    0.336554        0.068962 
   3  C    0.288683        0.057238 
   4  C    0.288688        0.057236 
   5  C   -0.129652       -0.006606 
   6  C    0.114222        0.127488 
   7  H    0.092298        0.000951 
   8  C   -0.123420       -0.002048 
   9  C   -0.045439        0.065049 
  10  H    0.073707        0.000443 
  11  C   -0.060584       -0.001241 
  12  H    0.095979       -0.000001 
  13  C   -0.072016        0.058386 
  14  H    0.077598        0.000399 
  15  C   -0.107224       -0.002060 
  16  C    0.151217        0.122614 
  17  H    0.075163        0.000934 
  18  C   -0.107220       -0.002059 
  19  C   -0.072025        0.058384 
  20  H    0.077601        0.000399 
  21  C   -0.060586       -0.001240 
  22  H    0.095981       -0.000001 
  23  C   -0.045441        0.065046 
  24  H    0.073710        0.000442 
  25  C   -0.123431       -0.002048 
  26  C    0.114233        0.127490 
  27  H    0.092298        0.000951 
  28  C   -0.129657       -0.006605 
  29  C   -0.095363        0.081980 
  30  H    0.098611        0.000569 
  31  C   -0.076398       -0.007019 
  32  H    0.107299       -0.000051 
  33  C   -0.095363        0.081959 
  34  H    0.098609        0.000569 
 ---------------------------------------------------
   Sum:   -0.000000        1.000000 
 ---------------------------------------------------
 
  
 NATURAL OCCUPATION NUMBERS (higher than 1.0E-05)
            1           2           3           4           5           6
    1   2.0000000   2.0000000   2.0000000   2.0000000   2.0000000   2.0000000
            7           8           9          10          11          12
    1   2.0000000   2.0000000   2.0000000   2.0000000   2.0000000   2.0000000
           13          14          15          16          17          18
    1   2.0000000   2.0000000   2.0000000   2.0000000   2.0000000   2.0000000
           19          20          21          22          23          24
    1   2.0000000   2.0000000   2.0000000   2.0000000   2.0000000   2.0000000
           25          26          27          28          29          30
    1   2.0000000   2.0000000   2.0000000   2.0000000   2.0000000   2.0000000
           31          32          33          34          35          36
    1   2.0000000   2.0000000   2.0000000   2.0000000   2.0000000   2.0000000
           37          38          39          40          41          42
    1   2.0000000   2.0000000   2.0000000   2.0000000   2.0000000   2.0000000
           43          44          45          46          47          48
    1   2.0000000   2.0000000   2.0000000   2.0000000   2.0000000   2.0000000
           49          50          51          52          53          54
    1   2.0000000   2.0000000   2.0000000   2.0000000   2.0000000   2.0000000
           55          56          57          58          59          60
    1   2.0000000   2.0000000   2.0000000   2.0000000   2.0000000   2.0000000
           61          62          63          64          65          66
    1   2.0000000   1.9996802   1.9993259   1.9992682   1.9984192   1.9978713
           67          68          69          70          71          72
    1   1.9962513   1.9941435   1.9874321   1.9680789   1.9573064   1.0044195
           73          74          75          76          77          78
    1   1.0005642   0.9951722   0.0387045   0.0296366   0.0186332   0.0043604
           79          80          81          82          83          84
    1   0.0040098   0.0031327   0.0007424   0.0006748   0.0004071   0.0003300
           85          86          87          88          89          90
    1   0.0001945   0.0001731   0.0001611   0.0001600   0.0001088   0.0001033
           91          92          93          94          95          96
    1   0.0000827   0.0000646   0.0000502   0.0000427   0.0000377   0.0000332
           97          98          99         100         101         102
    1   0.0000299   0.0000294   0.0000255   0.0000190   0.0000168   0.0000161
          103         104
    1   0.0000148   0.0000113
  
*** Unpaired Electrons
 Yamaguchi Nd:         3.40
 Head-Gordon Nu:       3.19
 Head-Gordon Nu_nl:    3.02
  
**************************************************
 RAS-CI total energy for state   4:   -856.787488163501
  Excitation energy (eV) =  1.805271819530
  State symmetry: A"    (Cs       )
  <S^2>      :  0.7500
  Dipole Moment:   -0.0000 X     0.0152 Y    -0.0000 Z
  Trans. Moment:   -0.0001 X     0.2497 Y    -0.0000 Z
  Strength   :  0.002757
  Natural transition orbitals ( 1 -> 4 ):
   e-/hole pair  1 alpha:  ampl =  0.454250 ( 20.6%)   [7 : 8]
   e-/hole pair  2 alpha:  ampl =  0.114171 (  1.3%)   [6 : 9]
   e-/hole pair  1 beta :  ampl =  0.320495 ( 10.3%)   [7 : 8]
   e-/hole pair  2 beta :  ampl =  0.121695 (  1.5%)   [6 : 9]
   Sum of square amplitudes: 0.35

 NATURAL OCCUPATION NUMBERS (higher than 1.0E-05)
            1           2           3           4           5           6
    1   2.0000000   2.0000000   2.0000000   2.0000000   2.0000000   2.0000000
            7           8           9          10          11          12
    1   2.0000000   2.0000000   2.0000000   2.0000000   2.0000000   2.0000000
           13          14          15          16          17          18
    1   2.0000000   2.0000000   2.0000000   2.0000000   2.0000000   2.0000000
           19          20          21          22          23          24
    1   2.0000000   2.0000000   2.0000000   2.0000000   2.0000000   2.0000000
           25          26          27          28          29          30
    1   2.0000000   2.0000000   2.0000000   2.0000000   2.0000000   2.0000000
           31          32          33          34          35          36
    1   2.0000000   2.0000000   2.0000000   2.0000000   2.0000000   2.0000000
           37          38          39          40          41          42
    1   2.0000000   2.0000000   2.0000000   2.0000000   2.0000000   2.0000000
           43          44          45          46          47          48
    1   2.0000000   2.0000000   2.0000000   2.0000000   2.0000000   2.0000000
           49          50          51          52          53          54
    1   2.0000000   2.0000000   2.0000000   2.0000000   2.0000000   2.0000000
           55          56          57          58          59          60
    1   2.0000000   2.0000000   2.0000000   2.0000000   2.0000000   2.0000000
           61          62          63          64          65          66
    1   2.0000000   1.9993506   1.9987424   1.9982700   1.9973702   1.9960025
           67          68          69          70          71          72
    1   1.9927675   1.9906740   1.9855501   1.9615871   1.9593353   1.0531363
           73          74          75          76          77          78
    1   1.0031063   0.9397250   0.0413829   0.0397856   0.0166685   0.0096942
           79          80          81          82          83          84
    1   0.0068120   0.0050212   0.0011559   0.0009238   0.0006597   0.0002892
           85          86          87          88          89          90
    1   0.0002780   0.0002754   0.0002379   0.0002115   0.0001270   0.0001170
           91          92          93          94          95          96
    1   0.0001073   0.0000867   0.0000610   0.0000549   0.0000503   0.0000466
           97          98          99         100         101         102
    1   0.0000433   0.0000397   0.0000304   0.0000292   0.0000243   0.0000237
          103         104         105         106         107         108
    1   0.0000235   0.0000182   0.0000158   0.0000133   0.0000129   0.0000110
Natural Orbitals stored in FCHK

  Amplitudes : 
  
 | HOLE  | ALPHA   | BETA    | PART  |    AMPLITUDE 
--------------------------------------------------
 |       | 1111000 | 1110000 |       |    -1.5773570460704E-01
 |       | 1111000 | 1100100 |       |     2.8683349346434E-01
 |       | 1110100 | 1101000 |       |     7.2814705614857E-01
 |       | 1101100 | 1110000 |       |     4.4131356268330E-01
--------------------------------------------------
*** Contributions RASCI wfn    Active:  88.46
                                 Hole:   5.77
                                 Part:   5.77

      Mulliken population analysis 
 ---------------------------------------------------
   Atom    Charge (a.u.)   Spin (a.u.)  
 ---------------------------------------------------
   1  N   -0.984247        0.128939 
   2  C    0.318310        0.122142 
   3  C    0.288040        0.089806 
   4  C    0.288029        0.089813 
   5  C   -0.119987        0.004037 
   6  C    0.098066        0.097253 
   7  H    0.092287        0.000818 
   8  C   -0.115904        0.006567 
   9  C   -0.055719        0.069609 
  10  H    0.073613        0.000496 
  11  C   -0.056315        0.002114 
  12  H    0.095996        0.000057 
  13  C   -0.077082        0.058550 
  14  H    0.077557        0.000370 
  15  C   -0.104077        0.009518 
  16  C    0.144945        0.245460 
  17  H    0.075090        0.001885 
  18  C   -0.104073        0.009522 
  19  C   -0.077094        0.058536 
  20  H    0.077561        0.000370 
  21  C   -0.056315        0.002114 
  22  H    0.095998        0.000057 
  23  C   -0.055721        0.069594 
  24  H    0.073616        0.000496 
  25  C   -0.115904        0.006567 
  26  C    0.098059        0.097233 
  27  H    0.092287        0.000818 
  28  C   -0.119994        0.004041 
  29  C   -0.085053       -0.088769 
  30  H    0.098546       -0.000602 
  31  C   -0.081327        0.001879 
  32  H    0.107328        0.000053 
  33  C   -0.085061       -0.088744 
  34  H    0.098544       -0.000601 
 ---------------------------------------------------
   Sum:   -0.000000        1.000000 
 ---------------------------------------------------
 
  
 NATURAL OCCUPATION NUMBERS (higher than 1.0E-05)
            1           2           3           4           5           6
    1   2.0000000   2.0000000   2.0000000   2.0000000   2.0000000   2.0000000
            7           8           9          10          11          12
    1   2.0000000   2.0000000   2.0000000   2.0000000   2.0000000   2.0000000
           13          14          15          16          17          18
    1   2.0000000   2.0000000   2.0000000   2.0000000   2.0000000   2.0000000
           19          20          21          22          23          24
    1   2.0000000   2.0000000   2.0000000   2.0000000   2.0000000   2.0000000
           25          26          27          28          29          30
    1   2.0000000   2.0000000   2.0000000   2.0000000   2.0000000   2.0000000
           31          32          33          34          35          36
    1   2.0000000   2.0000000   2.0000000   2.0000000   2.0000000   2.0000000
           37          38          39          40          41          42
    1   2.0000000   2.0000000   2.0000000   2.0000000   2.0000000   2.0000000
           43          44          45          46          47          48
    1   2.0000000   2.0000000   2.0000000   2.0000000   2.0000000   2.0000000
           49          50          51          52          53          54
    1   2.0000000   2.0000000   2.0000000   2.0000000   2.0000000   2.0000000
           55          56          57          58          59          60
    1   2.0000000   2.0000000   2.0000000   2.0000000   2.0000000   2.0000000
           61          62          63          64          65          66
    1   2.0000000   1.9993506   1.9987424   1.9982700   1.9973702   1.9960025
           67          68          69          70          71          72
    1   1.9927675   1.9906740   1.9855501   1.9615871   1.9593353   1.0531363
           73          74          75          76          77          78
    1   1.0031063   0.9397250   0.0413829   0.0397856   0.0166685   0.0096942
           79          80          81          82          83          84
    1   0.0068120   0.0050212   0.0011559   0.0009238   0.0006597   0.0002892
           85          86          87          88          89          90
    1   0.0002780   0.0002754   0.0002379   0.0002115   0.0001270   0.0001170
           91          92          93          94          95          96
    1   0.0001073   0.0000867   0.0000610   0.0000549   0.0000503   0.0000466
           97          98          99         100         101         102
[...]
  89    H 12  s     0.00000   0.00000   0.00000   0.00000   0.00000   0.00000
  90    H 12  p     0.00122   0.00227   0.00015   0.00016   0.00142   0.00002
                        73
                       12A"  
   1    N     s     0.00000
   2    N     p     0.00000
   3    N     d     0.00104
   4    C 1   s     0.00000
   5    C 1   p     0.00000
   6    C 1   d     0.00029
   7    C 2   s     0.00000
   8    C 2   p     0.03904
   9    C 2   d     0.00003
  10    C 3   s     0.00000
  11    C 3   p     0.03905
  12    C 3   d     0.00003
  13    C 4   s     0.00000
  14    C 4   p     0.00007
  15    C 4   d     0.02700
  16    C 5   s     0.00000
  17    C 5   p     0.22557
  18    C 5   d     0.00008
  19    H 1   s     0.00000
  20    H 1   p     0.00555
  21    C 6   s     0.00000
  22    C 6   p     0.00033
  23    C 6   d     0.01092
  24    C 7   s     0.00000
  25    C 7   p     0.03728
  26    C 7   d     0.00002
  27    H 2   s     0.00000
  28    H 2   p     0.00092
  29    C 8   s     0.00000
  30    C 8   p     0.00008
  31    C 8   d     0.00274
  32    H 3   s     0.00000
  33    H 3   p     0.00001
  34    C 9   s     0.00000
  35    C 9   p     0.03101
  36    C 9   d     0.00003
  37    H 4   s     0.00000
  38    H 4   p     0.00092
  39    C 10  s     0.00000
  40    C 10  p     0.00008
  41    C 10  d     0.00237
  42    C 11  s     0.00000
  43    C 11  p     0.00000
  44    C 11  d     0.00001
  45    H 5   s     0.00000
  46    H 5   p     0.00000
  47    C 12  s     0.00000
  48    C 12  p     0.00008
  49    C 12  d     0.00238
  50    C 13  s     0.00000
  51    C 13  p     0.03103
  52    C 13  d     0.00003
  53    H 6   s     0.00000
  54    H 6   p     0.00092
  55    C 14  s     0.00000
  56    C 14  p     0.00008
  57    C 14  d     0.00274
  58    H 7   s     0.00000
  59    H 7   p     0.00001
  60    C 15  s     0.00000
  61    C 15  p     0.03731
  62    C 15  d     0.00002
  63    H 8   s     0.00000
  64    H 8   p     0.00092
  65    C 16  s     0.00000
  66    C 16  p     0.00033
  67    C 16  d     0.01092
  68    C 17  s     0.00000
  69    C 17  p     0.22568
  70    C 17  d     0.00008
  71    H 9   s     0.00000
  72    H 9   p     0.00556
  73    C 18  s     0.00000
  74    C 18  p     0.00007
  75    C 18  d     0.02701
  76    C 19  s     0.00000
  77    C 19  p     0.57629
  78    C 19  d     0.00021
  79    H 10  s     0.00000
  80    H 10  p     0.01559
  81    C 20  s     0.00000
  82    C 20  p     0.00000
  83    C 20  d     0.04634
  84    H 11  s     0.00000
  85    H 11  p     0.00000
  86    C 21  s     0.00000
  87    C 21  p     0.57612
  88    C 21  d     0.00021
  89    H 12  s     0.00000
  90    H 12  p     0.01559
 
 -----------------------------------------------------------------
                    Cartesian Multipole Moments
 -----------------------------------------------------------------
    Charge (ESU x 10^10)
                -0.0000
    Dipole Moment (Debye)
         X      -0.0021      Y       3.3783      Z      -0.0000
       Tot       3.3783
    Quadrupole Moments (Debye-Ang)
        XX    -117.0682     XY      -0.0029     YY    -110.7559
        XZ       0.0000     YZ      -0.0000     ZZ    -138.0824
    Octopole Moments (Debye-Ang^2)
       XXX      -0.0333    XXY      17.4982    XYY      -0.0048
       YYY      39.9795    XXZ       0.0000    XYZ      -0.0000
       YYZ      -0.0000    XZZ      -0.0022    YZZ       3.4148
       ZZZ      -0.0000
    Hexadecapole Moments (Debye-Ang^3)
      XXXX   -3542.9626   XXXY      -0.0536   XXYY   -1142.3262
      XYYY      -0.0115   YYYY   -3397.0045   XXXZ       0.0000
      XXYZ      -0.0000   XYYZ      -0.0000   YYYZ      -0.0000
      XXZZ    -761.4232   XYZZ      -0.0031   YYZZ    -753.8982
      XZZZ      -0.0000   YZZZ      -0.0000   ZZZZ    -158.6706
 -----------------------------------------------------------------
 Mayer SCF Bond Order, atomic valence on the diagonal:

            1           2           3           4           5           6
    1   3.4965213   1.0938710   1.0714465   1.0714359   0.0430170  -0.0152977
    2   1.0938710   3.5174527  -0.0203718  -0.0203717   1.2168385  -0.0542074
    3   1.0714465  -0.0203718   3.5304006  -0.0332490  -0.0022783  -0.0297261
    4   1.0714359  -0.0203717  -0.0332490   3.5303907   0.0140762   0.0091681
    5   0.0430170   1.2168385  -0.0022783   0.0140762   3.8817240   1.4290440
    6  -0.0152977  -0.0542074  -0.0297261   0.0091681   1.4290440   3.6461742
    7   0.0001968   0.0024569   0.0021495  -0.0002922  -0.0091910   0.9919525
    8   0.0408894  -0.0102648   1.2421234   0.0173568   0.0711202   1.1963716
    9   0.0090736   0.0121661   0.0155845   0.0011642   0.0236300  -0.0294019
   10   0.0004177  -0.0005827   0.0062253   0.0003406   0.0011255  -0.0070021
   11  -0.0010789   0.0066415   0.0216053   0.0081247   0.0007218   0.0116602
   12   0.0000474   0.0001069  -0.0009042   0.0001029  -0.0002111   0.0010929
   13   0.0083982   0.0067446   0.0174830   0.0001302   0.0128568   0.0038116
   14   0.0004156   0.0003391   0.0061681  -0.0006039   0.0002970  -0.0004180
   15   0.0412219   0.0160967   1.2324875  -0.0086722  -0.0108143   0.0087036
   16  -0.0118872   0.0324445  -0.0550941  -0.0550974   0.0028756   0.0244178
   17   0.0002366  -0.0000956   0.0018257   0.0018256   0.0001655   0.0002691
   18   0.0412203   0.0160965  -0.0086723   1.2324954   0.0002615   0.0026802
   19   0.0083977   0.0067442   0.0001287   0.0174875   0.0007976   0.0052814
   20   0.0004156   0.0003391  -0.0006039   0.0061686   0.0001411   0.0000332
   21  -0.0010789   0.0066407   0.0081252   0.0216070   0.0003441   0.0029227
   22   0.0000474   0.0001069   0.0001029  -0.0009042   0.0000016   0.0000237
   23   0.0090738   0.0121653   0.0011634   0.0155856   0.0016057   0.0104112
   24   0.0004177  -0.0005826   0.0003406   0.0062255   0.0001106   0.0000746
   25   0.0408922  -0.0102680   0.0173580   1.2421186  -0.0113027   0.0070663
   26  -0.0153047  -0.0542085   0.0091652  -0.0297324   0.0133651   0.0176417
   27   0.0001968   0.0024570  -0.0002922   0.0021495   0.0003683   0.0002052
   28   0.0430175   1.2168039   0.0140751  -0.0022830  -0.0676365   0.0133633
   29   0.0082909   0.0079106   0.0063621   0.0036411   0.0130666   0.0340579
   30   0.0004379   0.0059441   0.0003613  -0.0005121   0.0014324  -0.0001963
   31  -0.0006798   0.0125192   0.0040949   0.0040931  -0.0351313   0.0185436
   32   0.0000446  -0.0008833   0.0000898   0.0000897   0.0043428   0.0010236
   33   0.0082906   0.0079120   0.0036385   0.0063605   1.1744013  -0.0010356
   34   0.0004379   0.0059438  -0.0005121   0.0003613  -0.0077176  -0.0063606
            7           8           9          10          11          12
    1   0.0001968   0.0408894   0.0090736   0.0004177  -0.0010789   0.0000474
    2   0.0024569  -0.0102648   0.0121661  -0.0005827   0.0066415   0.0001069
    3   0.0021495   1.2421234   0.0155845   0.0062253   0.0216053  -0.0009042
    4  -0.0002922   0.0173568   0.0011642   0.0003406   0.0081247   0.0001029
    5  -0.0091910   0.0711202   0.0236300   0.0011255   0.0007218  -0.0002111
    6   0.9919525   1.1963716  -0.0294019  -0.0070021   0.0116602   0.0010929
    7   0.9806799  -0.0045593  -0.0047842   0.0021308   0.0000578   0.0000035
    8  -0.0045593   3.8854947   1.3692907  -0.0071511  -0.0285405   0.0042160
    9  -0.0047842   1.3692907   3.8444328   0.9994531   1.3685436  -0.0108864
   10   0.0021308  -0.0071511   0.9994531   0.9862880  -0.0122404  -0.0022690
   11   0.0000578  -0.0285405   1.3685436  -0.0122404   3.8513335   0.9863581
   12   0.0000035   0.0042160  -0.0108864  -0.0022690   0.9863581   0.9719552
   13   0.0001832   0.0477580  -0.0273466   0.0027792   1.5015247  -0.0088352
   14   0.0000209   0.0018854   0.0033040   0.0007304  -0.0136217  -0.0023755
   15   0.0002443  -0.0635691   0.0352372   0.0017738  -0.0265423   0.0045357
   16   0.0002724   0.0090353   0.0173234  -0.0003183   0.0190456   0.0010854
   17   0.0000184   0.0003195   0.0002928   0.0000176   0.0001529   0.0000060
   18   0.0001582  -0.0112965   0.0101520   0.0002932   0.0006499  -0.0002013
   19   0.0000114   0.0010453   0.0110279   0.0000836   0.0015374   0.0000198
   20  -0.0000033   0.0000786   0.0000608   0.0000051   0.0000340  -0.0000009
   21   0.0000484   0.0003418   0.0015539   0.0000125   0.0002060   0.0000012
   22   0.0000008   0.0000003   0.0000077   0.0000006   0.0000012   0.0000040
   23   0.0000503   0.0007251   0.0118202   0.0000822   0.0015539   0.0000077
   24  -0.0000039   0.0001490   0.0000822   0.0000199   0.0000125   0.0000006
   25   0.0001925  -0.0000206   0.0007251   0.0001490   0.0003417   0.0000003
   26   0.0002052   0.0070659   0.0104082   0.0000746   0.0029224   0.0000237
   27   0.0000188   0.0001925   0.0000503  -0.0000039   0.0000484   0.0000008
   28   0.0003684  -0.0113026   0.0016055   0.0001106   0.0003440   0.0000016
   29   0.0003304   0.0032554   0.0058943   0.0000082   0.0004510   0.0000020
   30   0.0000170   0.0002017   0.0000265   0.0000034   0.0000028   0.0000008
   31   0.0001341   0.0002658   0.0021385   0.0000404   0.0001966   0.0000001
   32   0.0000042  -0.0001927   0.0000214  -0.0000006   0.0000007   0.0000044
   33  -0.0039322   0.0079259   0.0062674  -0.0000512   0.0005904   0.0000177
   34   0.0022191   0.0007782  -0.0000530   0.0000301   0.0000283  -0.0000005
           13          14          15          16          17          18
    1   0.0083982   0.0004156   0.0412219  -0.0118872   0.0002366   0.0412203
    2   0.0067446   0.0003391   0.0160967   0.0324445  -0.0000956   0.0160965
    3   0.0174830   0.0061681   1.2324875  -0.0550941   0.0018257  -0.0086723
    4   0.0001302  -0.0006039  -0.0086722  -0.0550974   0.0018256   1.2324954
    5   0.0128568   0.0002970  -0.0108143   0.0028756   0.0001655   0.0002615
    6   0.0038116  -0.0004180   0.0087036   0.0244178   0.0002691   0.0026802
    7   0.0001832   0.0000209   0.0002443   0.0002724   0.0000184   0.0001582
    8   0.0477580   0.0018854  -0.0635691   0.0090353   0.0003195  -0.0112965
    9  -0.0273466   0.0033040   0.0352372   0.0173234   0.0002928   0.0101520
   10   0.0027792   0.0007304   0.0017738  -0.0003183   0.0000176   0.0002932
   11   1.5015247  -0.0136217  -0.0265423   0.0190456   0.0001529   0.0006499
   12  -0.0088352  -0.0023755   0.0045357   0.0010854   0.0000060  -0.0002013
   13   3.8586126   0.9984285   1.2604774  -0.0179800  -0.0053109   0.0161266
   14   0.9984285   0.9848958  -0.0056370  -0.0075007   0.0021388   0.0008608
   15   1.2604774  -0.0056370   3.8913267   1.3082130  -0.0052559   0.0822419
   16  -0.0179800  -0.0075007   1.3082130   3.6183735   0.9951335   1.3082060
   17  -0.0053109   0.0021388  -0.0052559   0.9951335   0.9845146  -0.0052553
   18   0.0161266   0.0008608   0.0822419   1.3082060  -0.0052553   3.8913240
   19   0.0098838  -0.0000012   0.0161263  -0.0179855  -0.0053111   1.2604758
   20  -0.0000013   0.0000318   0.0008607  -0.0075003   0.0021391  -0.0056370
   21   0.0015375   0.0000340   0.0006499   0.0190460   0.0001528  -0.0265439
   22   0.0000198  -0.0000009  -0.0002013   0.0010854   0.0000060   0.0045355
   23   0.0110288   0.0000608   0.0101523   0.0173203   0.0002928   0.0352385
   24   0.0000836   0.0000051   0.0002931  -0.0003183   0.0000176   0.0017737
   25   0.0010453   0.0000786  -0.0112967   0.0090352   0.0003194  -0.0635706
   26   0.0052799   0.0000331   0.0026797   0.0244097   0.0002691   0.0087042
   27   0.0000114  -0.0000033   0.0001582   0.0002724   0.0000184   0.0002442
   28   0.0007975   0.0001410   0.0002617   0.0028747   0.0001654  -0.0108141
   29   0.0051818   0.0000255   0.0001890  -0.0003268  -0.0000319   0.0002052
   30   0.0000177   0.0000170   0.0001477  -0.0000035  -0.0000033   0.0000739
   31   0.0014752   0.0000078   0.0002838   0.0006117   0.0000304   0.0002838
   32   0.0000082   0.0000007   0.0000012   0.0000085   0.0000005   0.0000012
   33   0.0050100   0.0000289   0.0002050  -0.0003274  -0.0000319   0.0001890
   34   0.0000041   0.0000049   0.0000739  -0.0000036  -0.0000033   0.0001477
           19          20          21          22          23          24
    1   0.0083977   0.0004156  -0.0010789   0.0000474   0.0090738   0.0004177
    2   0.0067442   0.0003391   0.0066407   0.0001069   0.0121653  -0.0005826
    3   0.0001287  -0.0006039   0.0081252   0.0001029   0.0011634   0.0003406
    4   0.0174875   0.0061686   0.0216070  -0.0009042   0.0155856   0.0062255
    5   0.0007976   0.0001411   0.0003441   0.0000016   0.0016057   0.0001106
    6   0.0052814   0.0000332   0.0029227   0.0000237   0.0104112   0.0000746
    7   0.0000114  -0.0000033   0.0000484   0.0000008   0.0000503  -0.0000039
    8   0.0010453   0.0000786   0.0003418   0.0000003   0.0007251   0.0001490
    9   0.0110279   0.0000608   0.0015539   0.0000077   0.0118202   0.0000822
   10   0.0000836   0.0000051   0.0000125   0.0000006   0.0000822   0.0000199
   11   0.0015374   0.0000340   0.0002060   0.0000012   0.0015539   0.0000125
   12   0.0000198  -0.0000009   0.0000012   0.0000040   0.0000077   0.0000006
   13   0.0098838  -0.0000013   0.0015375   0.0000198   0.0110288   0.0000836
   14  -0.0000012   0.0000318   0.0000340  -0.0000009   0.0000608   0.0000051
   15   0.0161263   0.0008607   0.0006499  -0.0002013   0.0101523   0.0002931
   16  -0.0179855  -0.0075003   0.0190460   0.0010854   0.0173203  -0.0003183
   17  -0.0053111   0.0021391   0.0001528   0.0000060   0.0002928   0.0000176
   18   1.2604758  -0.0056370  -0.0265439   0.0045355   0.0352385   0.0017737
   19   3.8586232   0.9984261   1.5015362  -0.0088350  -0.0273485   0.0027792
   20   0.9984261   0.9848945  -0.0136218  -0.0023754   0.0033040   0.0007304
   21   1.5015362  -0.0136218   3.8513321   0.9863586   1.3685325  -0.0122406
   22  -0.0088350  -0.0023754   0.9863586   0.9719554  -0.0108868  -0.0022690
   23  -0.0273485   0.0033040   1.3685325  -0.0108868   3.8444440   0.9994515
   24   0.0027792   0.0007304  -0.0122406  -0.0022690   0.9994515   0.9862872
   25   0.0477610   0.0018854  -0.0285415   0.0042159   1.3693081  -0.0071508
   26   0.0038114  -0.0004180   0.0116586   0.0010929  -0.0294032  -0.0070020
   27   0.0001832   0.0000209   0.0000577   0.0000035  -0.0047844   0.0021310
   28   0.0128570   0.0002970   0.0007218  -0.0002111   0.0236307   0.0011255
   29   0.0050145   0.0000289   0.0005905   0.0000177   0.0062734  -0.0000512
   30   0.0000042   0.0000049   0.0000283  -0.0000005  -0.0000529   0.0000301
   31   0.0014742   0.0000078   0.0001966   0.0000001   0.0021374   0.0000404
   32   0.0000082   0.0000007   0.0000007   0.0000044   0.0000214  -0.0000006
   33   0.0051831   0.0000255   0.0004509   0.0000020   0.0058963   0.0000082
   34   0.0000177   0.0000170   0.0000028   0.0000008   0.0000265   0.0000034
           25          26          27          28          29          30
    1   0.0408922  -0.0153047   0.0001968   0.0430175   0.0082909   0.0004379
    2  -0.0102680  -0.0542085   0.0024570   1.2168039   0.0079106   0.0059441
    3   0.0173580   0.0091652  -0.0002922   0.0140751   0.0063621   0.0003613
    4   1.2421186  -0.0297324   0.0021495  -0.0022830   0.0036411  -0.0005121
    5  -0.0113027   0.0133651   0.0003683  -0.0676365   0.0130666   0.0014324
    6   0.0070663   0.0176417   0.0002052   0.0133633   0.0340579  -0.0001963
    7   0.0001925   0.0002052   0.0000188   0.0003684   0.0003304   0.0000170
    8  -0.0000206   0.0070659   0.0001925  -0.0113026   0.0032554   0.0002017
    9   0.0007251   0.0104082   0.0000503   0.0016055   0.0058943   0.0000265
   10   0.0001490   0.0000746  -0.0000039   0.0001106   0.0000082   0.0000034
   11   0.0003417   0.0029224   0.0000484   0.0003440   0.0004510   0.0000028
   12   0.0000003   0.0000237   0.0000008   0.0000016   0.0000020   0.0000008
   13   0.0010453   0.0052799   0.0000114   0.0007975   0.0051818   0.0000177
   14   0.0000786   0.0000331  -0.0000033   0.0001410   0.0000255   0.0000170
   15  -0.0112967   0.0026797   0.0001582   0.0002617   0.0001890   0.0001477
   16   0.0090352   0.0244097   0.0002724   0.0028747  -0.0003268  -0.0000035
   17   0.0003194   0.0002691   0.0000184   0.0001654  -0.0000319  -0.0000033
   18  -0.0635706   0.0087042   0.0002442  -0.0108141   0.0002052   0.0000739
   19   0.0477610   0.0038114   0.0001832   0.0128570   0.0050145   0.0000042
   20   0.0018854  -0.0004180   0.0000209   0.0002970   0.0000289   0.0000049
   21  -0.0285415   0.0116586   0.0000577   0.0007218   0.0005905   0.0000283
   22   0.0042159   0.0010929   0.0000035  -0.0002111   0.0000177  -0.0000005
   23   1.3693081  -0.0294032  -0.0047844   0.0236307   0.0062734  -0.0000529
   24  -0.0071508  -0.0070020   0.0021310   0.0011255  -0.0000512   0.0000301
   25   3.8854938   1.1963542  -0.0045592   0.0711234   0.0079259   0.0007782
   26   1.1963542   3.6461560   0.9919530   1.4290437  -0.0010047  -0.0063602
   27  -0.0045592   0.9919530   0.9806801  -0.0091911  -0.0039321   0.0022190
   28   0.0711234   1.4290437  -0.0091911   3.8817295   1.1744418  -0.0077170
   29   0.0079259  -0.0010047  -0.0039321   1.1744418   3.7726099   0.9948287
   30   0.0007782  -0.0063602   0.0022190  -0.0077170   0.9948287   0.9811021
   31   0.0002657   0.0185352   0.0001341  -0.0351314   1.4466937  -0.0129565
   32  -0.0001927   0.0010234   0.0000042   0.0043426  -0.0095771  -0.0020140
   33   0.0032548   0.0340657   0.0003305   0.0130703   0.0592076   0.0036384
   34   0.0002017  -0.0001962   0.0000170   0.0014324   0.0036387   0.0007025
           31          32          33          34
    1  -0.0006798   0.0000446   0.0082906   0.0004379
    2   0.0125192  -0.0008833   0.0079120   0.0059438
    3   0.0040949   0.0000898   0.0036385  -0.0005121
    4   0.0040931   0.0000897   0.0063605   0.0003613
    5  -0.0351313   0.0043428   1.1744013  -0.0077176
    6   0.0185436   0.0010236  -0.0010356  -0.0063606
    7   0.0001341   0.0000042  -0.0039322   0.0022191
    8   0.0002658  -0.0001927   0.0079259   0.0007782
    9   0.0021385   0.0000214   0.0062674  -0.0000530
   10   0.0000404  -0.0000006  -0.0000512   0.0000301
   11   0.0001966   0.0000007   0.0005904   0.0000283
   12   0.0000001   0.0000044   0.0000177  -0.0000005
   13   0.0014752   0.0000082   0.0050100   0.0000041
   14   0.0000078   0.0000007   0.0000289   0.0000049
   15   0.0002838   0.0000012   0.0002050   0.0000739
   16   0.0006117   0.0000085  -0.0003274  -0.0000036
   17   0.0000304   0.0000005  -0.0000319  -0.0000033
   18   0.0002838   0.0000012   0.0001890   0.0001477
   19   0.0014742   0.0000082   0.0051831   0.0000177
   20   0.0000078   0.0000007   0.0000255   0.0000170
   21   0.0001966   0.0000007   0.0004509   0.0000028
   22   0.0000001   0.0000044   0.0000020   0.0000008
   23   0.0021374   0.0000214   0.0058963   0.0000265
   24   0.0000404  -0.0000006   0.0000082   0.0000034
   25   0.0002657  -0.0001927   0.0032548   0.0002017
   26   0.0185352   0.0010234   0.0340657  -0.0001962
   27   0.0001341   0.0000042   0.0003305   0.0000170
   28  -0.0351314   0.0043426   0.0130703   0.0014324
   29   1.4466937  -0.0095771   0.0592076   0.0036387
   30  -0.0129565  -0.0020140   0.0036384   0.0007025
   31   3.8504963   0.9863134   1.4468332  -0.0129554
   32   0.9863134   0.9729109  -0.0095747  -0.0020139
   33   1.4468332  -0.0095747   3.7726796   0.9948288
   34  -0.0129554  -0.0020139   0.9948288   0.9811025


 Total job time:  100324.67s(wall), 80561.88s(cpu) 
 Wed Sep  6 14:34:18 2023

        *************************************************************
        *                                                           *
        *  Thank you very much for using Q-Chem.  Have a nice day.  *
        *                                                           *
        *************************************************************


