                  Welcome to Q-Chem
     A Quantum Leap Into The Future Of Chemistry


 Q-Chem 6.0 (devel), Q-Chem, Inc., Pleasanton, CA (2022)

 E. Epifanovsky,  A. T. B. Gilbert,  Xintian Feng,  Joonho Lee,  Yuezhi Mao,  
 N. Mardirossian,  P. Pokhilko,  A. White,  M. Wormit,  M. P. Coons,  
 A. L. Dempwolff,  Zhengting Gan,  D. Hait,  P. R. Horn,  L. D. Jacobson,  
 I. Kaliman,  J. Kussmann,  A. W. Lange,  Ka Un Lao,  D. S. Levine,  Jie Liu,  
 S. C. McKenzie,  A. F. Morrison,  K. Nanda,  F. Plasser,  D. R. Rehn,  
 M. L. Vidal,  Zhi-Qiang You,  Ying Zhu,  B. Alam,  B. Albrecht,  
 A. Aldossary,  E. Alguire,  J. H. Andersen,  V. Athavale,  D. Barton,  
 K. Begam,  A. Behn,  N. Bellonzi,  Y. A. Bernard,  E. J. Berquist,  
 H. Burton,  A. Carreras,  K. Carter-Fenk,  Romit Chakraborty,  
 Chandrima Chakravarty,  Junhan Chen,  A. D. Chien,  K. D. Closser,  
 V. Cofer-Shabica,  L. Cunha,  S. Dasgupta,  Jia Deng,  M. de Wergifosse,  
 M. Diedenhofen,  Hainam Do,  S. Ehlert,  Po-Tung Fang,  S. Fatehi,  
 Qingguo Feng,  T. Friedhoff,  B. Ganoe,  J. Gayvert,  Qinghui Ge,  
 G. Gidofalvi,  M. Goldey,  J. Gomes,  C. Gonzalez-Espinoza,  S. Gulania,  
 A. Gunina,  J. A. Gyamfi,  M. W. D. Hanson-Heine,  P. H. P. Harbach,  
 A. W. Hauser,  M. F. Herbst,  M. Hernandez Vera,  M. Hodecker,  
 Z. C. Holden,  S. Houck,  Xunkun Huang,  Kerwin Hui,  B. C. Huynh,  
 K. Ikeda,  M. Ivanov,  Hyunjun Ji,  Zuxin Jin,  Hanjie Jiang,  B. Kaduk,  
 S. Kaehler,  R. Kang,  K. Khistyaev,  Jaehoon Kim,  Yongbin Kim,  
 P. Klunzinger,  Z. Koczor-Benda,  Joong Hoon Koh,  D. Kosenkov,  
 Saikiran Kotaru,  L. Koulias,  T. Kowalczyk,  C. M. Krauter,  K. Kue,  
 A. Kunitsa,  T. Kus,  A. Landau,  K. V. Lawler,  D. Lefrancois,  S. Lehtola,  
 Rain Li,  Shaozhi Li,  Yi-Pei Li,  Jiashu Liang,  M. Liebenthal,  
 Hung-Hsuan Lin,  You-Sheng Lin,  Fenglai Liu,  Kuan-Yu Liu,  
 M. Loipersberger,  A. Luenser,  C. Malbon,  A. Manjanath,  P. Manohar,  
 E. Mansoor,  S. F. Manzer,  Shan-Ping Mao,  A. V. Marenich,  T. Markovich,  
 S. Mason,  F. Matz,  S. A. Maurer,  P. F. McLaughlin,  M. F. S. J. Menger,  
 J.-M. Mewes,  S. A. Mewes,  P. Morgante,  Mohammad Mostafanejad,  
 J. W. Mullinax,  K. J. Oosterbaan,  G. Paran,  V. Parravicini,  
 Alexander C. Paul,  Suranjan K. Paul,  F. Pavosevic,  Zheng Pei,  S. Prager,  
 E. I. Proynov,  E. Ramos,  B. Rana,  A. E. Rask,  A. Rettig,  R. M. Richard,  
 F. Rob,  E. Rossomme,  T. Scheele,  M. Scheurer,  M. Schneider,  
 P. E. Schneider,  N. Sergueev,  S. M. Sharada,  Hengyuan Shen,  
 W. Skomorowski,  D. W. Small,  C. J. Stein,  Yingli Su,  Yu-Chuan Su,  
 E. J. Sundstrom,  Zhen Tao,  J. Thirman,  Hung-Yi Tsai,  T. Tsuchimochi,  
 N. M. Tubman,  C. Utku,  S. P. Veccham,  O. Vydrov,  J. Wenzel,  
 Jonathan Wong,  J. Witte,  A. Yamada,  Chou-Hsun Yang,  Kun Yao,  
 S. Yeganeh,  S. R. Yost,  A. Zech,  F. Zeller,  Igor Ying Zhang,  
 Xing Zhang,  Yu Zhang,  D. Zuev,  A. Aspuru-Guzik,  A. T. Bell,  
 N. A. Besley,  K. B. Bravaya,  B. R. Brooks,  D. Casanova,  Jeng-Da Chai,  
 Hsing-Ta Chen,  S. Coriani,  C. J. Cramer,  A. E. DePrince, III,  
 R. A. DiStasio Jr.,  A. Dreuw,  B. D. Dunietz,  T. R. Furlani,  
 W. A. Goddard III,  S. Grimme,  S. Hammes-Schiffer,  T. Head-Gordon,  
 W. J. Hehre,  Chao-Ping Hsu,  T.-C. Jagau,  Yousung Jung,  A. Klamt,  
 Jing Kong,  D. S. Lambrecht,  Xiangyuan Li,  WanZhen Liang,  N. J. Mayhall,  
 C. W. McCurdy,  J. B. Neaton,  T. Neudecker,  C. Ochsenfeld,  
 J. A. Parkhill,  R. Peverati,  V. A. Rassolov,  Haisheng Ren,  Yihan Shao,  
 L. V. Slipchenko,  R. P. Steele,  J. E. Subotnik,  A. J. W. Thom,  
 A. Tkatchenko,  D. G. Truhlar,  T. Van Voorhis,  Fan Wang,  
 T. A. Wesolowski,  K. B. Whaley,  H. L. Woodcock III,  P. M. Zimmerman,  
 S. Faraji,  P. M. W. Gill,  M. Head-Gordon,  J. M. Herbert,  A. I. Krylov

 Contributors to earlier versions of Q-Chem not listed above: 
 R. D. Adamson,  B. Austin,  R. Baer,  J. Baker,  G. J. O. Beran,  
 K. Brandhorst,  S. T. Brown,  E. F. C. Byrd,  Arup K. Chakraborty,  
 G. K. L. Chan,  Chun-Min Chang,  Yunqing Chen,  C.-L. Cheng,  
 Siu Hung Chien,  D. M. Chipman,  D. L. Crittenden,  H. Dachsel,  
 R. J. Doerksen,  A. D. Dutoi,  R. G. Edgar,  J. Fosso-Tande,  
 L. Fusti-Molnar,  D. Ghosh,  A. Ghysels,  A. Golubeva-Zadorozhnaya,  
 J. Gonthier,  M. S. Gordon,  S. R. Gwaltney,  G. Hawkins,  J. E. Herr,  
 A. Heyden,  S. Hirata,  E. G. Hohenstein,  G. Kedziora,  F. J. Keil,  
 C. Kelley,  Jihan Kim,  R. A. King,  R. Z. Khaliullin,  P. P. Korambath,  
 W. Kurlancheek,  A. Laurent,  A. M. Lee,  M. S. Lee,  S. V. Levchenko,  
 Ching Yeh Lin,  D. Liotard,  E. Livshits,  R. C. Lochan,  I. Lotan,  
 L. A. Martinez-Martinez,  P. E. Maslen,  N. Nair,  D. P. O'Neill,  
 D. Neuhauser,  E. Neuscamman,  C. M. Oana,  R. Olivares-Amaya,  R. Olson,  
 T. M. Perrine,  B. Peters,  P. A. Pieniazek,  A. Prociuk,  Y. M. Rhee,  
 J. Ritchie,  M. A. Rohrdanz,  E. Rosta,  N. J. Russ,  H. F. Schaefer III,  
 M. W. Schmidt,  N. E. Schultz,  S. Sharma,  N. Shenvi,  C. D. Sherrill,  
 A. C. Simmonett,  A. Sodt,  T. Stein,  D. Stuck,  K. S. Thanthiriwatte,  
 V. Vanovschi,  L. Vogt,  Tao Wang,  A. Warshel,  M. A. Watson,  
 C. F. Williams,  Q. Wu,  X. Xu,  Jun Yang,  W. Zhang,  Yan Zhao

   Please cite Q-Chem as follows:
  "Software for the frontiers of quantum chemistry:
   An overview of developments in the Q-Chem 5 package"
   J. Chem. Phys. 155, 084801 (2021)
   https://doi.org/10.1063/5.0055522 (open access)

 Q-Chem 6.0.1 for Intel X86 EM64T Linux

 Parts of Q-Chem use Armadillo 9.900.5 (Nocturnal Misbehaviour).
 http://arma.sourceforge.net/

 Q-Chem begins on Mon Sep  4 16:22:02 2023  

 Host: atlas-162
0

     Scratch files written to ./qchem148766//
 Processing $rem in /scratch/abel/SOFTWARE/qchem/config/preferences:
 Processing $rem in /dipc/acebg/.qchemrc:

 Checking the input file for inconsistencies... 	...done.

--------------------------------------------------------------
User input:
--------------------------------------------------------------
$comment
 RAS-SF CALCULATION
$end

$molecule
 READ phenalenyl.molecule
$end

$rem
!**CALCULATION TYPE***     
JOBTYPE            sp    
EXCHANGE           HF
CORRELATION        RASCI    !RASCI=Casanova; RASCI2=Zimmerman
BASIS              6-311G(d,p)

!***SCF REFERENCE***
!SKIP_SCFMAN        FALSE
UNRESTRICTED       FALSE
!SCF_GUESS          core
!SCF_GUESS_MIX      FALSE
!SCF_GUESS_ALWAYS   FALSE
MAX_SCF_CYCLES     500
!SCF_CONVERGENCE    8
!SCF_ALGORITHM      DIIS !DIIS,DM,DIIS_DM,GDM,DIIS_GDM,GD

!SYMMETRY           TRUE   !use of symmetry for calculating integrals
!SYM_IGNORE         FALSE  !turn off using symmetry
!SYM_TOL            5      !tolerance for determining point group
!USE_ABELIAN_SUBGROUP      !define to use abelian group

!THRESH             14
SCF_FINAL_PRINT     1 !0,1,2,3

!****RAS-SF****
RAS_ROOTS          20       !number of RAS-CI roots to be computed
SET_ITER           60     !number of iterations in RASCI
RAS_ELEC           7       !number of electrons in RAS2
!RAS_ELEC_ALPHA     6       !spin-α electrons in RAS2 
!RAS_ELEC_BETA      4       !spin-β electrons in RAS2

RAS_ACT            7       !number of orbitals in RAS2 
RAS_ACT_ORB  [41,42,43,44,45,46,47] !user-selected RAS2 orbitals
RAS_OCC            40       !number of orbitals in RAS1
!N_FROZEN_CORE      47     !Number of frozen core orbitals
!N_FROZEN_VIRTUAL   371      !Number of frozen virtual orbitals

RAS_DO_HOLE        TRUE   !presence of hole excitations in RAS-CI wave function
RAS_DO_PART        TRUE   !presence of particle excitations
!RAS_AMPL_PRINT     10     !threshold (×10 2 ) for the CI amplitudes

!RAS_GUESS_CS       0      !number of closed shell guess conﬁgurations
!RAS_SPIN_MULT      0      !spin multiplicity. Only for Ms = 0 
!RAS_SRDFT          FALSE  !short-range density functional RAS-CI
!RAS_NFRAG          0     !fragments of excitation analysis in RASCI

RAS_PRINT          2      !level of information
RAS_NATORB         TRUE   !computation of the natural orbital occupancies
!RAS_NATORB_STATE  0      !Saves NO of i RAS computed state in .fchk ﬁle
!RAS_FOD            TRUE

!****RAS-SOC****
CALC_SOC           TRUE   !calculate SOC for EOM-CC, RAS-CI, ADC, TDDFT/TDA and TDDFT
!RAS_SOC_2E        TRUE   !two-electron mean-ﬁeld contribution, default=true
RAS_SOC_SYM_DENS   TRUE   !averaging of α and β densities

!****MEMORY****
MEM_TOTAL          12000 !Default 2000 MB
MEM_STATIC         3000  !Default 64 MB

!**Molecular Properties and Analysis **                                                                                          
POP_MULLIKEN       TRUE   !Run Mulliken population analysis
LOWDIN_POPULATION  TRUE   !Run Löwdin population analysis
GUI                2       !Checkpoints generation
STATE_ANALYSIS     TRUE

!**Wave function analysis of RAS-CI states: MOLDEN**
!PLOTS = 0     ! Note: This can be omitted, default is 0
!NTO_PAIRS = 2 ! Note: This can be omitted, default is 2
!GUI 0
!MOLDEN_FORMAT      TRUE
!PRINT_ORBITALS     15

!**Wave function analysis of RAS-CI state: CUBE**
!NTO_PAIRS = 2 ! Note: This can be omitted, default is 2
!PLOTS = 1
!GUI 0

!**SR-DFT**
!RAS_SRDFT           TRUE !Perform short-range density functional RAS-CI
!RAS_SRDFT_EXC       0 !EX functional. 0=HF. 
!RAS_SRDFT_ONLY_COR  TRUE !No use of EXC functional
!RAS_SRDFT_COR       srPBE !short-range correlation functional
!ras_srdft_0         TRUE !true: no iteration (one-shot); false: iteration
!RAS_OMEGA           400 !Coulomb range-separation parameter. def=400
!RAS_SRDFT_DAMP     0.5 !dumping factor. def=0.5
$end

!$plots
!   grid_points 100 100 100
!   grid_range  (-10,10) (-10,10) (-10,10)
!$end

--------------------------------------------------------------
 ----------------------------------------------------------------
             Standard Nuclear Orientation (Angstroms)
    I     Atom           X                Y                Z
 ----------------------------------------------------------------
    1      C       0.0000000000     0.0000000000     2.8117670115
    2      C      -1.2061300000     0.0000000000     2.1258270115
    3      C      -1.2336900000     0.0000000000     0.7122970115
    4      C       0.0000000000     0.0000000000    -0.0000229885
    5      C       1.2336900000     0.0000000000     0.7122970115
    6      C       1.2061300000     0.0000000000     2.1258270115
    7      C      -2.4441500000     0.0000000000    -0.0184729885
    8      C       0.0000000000     0.0000000000    -1.4243629885
    9      C      -1.2380400000     0.0000000000    -2.1073829885
   10      C      -2.4351500000     0.0000000000    -1.4058829885
   11      C       1.2380400000     0.0000000000    -2.1073829885
   12      C       2.4351500000     0.0000000000    -1.4058829885
   13      C       2.4441500000     0.0000000000    -0.0184729885
   14      H       3.3832400000     0.0000000000     0.5232070115
   15      H       3.3736400000     0.0000000000    -1.9474929885
   16      H      -3.3832400000     0.0000000000     0.5232070115
   17      H       0.0000000000     0.0000000000     3.8957170115
   18      H      -2.1450100000     0.0000000000     2.6678370115
   19      H       2.1450100000     0.0000000000     2.6678370115
   20      H      -3.3736400000     0.0000000000    -1.9474929885
   21      H       1.2381100000     0.0000000000    -3.1918629885
   22      H      -1.2381100000     0.0000000000    -3.1918629885
 ----------------------------------------------------------------
 Molecular Point Group                 C2v   NOp =  4
 Largest Abelian Subgroup              C2v   NOp =  4
 Nuclear Repulsion Energy =         698.77307975 hartrees
 There are       44 alpha and       43 beta electrons
 Requested basis set is 6-311G(d,p)
 There are 101 shells and 288 basis functions

 Total QAlloc Memory Limit  12000 MB
 Mega-Array Size      2933 MB
 MEM_STATIC part      3000 MB

 A cutoff of  1.0D-09 yielded   3762 shell pairs
 There are     32965 function pairs (     36055 Cartesian)
 Smallest overlap matrix eigenvalue = 7.34E-05

 Scale SEOQF with 1.000000e-01/1.000000e+00/1.000000e-01

 Standard Electronic Orientation quadrupole field applied
 Nucleus-field energy     =    -0.0000000182 hartrees
 Guess from superposition of atomic densities
 Warning:  Energy on first SCF cycle will be non-variational
 SAD guess density has 87.000000 electrons

 -----------------------------------------------------------------------
  General SCF calculation program by
  Eric Jon Sundstrom, Paul Horn, Yuezhi Mao, Dmitri Zuev, Alec White,
  David Stuck, Shaama M.S., Shane Yost, Joonho Lee, David Small,
  Daniel Levine, Susi Lehtola, Hugh Burton, Evgeny Epifanovsky,
  Bang C. Huynh
 -----------------------------------------------------------------------
 Hartree-Fock
 Orthonormalizing orbitals
 A restricted open-shell SCF calculation will be
 performed using GDM
 SCF converges when RMS gradient is below 1.0e-05
 ---------------------------------------
  Cycle       Energy        RMS Gradient
 ---------------------------------------
    1    -495.7131086853      3.06e-01   Descent step
    2    -496.3091816443      2.39e-01   Descent step
    3    -496.7829648194      1.80e-01   Descent step
    4    -497.1429880206      1.33e-01   Descent step
    5    -497.3972034333      8.90e-02   Descent step
    6    -497.5532612247      4.71e-02   Descent step
    7    -497.6188806366      2.01e-02   Normal BFGS step
    8    -497.6230539298      4.56e-03   Normal BFGS step
    9    -497.6231673105      1.76e-03   Normal BFGS step
   10    -497.6231783070      7.15e-04   Normal BFGS step
   11    -497.6231800644      7.70e-05   Normal BFGS step
   12    -497.6231800729      2.60e-05   Normal BFGS step
   13    -497.6231801180      2.06e-05   Normal BFGS step
   14    -497.6231800990      9.01e-06  Convergence criterion met
The disked orbital energies are calculated using alpha and beta Focks
 ---------------------------------------
 Alpha HF Exchange    Energy = -35.57816863275941
 Beta HF Exchange     Energy = -35.13777611719575
 Nuclear Attraction   Energy =   0.00000000000000
 One-Electron (alpha) Energy = -1038.38315283840188
 One-Electron (beta)  Energy = -1020.43529861696220
 Total Coulomb        Energy = 933.13813637699286
 Final Alpha MO Eigenvalues
            1           2           3           4           5           6
    1 -11.2458753 -11.2456731 -11.2456726 -11.2420547 -11.2390029 -11.2390363
            7           8           9          10          11          12
    1 -11.2389614 -11.2391900 -11.2391094 -11.2390863 -11.2374733 -11.2374241
           13          14          15          16          17          18
    1 -11.2374244  -1.1954448  -1.1220327  -1.1220151  -1.0252361  -1.0252134
           19          20          21          22          23          24
    1  -1.0129594  -0.9206290  -0.8505566  -0.8373858  -0.8373627  -0.7152668
           25          26          27          28          29          30
    1  -0.7152476  -0.6950706  -0.6950441  -0.6524096  -0.6006242  -0.6006208
           31          32          33          34          35          36
    1  -0.5931404  -0.5747996  -0.5584120  -0.5473283  -0.5472877  -0.5354896
           37          38          39          40          41          42
    1  -0.4764980  -0.4764829  -0.4726029  -0.4725859  -0.3354508  -0.3548852
           43          44          45          46          47          48
    1  -0.3548664  -0.2084426   0.1153072   0.1092514   0.1092824   0.1517642
           49          50          51          52          53          54
    1   0.1669171   0.1669206   0.1886766   0.1886845   0.2095729   0.2335214
           55          56          57          58          59          60
    1   0.2578487   0.2578535   0.2623029   0.2623050   0.3803636   0.3921882
           61          62          63          64          65          66
    1   0.3922255   0.4185349   0.4442051   0.4461479   0.4461530   0.4709125
           67          68          69          70          71          72
    1   0.4709309   0.4751723   0.4912087   0.4912274   0.5538488   0.5668550
           73          74          75          76          77          78
    1   0.5737943   0.5800320   0.5800428   0.5874074   0.5874179   0.6070711
           79          80          81          82          83          84
    1   0.6071066   0.6153383   0.6369640   0.6360041   0.6360140   0.6378279
           85          86          87          88          89          90
    1   0.6378440   0.6627565   0.6794579   0.6794688   0.6835750   0.7093938
           91          92          93          94          95          96
    1   0.7094245   0.7113065   0.7125711   0.7202220   0.7635235   0.7635250
           97          98          99         100         101         102
    1   0.8051315   0.8054962   0.8055151   0.8325598   0.8333368   0.8333342
          103         104         105         106         107         108
    1   0.8406058   0.8406121   0.8524751   0.8524939   0.8649868   0.8983772
          109         110         111         112         113         114
    1   0.9526402   0.9519845   0.9629188   0.9629253   0.9898656   0.9898754
          115         116         117         118         119         120
    1   1.0159632   1.0672078   1.0672331   1.0732471   1.0952499   1.1014929
          121         122         123         124         125         126
    1   1.1015025   1.1469779   1.1469882   1.1513033   1.1513871   1.1711414
          127         128         129         130         131         132
    1   1.1711615   1.1967573   1.2686271   1.2686945   1.2730875   1.2785030
          133         134         135         136         137         138
    1   1.2907551   1.2907598   1.3193622   1.3346873   1.3486669   1.3528713
          139         140         141         142         143         144
    1   1.3528726   1.3745663   1.3745672   1.4103073   1.4103422   1.5185476
          145         146         147         148         149         150
    1   1.5368406   1.5369102   1.6085729   1.6433694   1.6433968   1.6981782
          151         152         153         154         155         156
    1   1.6981891   1.7034528   1.7305087   1.7457405   1.7519823   1.7520317
          157         158         159         160         161         162
    1   1.7899521   1.8008515   1.8008586   1.8281101   1.8281399   1.8508663
          163         164         165         166         167         168
    1   1.8548239   1.8548989   1.9035999   1.9143969   1.9144548   1.9500569
          169         170         171         172         173         174
    1   2.0064554   2.0188263   2.0188917   2.0243775   2.0306577   2.0307164
          175         176         177         178         179         180
    1   2.0676647   2.0813572   2.0813779   2.1209402   2.1209544   2.1479678
          181         182         183         184         185         186
    1   2.1617178   2.1618241   2.1982855   2.2168936   2.2169617   2.2192817
          187         188         189         190         191         192
    1   2.2193252   2.2199626   2.2760394   2.2760687   2.3049710   2.3120745
          193         194         195         196         197         198
    1   2.3121087   2.3185870   2.3553252   2.4386440   2.4387243   2.4884359
          199         200         201         202         203         204
    1   2.5008861   2.5009682   2.5219096   2.5219584   2.5394694   2.5597714
          205         206         207         208         209         210
    1   2.5744960   2.6662280   2.6663021   2.7565857   2.7596056   2.7596111
          211         212         213         214         215         216
    1   2.7656352   2.7657088   2.8611943   2.8612779   2.9114424   2.9151377
          217         218         219         220         221         222
    1   2.9152284   2.9218801   2.9317631   2.9366591   2.9367450   2.9588856
          223         224         225         226         227         228
    1   2.9789859   2.9870531   2.9870806   2.9900866   2.9974094   2.9974148
          229         230         231         232         233         234
    1   3.0553156   3.0550731   3.0554002   3.1212546   3.1213067   3.1668899
          235         236         237         238         239         240
    1   3.1869728   3.2080640   3.2195910   3.2196379   3.2435905   3.2787375
          241         242         243         244         245         246
    1   3.2787548   3.3004239   3.3005856   3.4277361   3.4277638   3.5102067
          247         248         249         250         251         252
    1   3.6147531   3.6148090   3.7068475   3.7213538   3.7605682   3.7606867
          253         254         255         256         257         258
    1   3.8261338   3.8293986   3.8295530   3.8499952   3.9027115   3.9029295
          259         260         261         262         263         264
    1   3.9308188   3.9329598   3.9330037   4.0539136   4.0539353   4.2196822
          265         266         267         268         269         270
    1   4.4387822   4.4390781   4.4514530   4.4855211   4.5259261   4.5259353
          271         272         273         274         275         276
    1   4.7909805   4.7910627   5.2358647   5.2708724   5.2709328  24.5678531
          277         278         279         280         281         282
    1  24.9185591  24.9185737  25.0871435  25.0999298  25.1001412  25.1848135
          283         284         285         286         287         288
    1  25.1995632  25.2158606  25.2160476  25.3412744  25.3455868  25.3457398
 Final Beta MO Eigenvalues
            1           2           3           4           5           6
    1 -11.2458499 -11.2456441 -11.2456434 -11.2420491 -11.2376984 -11.2376527
            7           8           9          10          11          12
    1 -11.2376519 -11.2361561 -11.2361133 -11.2360982 -11.2357845 -11.2357893
           13          14          15          16          17          18
    1 -11.2357463  -1.1897795  -1.1130496  -1.1130369  -1.0154839  -1.0154559
           19          20          21          22          23          24
    1  -1.0088137  -0.9037774  -0.8470882  -0.8313812  -0.8313527  -0.7099912
           25          26          27          28          29          30
    1  -0.7099675  -0.6915879  -0.6915605  -0.6500421  -0.5976091  -0.5976058
           31          32          33          34          35          36
    1  -0.5887961  -0.5723802  -0.5406756  -0.5444978  -0.5444567  -0.5314834
           37          38          39          40          41          42
    1  -0.4740469  -0.4740306  -0.4410554  -0.4410528  -0.3241107  -0.3073417
           43          44          45          46          47          48
    1  -0.3073044   0.0078622   0.1244928   0.1491002   0.1491131   0.1525634
           49          50          51          52          53          54
    1   0.1676132   0.1676166   0.1894582   0.1894653   0.2101884   0.2347058
           55          56          57          58          59          60
    1   0.2589407   0.2589438   0.2866186   0.2866371   0.3819488   0.3947304
           61          62          63          64          65          66
    1   0.3947647   0.4273271   0.4454143   0.4492110   0.4492174   0.4743247
           67          68          69          70          71          72
    1   0.4743408   0.4772432   0.4943840   0.4944013   0.5635029   0.5729943
           73          74          75          76          77          78
    1   0.5849153   0.5909445   0.5909549   0.5947919   0.5948124   0.6101518
           79          80          81          82          83          84
    1   0.6101951   0.6177592   0.6395890   0.6424375   0.6424425   0.6515142
           85          86          87          88          89          90
    1   0.6515160   0.6651058   0.6816285   0.6816403   0.6852793   0.7122218
           91          92          93          94          95          96
    1   0.7122519   0.7161067   0.7293493   0.7309578   0.7709036   0.7709090
           97          98          99         100         101         102
    1   0.8071269   0.8064697   0.8065036   0.8337875   0.8409107   0.8409160
          103         104         105         106         107         108
    1   0.8428845   0.8428887   0.8556904   0.8557124   0.8684508   0.9000491
          109         110         111         112         113         114
    1   0.9542398   0.9568416   0.9654395   0.9654464   0.9924156   0.9924288
          115         116         117         118         119         120
    1   1.0192193   1.0695907   1.0696157   1.0748682   1.0973572   1.1036635
          121         122         123         124         125         126
    1   1.1036711   1.1500606   1.1500597   1.1536788   1.1537775   1.1794862
          127         128         129         130         131         132
    1   1.1795061   1.2001479   1.2770912   1.2771567   1.2776429   1.2920608
          133         134         135         136         137         138
    1   1.2928646   1.2928694   1.3215356   1.3468946   1.3519831   1.3598797
          139         140         141         142         143         144
    1   1.3598841   1.3776837   1.3776819   1.4181056   1.4181401   1.5203859
          145         146         147         148         149         150
    1   1.5392825   1.5393511   1.6144023   1.6445678   1.6445948   1.6995076
          151         152         153         154         155         156
    1   1.6995193   1.7063705   1.7363044   1.7464849   1.7581249   1.7581698
          157         158         159         160         161         162
    1   1.7936336   1.8072782   1.8072785   1.8325945   1.8326231   1.8519470
          163         164         165         166         167         168
    1   1.8591619   1.8592338   1.9050637   1.9154677   1.9155230   1.9549167
          169         170         171         172         173         174
    1   2.0099565   2.0214675   2.0215371   2.0272924   2.0324631   2.0325219
          175         176         177         178         179         180
    1   2.0742969   2.0884338   2.0884544   2.1253384   2.1253524   2.1489902
          181         182         183         184         185         186
    1   2.1635062   2.1636089   2.2015053   2.2210705   2.2211419   2.2206539
          187         188         189         190         191         192
    1   2.2206989   2.2249607   2.2816402   2.2816699   2.3120120   2.3134228
          193         194         195         196         197         198
    1   2.3134579   2.3204838   2.3570012   2.4409801   2.4410587   2.4926378
          199         200         201         202         203         204
    1   2.5029543   2.5030344   2.5272988   2.5273503   2.5457399   2.5617070
          205         206         207         208         209         210
    1   2.5751250   2.6668756   2.6669480   2.7571018   2.7619823   2.7619911
          211         212         213         214         215         216
    1   2.7701617   2.7702365   2.8632562   2.8633430   2.9121734   2.9162118
          217         218         219         220         221         222
    1   2.9163051   2.9235390   2.9373628   2.9372660   2.9373543   2.9599814
          223         224         225         226         227         228
    1   2.9802713   2.9880675   2.9880944   2.9911445   3.0049846   3.0049847
          229         230         231         232         233         234
    1   3.0565211   3.0571115   3.0567181   3.1301172   3.1301591   3.1692183
          235         236         237         238         239         240
    1   3.1880793   3.2208888   3.2204660   3.2205129   3.2491522   3.2836658
          241         242         243         244         245         246
    1   3.2836801   3.3017377   3.3018979   3.4339036   3.4339243   3.5120973
          247         248         249         250         251         252
    1   3.6159054   3.6159634   3.7083195   3.7225396   3.7621437   3.7622625
          253         254         255         256         257         258
    1   3.8276979   3.8305208   3.8306747   3.8516088   3.9043884   3.9046094
          259         260         261         262         263         264
    1   3.9325346   3.9345284   3.9345742   4.0556600   4.0556805   4.2214488
          265         266         267         268         269         270
    1   4.4406388   4.4409353   4.4531919   4.4885127   4.5285698   4.5285777
          271         272         273         274         275         276
    1   4.7933461   4.7934268   5.2386868   5.2724603   5.2725226  24.5685844
          277         278         279         280         281         282
    1  24.9195163  24.9195296  25.0875101  25.1006227  25.1008336  25.1866242
          283         284         285         286         287         288
    1  25.1996306  25.2171129  25.2172982  25.3421138  25.3464712  25.3466241
 SCF time:   CPU 70.17s  wall 71.00s 
<S^2> =          0.750000000
 SCF   energy in the final basis set =     -497.6231800990
 Total energy in the final basis set =     -497.6231800990
  
     ##========================================##
     ||                                        ||
     ||              R A S M A N 2             ||
     ||________________________________________||
     ||                                        ||
     ||  Author:                               ||
     ||                                        ||
     ||        David Casanova (2010)           ||
     ||                                        ||
     ##========================================##
  
Setting single-point xc-functionals (if necessary)

  ***************************************************
  *  RAS-CI Dimensions:                             *
  *                                                 *
  *  Active Elec.:   7 ( 4, 3)   Active Orb.:   7   *
  *  Doubly Occ. :  40           Doubly Vir.: 241   *
  *  Frozen Occ. :   0           Frozen Vir.:   0   *
  *                                                 *
  *  Total CI configurations:    551985             * 
  *    Active configurations:      1225             * 
  *      Hole configurations:     78400             * 
  *  Particle configurations:    472360             * 
  *                                                 *
  *   Requested states:       20                    *
  *  Spin multiplicity: Any multiplicity            *
  *                                                 *
  ***************************************************
-----------------------------------------
    Memory requirements of RASCI

 Each CI-vector requires      4.21 MiB 
 Max. subspace vectors           1200      

 Reduced Lists                0.00 MiB 
 Excitation Lists             0.00 MiB 
 Excitation Lists Sign        0.00 MiB 
 CI-space (Max)            5148.80 MiB 
 Integrals                   54.75 MiB 
 Memory required (Max)     5148.80 MiB 
 Memory available          2861.02 MiB 

 Q-Chem warning in module rasman2/ras_mem_check.C, line 162:

 Static memory may be insufficient to store the subspace vectors


    Disk requirements of RASCI

 Fock matrix                  1.27 MiB 
 2-electron integrals        97.96 MiB 
 CI-space                 10107.15 MiB 
 Disk required            10206.37 MiB 
-----------------------------------------
  
RAS1 HF-like energy:           -491.2350877099
 Computing integrals
 Computing J and K matrices
 Computing addressing
 Making amplitude guesses
 
Direct CI diagonalization
 ---------------------------------------------------
 Iter    Rts Conv    Rts Left    Ttl Dev     Max Dev
 ---------------------------------------------------
   1         0          20      0.006141    0.000356
   2         0          20      0.003126    0.000196
   3         0          20      0.002036    0.000159
   4         0          20      0.001913    0.000171
   5         0          20      0.001410    0.000261
   6         0          20      0.001264    0.000218
   7         0          20      0.001333    0.000232
   8         0          20      0.001124    0.000180
   9         0          20      0.000898    0.000161
  10         0          20      0.000840    0.000161
  11         1          19      0.000886    0.000161
  12         1          19      0.000849    0.000150
  13         4          16      0.000879    0.000164
  14         5          15      0.000743    0.000144
  15         5          15      0.000594    0.000110
  16         7          13      0.000554    0.000093
  17         7          13      0.000426    0.000086
  18         7          13      0.000320    0.000073
  19         7          13      0.000300    0.000068
  20         8          12      0.000245    0.000058
  21         8          12      0.000214    0.000050
  22         8          12      0.000191    0.000042
  23        10          10      0.000158    0.000036
  24        10          10      0.000120    0.000031
  25        10          10      0.000094    0.000025
  26        10          10      0.000094    0.000025
  27        12           8      0.000101    0.000026
  28        13           7      0.000064    0.000017
  29        14           6      0.000044    0.000011
  30        13           7      0.000046    0.000011
  31        16           4      0.000038    0.000010
  32        16           4      0.000029    0.000006
  33        16           4      0.000024    0.000005
  34        16           4      0.000019    0.000004
  35        16           4      0.000015    0.000003
  36        16           4      0.000014    0.000002
  37        16           4      0.000012    0.000002
  38        19           1      0.000010    0.000001
  39        20           0      0.000009    0.000001    Roots Converged
 ---------------------------------------------------
   
**************************************************
 RAS-CI total energy for state   1:   -497.707663176037
  Excitation energy (eV) =  0.000000000000
  State symmetry: A2    (C2v      )
  <S^2>      :  0.7500
  Dipole Moment:   -0.0000 X    -0.0000 Y     0.0000 Z
 NATURAL OCCUPATION NUMBERS (higher than 1.0E-05)
            1           2           3           4           5           6
    1   2.0000000   2.0000000   2.0000000   2.0000000   2.0000000   2.0000000
            7           8           9          10          11          12
    1   2.0000000   2.0000000   2.0000000   2.0000000   2.0000000   2.0000000
           13          14          15          16          17          18
    1   2.0000000   2.0000000   2.0000000   2.0000000   2.0000000   2.0000000
           19          20          21          22          23          24
    1   2.0000000   2.0000000   2.0000000   2.0000000   2.0000000   2.0000000
           25          26          27          28          29          30
    1   2.0000000   2.0000000   2.0000000   2.0000000   2.0000000   2.0000000
           31          32          33          34          35          36
    1   2.0000000   2.0000000   2.0000000   2.0000000   2.0000000   2.0000000
           37          38          39          40          41          42
    1   2.0000000   1.9982002   1.9930119   1.9930100   1.9421305   1.9318743
           43          44          45          46          47          48
    1   1.9318519   1.0010780   0.0657050   0.0656820   0.0555351   0.0070293
           49          50          51          52          53          54
    1   0.0070276   0.0019038   0.0007808   0.0007806   0.0006597   0.0006122
           55          56          57          58          59          60
    1   0.0004559   0.0004558   0.0003531   0.0002730   0.0002730   0.0001996
           61          62          63          64          65          66
    1   0.0001537   0.0001375   0.0001375   0.0001278   0.0001278   0.0000981
           67          68          69          70          71
    1   0.0000981   0.0000848   0.0000749   0.0000110   0.0000110
Natural Orbitals stored in FCHK

  Amplitudes : 
  
 | HOLE  | ALPHA   | BETA    | PART  |    AMPLITUDE 
--------------------------------------------------
 |       | 1111000 | 1110000 |       |     9.3260141976488E-01
 |       | 1110010 | 1101000 |       |     1.0738715087177E-01
 |       | 1110001 | 1011000 |       |    -1.0733738923231E-01
--------------------------------------------------
*** Contributions RASCI wfn    Active:  95.77
                                 Hole:   1.62
                                 Part:   2.61

      Mulliken population analysis 
 ---------------------------------------------------
   Atom    Charge (a.u.)   Spin (a.u.)  
 ---------------------------------------------------
   1  C   -0.069911       -0.040709 
   2  C   -0.076255        0.203180 
   3  C   -0.013403       -0.035597 
   4  C   -0.121800        0.001667 
   5  C   -0.013403       -0.035597 
   6  C   -0.076255        0.203180 
   7  C   -0.076365        0.203344 
   8  C   -0.013384       -0.035608 
   9  C   -0.076459        0.203426 
  10  C   -0.069715       -0.040731 
  11  C   -0.076459        0.203426 
  12  C   -0.069715       -0.040731 
  13  C   -0.076365        0.203344 
  14  H    0.089177        0.001378 
  15  H    0.098108       -0.000285 
  16  H    0.089177        0.001378 
  17  H    0.098141       -0.000285 
  18  H    0.089175        0.001377 
  19  H    0.089175        0.001377 
  20  H    0.098108       -0.000285 
  21  H    0.089214        0.001377 
  22  H    0.089214        0.001377 
 ---------------------------------------------------
   Sum:   -0.000000        1.000000 
 ---------------------------------------------------
 
  
 NATURAL OCCUPATION NUMBERS (higher than 1.0E-05)
            1           2           3           4           5           6
    1   2.0000000   2.0000000   2.0000000   2.0000000   2.0000000   2.0000000
            7           8           9          10          11          12
    1   2.0000000   2.0000000   2.0000000   2.0000000   2.0000000   2.0000000
           13          14          15          16          17          18
    1   2.0000000   2.0000000   2.0000000   2.0000000   2.0000000   2.0000000
           19          20          21          22          23          24
    1   2.0000000   2.0000000   2.0000000   2.0000000   2.0000000   2.0000000
           25          26          27          28          29          30
    1   2.0000000   2.0000000   2.0000000   2.0000000   2.0000000   2.0000000
           31          32          33          34          35          36
    1   2.0000000   2.0000000   2.0000000   2.0000000   2.0000000   2.0000000
           37          38          39          40          41          42
    1   2.0000000   1.9982002   1.9930119   1.9930100   1.9421305   1.9318743
           43          44          45          46          47          48
    1   1.9318519   1.0010780   0.0657050   0.0656820   0.0555351   0.0070293
           49          50          51          52          53          54
    1   0.0070276   0.0019038   0.0007808   0.0007806   0.0006597   0.0006122
           55          56          57          58          59          60
    1   0.0004559   0.0004558   0.0003531   0.0002730   0.0002730   0.0001996
           61          62          63          64          65          66
    1   0.0001537   0.0001375   0.0001375   0.0001278   0.0001278   0.0000981
           67          68          69          70          71
    1   0.0000981   0.0000848   0.0000749   0.0000110   0.0000110
  
*** Unpaired Electrons
 Yamaguchi Nd:         1.81
 Head-Gordon Nu:       1.42
 Head-Gordon Nu_nl:    1.09
  
**************************************************
 RAS-CI total energy for state   2:   -497.606441831164
  Excitation energy (eV) =  2.754372932105
  State symmetry: B2    (C2v      )
  <S^2>      :  0.7500
  Dipole Moment:   -0.0000 X    -0.0000 Y    -0.0204 Z
  Trans. Moment:   -0.0292 X     0.0000 Y     0.0000 Z
  Strength   :  0.000057
  Natural transition orbitals ( 1 -> 2 ):
   e-/hole pair  1 alpha:  ampl =  0.628056 ( 39.4%)   [7 : 8]
   e-/hole pair  2 alpha:  ampl =  0.090043 (  0.8%)   [6 : 9]
   e-/hole pair  1 beta :  ampl =  0.627347 ( 39.4%)   [7 : 8]
   e-/hole pair  2 beta :  ampl =  0.090518 (  0.8%)   [6 : 9]
   Sum of square amplitudes: 0.83

 NATURAL OCCUPATION NUMBERS (higher than 1.0E-05)
            1           2           3           4           5           6
    1   2.0000000   2.0000000   2.0000000   2.0000000   2.0000000   2.0000000
            7           8           9          10          11          12
    1   2.0000000   2.0000000   2.0000000   2.0000000   2.0000000   2.0000000
           13          14          15          16          17          18
    1   2.0000000   2.0000000   2.0000000   2.0000000   2.0000000   2.0000000
           19          20          21          22          23          24
    1   2.0000000   2.0000000   2.0000000   2.0000000   2.0000000   2.0000000
           25          26          27          28          29          30
    1   2.0000000   2.0000000   2.0000000   2.0000000   2.0000000   2.0000000
           31          32          33          34          35          36
    1   2.0000000   2.0000000   2.0000000   2.0000000   2.0000000   2.0000000
           37          38          39          40          41          42
    1   2.0000000   1.9961805   1.9824182   1.9809419   1.9331891   1.9313728
           43          44          45          46          47          48
    1   1.4784892   1.0039835   0.5206048   0.0664082   0.0635248   0.0175858
           49          50          51          52          53          54
    1   0.0163688   0.0032100   0.0007385   0.0006419   0.0006274   0.0005590
           55          56          57          58          59          60
    1   0.0004771   0.0004255   0.0003637   0.0003095   0.0002375   0.0001805
           61          62          63          64          65          66
    1   0.0001736   0.0001460   0.0001382   0.0001219   0.0001158   0.0001133
           67          68          69          70          71          72
    1   0.0000895   0.0000845   0.0000647   0.0000243   0.0000194   0.0000119
Natural Orbitals stored in FCHK

  Amplitudes : 
  
 | HOLE  | ALPHA   | BETA    | PART  |    AMPLITUDE 
--------------------------------------------------
 |       | 1111000 | 1101000 |       |     6.4515989739615E-01
 |       | 1110010 | 1110000 |       |     6.4341667580146E-01
--------------------------------------------------
*** Contributions RASCI wfn    Active:  90.02
                                 Hole:   4.72
                                 Part:   5.26

      Mulliken population analysis 
 ---------------------------------------------------
   Atom    Charge (a.u.)   Spin (a.u.)  
 ---------------------------------------------------
   1  C   -0.066976        0.211285 
   2  C   -0.076314       -0.015905 
   3  C   -0.017472        0.069660 
   4  C   -0.119645       -0.041795 
   5  C   -0.017472        0.069660 
   6  C   -0.076314       -0.015905 
   7  C   -0.070093        0.151627 
   8  C   -0.025239        0.285521 
   9  C   -0.075867        0.027783 
  10  C   -0.068218        0.037007 
  11  C   -0.075867        0.027783 
  12  C   -0.068218        0.037006 
  13  C   -0.070093        0.151627 
  14  H    0.088842        0.001104 
  15  H    0.097986        0.000311 
  16  H    0.088842        0.001104 
  17  H    0.097708        0.001615 
  18  H    0.089152       -0.000146 
  19  H    0.089152       -0.000146 
  20  H    0.097986        0.000311 
  21  H    0.089059        0.000247 
  22  H    0.089059        0.000247 
 ---------------------------------------------------
   Sum:   -0.000000        1.000000 
 ---------------------------------------------------
 
  
 NATURAL OCCUPATION NUMBERS (higher than 1.0E-05)
            1           2           3           4           5           6
    1   2.0000000   2.0000000   2.0000000   2.0000000   2.0000000   2.0000000
            7           8           9          10          11          12
    1   2.0000000   2.0000000   2.0000000   2.0000000   2.0000000   2.0000000
           13          14          15          16          17          18
    1   2.0000000   2.0000000   2.0000000   2.0000000   2.0000000   2.0000000
           19          20          21          22          23          24
    1   2.0000000   2.0000000   2.0000000   2.0000000   2.0000000   2.0000000
           25          26          27          28          29          30
    1   2.0000000   2.0000000   2.0000000   2.0000000   2.0000000   2.0000000
           31          32          33          34          35          36
    1   2.0000000   2.0000000   2.0000000   2.0000000   2.0000000   2.0000000
           37          38          39          40          41          42
    1   2.0000000   1.9961805   1.9824182   1.9809419   1.9331891   1.9313728
           43          44          45          46          47          48
    1   1.4784892   1.0039835   0.5206048   0.0664082   0.0635248   0.0175858
           49          50          51          52          53          54
    1   0.0163688   0.0032100   0.0007385   0.0006419   0.0006274   0.0005590
           55          56          57          58          59          60
    1   0.0004771   0.0004255   0.0003637   0.0003095   0.0002375   0.0001805
           61          62          63          64          65          66
    1   0.0001736   0.0001460   0.0001382   0.0001219   0.0001158   0.0001133
           67          68          69          70          71          72
    1   0.0000895   0.0000845   0.0000647   0.0000243   0.0000194   0.0000119
  
*** Unpaired Electrons
 Yamaguchi Nd:         3.22
 Head-Gordon Nu:       2.39
 Head-Gordon Nu_nl:    2.26
  
**************************************************
 RAS-CI total energy for state   3:   -497.606416179455
  Excitation energy (eV) =  2.755070950624
  State symmetry: A2    (C2v      )
  <S^2>      :  0.7500
  Dipole Moment:    0.0000 X     0.0000 Y     0.0207 Z
  Trans. Moment:   -0.0000 X    -0.0000 Y     0.0292 Z
  Strength   :  0.000058
  Natural transition orbitals ( 1 -> 3 ):
   e-/hole pair  1 alpha:  ampl =  0.628060 ( 39.4%)   [7 : 8]
   e-/hole pair  2 alpha:  ampl =  0.088868 (  0.8%)   [6 : 9]
   e-/hole pair  1 beta :  ampl =  0.627323 ( 39.4%)   [7 : 8]
   e-/hole pair  2 beta :  ampl =  0.089290 (  0.8%)   [6 : 9]
   Sum of square amplitudes: 0.83

 NATURAL OCCUPATION NUMBERS (higher than 1.0E-05)
            1           2           3           4           5           6
    1   2.0000000   2.0000000   2.0000000   2.0000000   2.0000000   2.0000000
            7           8           9          10          11          12
    1   2.0000000   2.0000000   2.0000000   2.0000000   2.0000000   2.0000000
           13          14          15          16          17          18
    1   2.0000000   2.0000000   2.0000000   2.0000000   2.0000000   2.0000000
           19          20          21          22          23          24
    1   2.0000000   2.0000000   2.0000000   2.0000000   2.0000000   2.0000000
           25          26          27          28          29          30
    1   2.0000000   2.0000000   2.0000000   2.0000000   2.0000000   2.0000000
           31          32          33          34          35          36
    1   2.0000000   2.0000000   2.0000000   2.0000000   2.0000000   2.0000000
           37          38          39          40          41          42
    1   2.0000000   1.9962487   1.9849320   1.9790961   1.9338822   1.9288898
           43          44          45          46          47          48
    1   1.4805664   1.0040035   0.5183312   0.0688417   0.0629239   0.0191939
           49          50          51          52          53          54
    1   0.0141661   0.0032300   0.0007324   0.0006302   0.0006272   0.0005348
           55          56          57          58          59          60
    1   0.0005076   0.0004156   0.0003720   0.0002927   0.0002385   0.0001809
           61          62          63          64          65          66
    1   0.0001770   0.0001539   0.0001329   0.0001163   0.0001139   0.0001081
           67          68          69          70          71          72
    1   0.0001012   0.0000742   0.0000704   0.0000219   0.0000210   0.0000112
           73
    1   0.0000108
Natural Orbitals stored in FCHK

  Amplitudes : 
  
 | HOLE  | ALPHA   | BETA    | PART  |    AMPLITUDE 
--------------------------------------------------
 |       | 1111000 | 1011000 |       |     6.4512072741082E-01
 |       | 1110001 | 1110000 |       |    -6.4342065400506E-01
--------------------------------------------------
*** Contributions RASCI wfn    Active:  90.02
                                 Hole:   4.72
                                 Part:   5.26

      Mulliken population analysis 
 ---------------------------------------------------
   Atom    Charge (a.u.)   Spin (a.u.)  
 ---------------------------------------------------
   1  C   -0.068922       -0.020269 
   2  C   -0.071645        0.124975 
   3  C   -0.022680        0.213709 
   4  C   -0.119641       -0.041751 
   5  C   -0.022681        0.213709 
   6  C   -0.071645        0.124975 
   7  C   -0.078107       -0.042971 
   8  C   -0.014844       -0.002714 
   9  C   -0.072520        0.081508 
  10  C   -0.067237        0.152823 
  11  C   -0.072520        0.081508 
  12  C   -0.067237        0.152823 
  13  C   -0.078107       -0.042971 
  14  H    0.089171       -0.000303 
  15  H    0.097779        0.001179 
  16  H    0.089171       -0.000303 
  17  H    0.098121       -0.000118 
  18  H    0.088856        0.000950 
  19  H    0.088856        0.000950 
  20  H    0.097779        0.001179 
  21  H    0.089027        0.000558 
  22  H    0.089027        0.000558 
 ---------------------------------------------------
   Sum:   -0.000000        1.000000 
 ---------------------------------------------------
 
  
 NATURAL OCCUPATION NUMBERS (higher than 1.0E-05)
            1           2           3           4           5           6
    1   2.0000000   2.0000000   2.0000000   2.0000000   2.0000000   2.0000000
            7           8           9          10          11          12
    1   2.0000000   2.0000000   2.0000000   2.0000000   2.0000000   2.0000000
           13          14          15          16          17          18
    1   2.0000000   2.0000000   2.0000000   2.0000000   2.0000000   2.0000000
           19          20          21          22          23          24
    1   2.0000000   2.0000000   2.0000000   2.0000000   2.0000000   2.0000000
           25          26          27          28          29          30
    1   2.0000000   2.0000000   2.0000000   2.0000000   2.0000000   2.0000000
           31          32          33          34          35          36
    1   2.0000000   2.0000000   2.0000000   2.0000000   2.0000000   2.0000000
           37          38          39          40          41          42
    1   2.0000000   1.9962487   1.9849320   1.9790961   1.9338822   1.9288898
           43          44          45          46          47          48
    1   1.4805664   1.0040035   0.5183312   0.0688417   0.0629239   0.0191939
           49          50          51          52          53          54
    1   0.0141661   0.0032300   0.0007324   0.0006302   0.0006272   0.0005348
           55          56          57          58          59          60
    1   0.0005076   0.0004156   0.0003720   0.0002927   0.0002385   0.0001809
           61          62          63          64          65          66
    1   0.0001770   0.0001539   0.0001329   0.0001163   0.0001139   0.0001081
           67          68          69          70          71          72
    1   0.0001012   0.0000742   0.0000704   0.0000219   0.0000210   0.0000112
           73
    1   0.0000108
  
*** Unpaired Electrons
 Yamaguchi Nd:         3.22
 Head-Gordon Nu:       2.38
 Head-Gordon Nu_nl:    2.25
  
**************************************************
 RAS-CI total energy for state   4:   -497.595930398670
  Excitation energy (eV) =  3.040403563055
  State symmetry: B2    (C2v      )
  <S^2>      :  0.7500
  Dipole Moment:   -0.0000 X     0.0000 Y    -0.0001 Z
  Trans. Moment:    0.0001 X     0.0000 Y     0.0000 Z
  Strength   :  0.000000
  Natural transition orbitals ( 1 -> 4 ):
   e-/hole pair  1 alpha:  ampl =  0.673343 ( 45.3%)   [7 : 8]
   e-/hole pair  2 alpha:  ampl =  0.088731 (  0.8%)   [6 : 9]
   e-/hole pair  1 beta :  ampl =  0.556263 ( 30.9%)   [7 : 8]
   e-/hole pair  2 beta :  ampl =  0.084107 (  0.7%)   [6 : 9]
   Sum of square amplitudes: 0.80

 NATURAL OCCUPATION NUMBERS (higher than 1.0E-05)
            1           2           3           4           5           6
    1   2.0000000   2.0000000   2.0000000   2.0000000   2.0000000   2.0000000
            7           8           9          10          11          12
    1   2.0000000   2.0000000   2.0000000   2.0000000   2.0000000   2.0000000
           13          14          15          16          17          18
    1   2.0000000   2.0000000   2.0000000   2.0000000   2.0000000   2.0000000
           19          20          21          22          23          24
    1   2.0000000   2.0000000   2.0000000   2.0000000   2.0000000   2.0000000
           25          26          27          28          29          30
    1   2.0000000   2.0000000   2.0000000   2.0000000   2.0000000   2.0000000
           31          32          33          34          35          36
    1   2.0000000   2.0000000   2.0000000   2.0000000   2.0000000   2.0000000
           37          38          39          40          41          42
    1   2.0000000   1.9907957   1.9773786   1.9772765   1.9081688   1.9081353
           43          44          45          46          47          48
    1   1.5851325   0.8544535   0.5775002   0.0826579   0.0826234   0.0214647
           49          50          51          52          53          54
    1   0.0213716   0.0070031   0.0006739   0.0006735   0.0006654   0.0005311
           55          56          57          58          59          60
    1   0.0005309   0.0004056   0.0004053   0.0003714   0.0003691   0.0002890
           61          62          63          64          65          66
    1   0.0001713   0.0001711   0.0001050   0.0001050   0.0000991   0.0000988
           67          68          69          70          71          72
    1   0.0000869   0.0000869   0.0000518   0.0000313   0.0000312   0.0000202
Natural Orbitals stored in FCHK

  Amplitudes : 
  
 | HOLE  | ALPHA   | BETA    | PART  |    AMPLITUDE 
--------------------------------------------------
 |       | 1111000 | 0111000 |       |    -5.6876005336433E-01
 |       | 1110100 | 1110000 |       |     6.8802356894863E-01
 |       | 1101100 | 1101000 |       |    -1.0706892578114E-01
 |       | 1011100 | 1011000 |       |    -1.0679884212985E-01
--------------------------------------------------
*** Contributions RASCI wfn    Active:  88.18
                                 Hole:   5.73
                                 Part:   6.09

      Mulliken population analysis 
 ---------------------------------------------------
   Atom    Charge (a.u.)   Spin (a.u.)  
 ---------------------------------------------------
   1  C   -0.093124        0.170637 
   2  C   -0.057927        0.022234 
   3  C   -0.015017        0.008496 
   4  C   -0.156061        0.320877 
   5  C   -0.015017        0.008496 
   6  C   -0.057927        0.022234 
   7  C   -0.058022        0.022583 
   8  C   -0.015020        0.009071 
   9  C   -0.058110        0.021949 
  10  C   -0.092978        0.171934 
  11  C   -0.058110        0.021949 
  12  C   -0.092978        0.171934 
  13  C   -0.058022        0.022583 
  14  H    0.089169        0.000248 
  15  H    0.097730        0.001188 
  16  H    0.089169        0.000248 
  17  H    0.097765        0.001177 
  18  H    0.089168        0.000245 
  19  H    0.089168        0.000245 
  20  H    0.097730        0.001188 
  21  H    0.089208        0.000243 
  22  H    0.089208        0.000243 
 ---------------------------------------------------
   Sum:   -0.000000        1.000000 
 ---------------------------------------------------
 
  
 NATURAL OCCUPATION NUMBERS (higher than 1.0E-05)
            1           2           3           4           5           6
    1   2.0000000   2.0000000   2.0000000   2.0000000   2.0000000   2.0000000
            7           8           9          10          11          12
    1   2.0000000   2.0000000   2.0000000   2.0000000   2.0000000   2.0000000
           13          14          15          16          17          18
    1   2.0000000   2.0000000   2.0000000   2.0000000   2.0000000   2.0000000
           19          20          21          22          23          24
    1   2.0000000   2.0000000   2.0000000   2.0000000   2.0000000   2.0000000
           25          26          27          28          29          30
    1   2.0000000   2.0000000   2.0000000   2.0000000   2.0000000   2.0000000
           31          32          33          34          35          36
    1   2.0000000   2.0000000   2.0000000   2.0000000   2.0000000   2.0000000
           37          38          39          40          41          42
    1   2.0000000   1.9907957   1.9773786   1.9772765   1.9081688   1.9081353
           43          44          45          46          47          48
    1   1.5851325   0.8544535   0.5775002   0.0826579   0.0826234   0.0214647
           49          50          51          52          53          54
    1   0.0213716   0.0070031   0.0006739   0.0006735   0.0006654   0.0005311
           55          56          57          58          59          60
    1   0.0005309   0.0004056   0.0004053   0.0003714   0.0003691   0.0002890
           61          62          63          64          65          66
    1   0.0001713   0.0001711   0.0001050   0.0001050   0.0000991   0.0000988
           67          68          69          70          71          72
    1   0.0000869   0.0000869   0.0000518   0.0000313   0.0000312   0.0000202
  
*** Unpaired Electrons
 Yamaguchi Nd:         3.34
 Head-Gordon Nu:       2.31
 Head-Gordon Nu_nl:    2.19
  
**************************************************
 RAS-CI total energy for state   5:   -497.557273538521
  Excitation energy (eV) =  4.092310247064
  State symmetry: B2    (C2v      )
  <S^2>      :  0.7500
  Dipole Moment:    0.0000 X    -0.0000 Y     0.0000 Z
  Trans. Moment:    0.0014 X    -0.0000 Y    -0.0000 Z
  Strength   :  0.000000
  Natural transition orbitals ( 1 -> 5 ):
   e-/hole pair  1 alpha:  ampl =  0.584470 ( 34.2%)   [7 : 8]
   e-/hole pair  2 alpha:  ampl =  0.044677 (  0.2%)   [6 : 9]
   e-/hole pair  1 beta :  ampl =  0.691372 ( 47.8%)   [7 : 8]
   e-/hole pair  2 beta :  ampl =  0.059718 (  0.4%)   [6 : 9]
   Sum of square amplitudes: 0.83

 NATURAL OCCUPATION NUMBERS (higher than 1.0E-05)
            1           2           3           4           5           6
    1   2.0000000   2.0000000   2.0000000   2.0000000   2.0000000   2.0000000
            7           8           9          10          11          12
    1   2.0000000   2.0000000   2.0000000   2.0000000   2.0000000   2.0000000
           13          14          15          16          17          18
    1   2.0000000   2.0000000   2.0000000   2.0000000   2.0000000   2.0000000
           19          20          21          22          23          24
    1   2.0000000   2.0000000   2.0000000   2.0000000   2.0000000   2.0000000
           25          26          27          28          29          30
    1   2.0000000   2.0000000   2.0000000   2.0000000   2.0000000   2.0000000
           31          32          33          34          35          36
    1   2.0000000   2.0000000   2.0000000   2.0000000   2.0000000   2.0000000
           37          38          39          40          41          42
    1   2.0000000   1.9962281   1.9913727   1.9913650   1.9343317   1.9343150
           43          44          45          46          47          48
    1   1.3996349   1.1562169   0.4388921   0.0658717   0.0658531   0.0072569
           49          50          51          52          53          54
    1   0.0072528   0.0034972   0.0007852   0.0007848   0.0007705   0.0007703
           55          56          57          58          59          60
    1   0.0007507   0.0005678   0.0004665   0.0004155   0.0004153   0.0003122
           61          62          63          64          65          66
    1   0.0002978   0.0002976   0.0002876   0.0001613   0.0001612   0.0001430
           67          68          69          70          71          72
    1   0.0001340   0.0001340   0.0000895   0.0000292   0.0000277   0.0000277
           73          74
    1   0.0000152   0.0000152
Natural Orbitals stored in FCHK

  Amplitudes : 
  
 | HOLE  | ALPHA   | BETA    | PART  |    AMPLITUDE 
--------------------------------------------------
 |       | 1111000 | 0111000 |       |     7.0886421254855E-01
 |       | 1110100 | 1110000 |       |     5.9622364899959E-01
--------------------------------------------------
*** Contributions RASCI wfn    Active:  94.33
                                 Hole:   2.43
                                 Part:   3.25

      Mulliken population analysis 
 ---------------------------------------------------
   Atom    Charge (a.u.)   Spin (a.u.)  
 ---------------------------------------------------
   1  C   -0.051180        0.125015 
   2  C   -0.094521        0.013855 
   3  C   -0.008035        0.036997 
   4  C   -0.084063        0.429164 
   5  C   -0.008035        0.036997 
   6  C   -0.094521        0.013855 
   7  C   -0.094633        0.013592 
   8  C   -0.008020        0.036806 
   9  C   -0.094727        0.013797 
  10  C   -0.050984        0.124716 
  11  C   -0.094727        0.013797 
  12  C   -0.050984        0.124716 
  13  C   -0.094633        0.013592 
  14  H    0.089061        0.000120 
  15  H    0.098198        0.000789 
  16  H    0.089061        0.000120 
  17  H    0.098230        0.000791 
  18  H    0.089059        0.000122 
  19  H    0.089059        0.000122 
  20  H    0.098198        0.000789 
  21  H    0.089098        0.000122 
  22  H    0.089098        0.000122 
 ---------------------------------------------------
   Sum:   -0.000000        1.000000 
 ---------------------------------------------------
 
  
 NATURAL OCCUPATION NUMBERS (higher than 1.0E-05)
            1           2           3           4           5           6
    1   2.0000000   2.0000000   2.0000000   2.0000000   2.0000000   2.0000000
            7           8           9          10          11          12
    1   2.0000000   2.0000000   2.0000000   2.0000000   2.0000000   2.0000000
           13          14          15          16          17          18
    1   2.0000000   2.0000000   2.0000000   2.0000000   2.0000000   2.0000000
           19          20          21          22          23          24
    1   2.0000000   2.0000000   2.0000000   2.0000000   2.0000000   2.0000000
           25          26          27          28          29          30
    1   2.0000000   2.0000000   2.0000000   2.0000000   2.0000000   2.0000000
           31          32          33          34          35          36
    1   2.0000000   2.0000000   2.0000000   2.0000000   2.0000000   2.0000000
           37          38          39          40          41          42
    1   2.0000000   1.9962281   1.9913727   1.9913650   1.9343317   1.9343150
           43          44          45          46          47          48
    1   1.3996349   1.1562169   0.4388921   0.0658717   0.0658531   0.0072569
           49          50          51          52          53          54
    1   0.0072528   0.0034972   0.0007852   0.0007848   0.0007705   0.0007703
           55          56          57          58          59          60
    1   0.0007507   0.0005678   0.0004665   0.0004155   0.0004153   0.0003122
           61          62          63          64          65          66
    1   0.0002978   0.0002976   0.0002876   0.0001613   0.0001612   0.0001430
           67          68          69          70          71          72
    1   0.0001340   0.0001340   0.0000895   0.0000292   0.0000277   0.0000277
           73          74
    1   0.0000152   0.0000152
  
*** Unpaired Electrons
 Yamaguchi Nd:         3.10
 Head-Gordon Nu:       2.19
 Head-Gordon Nu_nl:    2.19
  
**************************************************
 RAS-CI total energy for state   6:   -497.532516608633
  Excitation energy (eV) =  4.765980584585
  State symmetry: B2    (C2v      )
  <S^2>      :  0.7500
  Dipole Moment:    0.0000 X    -0.0000 Y    -0.0840 Z
  Trans. Moment:    1.5463 X     0.0000 Y     0.0000 Z
  Strength   :  0.279184
  Natural transition orbitals ( 1 -> 6 ):
   e-/hole pair  1 alpha:  ampl =  0.622024 ( 38.7%)   [7 : 8]
   e-/hole pair  2 alpha:  ampl =  0.155040 (  2.4%)   [6 : 9]
   e-/hole pair  1 beta :  ampl =  0.620805 ( 38.5%)   [7 : 8]
   e-/hole pair  2 beta :  ampl =  0.152063 (  2.3%)   [6 : 9]
   Sum of square amplitudes: 0.84

 NATURAL OCCUPATION NUMBERS (higher than 1.0E-05)
            1           2           3           4           5           6
    1   2.0000000   2.0000000   2.0000000   2.0000000   2.0000000   2.0000000
            7           8           9          10          11          12
    1   2.0000000   2.0000000   2.0000000   2.0000000   2.0000000   2.0000000
           13          14          15          16          17          18
    1   2.0000000   2.0000000   2.0000000   2.0000000   2.0000000   2.0000000
           19          20          21          22          23          24
    1   2.0000000   2.0000000   2.0000000   2.0000000   2.0000000   2.0000000
           25          26          27          28          29          30
    1   2.0000000   2.0000000   2.0000000   2.0000000   2.0000000   2.0000000
           31          32          33          34          35          36
    1   2.0000000   2.0000000   2.0000000   2.0000000   2.0000000   2.0000000
           37          38          39          40          41          42
    1   2.0000000   1.9952057   1.9888506   1.9879742   1.8992374   1.8911845
           43          44          45          46          47          48
    1   1.5107817   1.0078187   0.4942945   0.1023223   0.0907669   0.0102679
           49          50          51          52          53          54
    1   0.0087572   0.0037033   0.0010998   0.0010779   0.0009662   0.0007294
           55          56          57          58          59          60
    1   0.0007003   0.0006581   0.0004886   0.0004186   0.0003862   0.0003226
           61          62          63          64          65          66
    1   0.0003129   0.0002838   0.0002786   0.0001826   0.0001788   0.0001608
           67          68          69          70          71          72
    1   0.0001448   0.0001275   0.0001179   0.0000538   0.0000373   0.0000289
           73          74
    1   0.0000155   0.0000122
Natural Orbitals stored in FCHK

  Amplitudes : 
  
 | HOLE  | ALPHA   | BETA    | PART  |    AMPLITUDE 
--------------------------------------------------
 |       | 1111000 | 1101000 |       |    -6.2285909053429E-01
 |       | 1111000 | 1010100 |       |    -1.5279571505397E-01
 |       | 1110010 | 1110000 |       |     6.2503381263503E-01
 |       | 1011010 | 1011000 |       |    -1.0116124409344E-01
 |       | 0111001 | 1110000 |       |     1.5925754258963E-01
--------------------------------------------------
*** Contributions RASCI wfn    Active:  92.92
                                 Hole:   3.30
                                 Part:   3.78

      Mulliken population analysis 
 ---------------------------------------------------
   Atom    Charge (a.u.)   Spin (a.u.)  
 ---------------------------------------------------
   1  C   -0.051466        0.123276 
   2  C   -0.077868        0.011566 
   3  C   -0.018784        0.047066 
   4  C   -0.113546       -0.049106 
   5  C   -0.018784        0.047066 
   6  C   -0.077868        0.011566 
   7  C   -0.080741        0.204194 
   8  C   -0.032207        0.150731 
   9  C   -0.078946        0.105855 
  10  C   -0.059012        0.016006 
  11  C   -0.078946        0.105855 
  12  C   -0.059012        0.016006 
  13  C   -0.080741        0.204194 
  14  H    0.088831        0.001414 
  15  H    0.098112        0.000141 
  16  H    0.088831        0.001414 
  17  H    0.097915        0.001020 
  18  H    0.089102       -0.000004 
  19  H    0.089102       -0.000004 
  20  H    0.098112        0.000141 
  21  H    0.088958        0.000803 
  22  H    0.088958        0.000803 
 ---------------------------------------------------
   Sum:   -0.000000        1.000000 
 ---------------------------------------------------
 
  
 NATURAL OCCUPATION NUMBERS (higher than 1.0E-05)
            1           2           3           4           5           6
    1   2.0000000   2.0000000   2.0000000   2.0000000   2.0000000   2.0000000
            7           8           9          10          11          12
    1   2.0000000   2.0000000   2.0000000   2.0000000   2.0000000   2.0000000
           13          14          15          16          17          18
    1   2.0000000   2.0000000   2.0000000   2.0000000   2.0000000   2.0000000
           19          20          21          22          23          24
    1   2.0000000   2.0000000   2.0000000   2.0000000   2.0000000   2.0000000
           25          26          27          28          29          30
    1   2.0000000   2.0000000   2.0000000   2.0000000   2.0000000   2.0000000
           31          32          33          34          35          36
    1   2.0000000   2.0000000   2.0000000   2.0000000   2.0000000   2.0000000
           37          38          39          40          41          42
    1   2.0000000   1.9952057   1.9888506   1.9879742   1.8992374   1.8911845
           43          44          45          46          47          48
    1   1.5107817   1.0078187   0.4942945   0.1023223   0.0907669   0.0102679
           49          50          51          52          53          54
    1   0.0087572   0.0037033   0.0010998   0.0010779   0.0009662   0.0007294
           55          56          57          58          59          60
    1   0.0007003   0.0006581   0.0004886   0.0004186   0.0003862   0.0003226
           61          62          63          64          65          66
    1   0.0003129   0.0002838   0.0002786   0.0001826   0.0001788   0.0001608
           67          68          69          70          71          72
    1   0.0001448   0.0001275   0.0001179   0.0000538   0.0000373   0.0000289
           73          74
    1   0.0000155   0.0000122
  
*** Unpaired Electrons
 Yamaguchi Nd:         3.37
 Head-Gordon Nu:       2.44
 Head-Gordon Nu_nl:    2.25
  
**************************************************
 RAS-CI total energy for state   7:   -497.532509818522
  Excitation energy (eV) =  4.766165352905
  State symmetry: A2    (C2v      )
  <S^2>      :  0.7500
  Dipole Moment:    0.0000 X    -0.0000 Y     0.0842 Z
  Trans. Moment:   -0.0000 X    -0.0000 Y     1.5455 Z
  Strength   :  0.278917
  Natural transition orbitals ( 1 -> 7 ):
   e-/hole pair  1 alpha:  ampl =  0.621964 ( 38.7%)   [7 : 8]
   e-/hole pair  2 alpha:  ampl =  0.156260 (  2.4%)   [6 : 9]
   e-/hole pair  1 beta :  ampl =  0.620746 ( 38.5%)   [7 : 8]
   e-/hole pair  2 beta :  ampl =  0.153571 (  2.4%)   [6 : 9]
   Sum of square amplitudes: 0.84

 NATURAL OCCUPATION NUMBERS (higher than 1.0E-05)
            1           2           3           4           5           6
    1   2.0000000   2.0000000   2.0000000   2.0000000   2.0000000   2.0000000
            7           8           9          10          11          12
    1   2.0000000   2.0000000   2.0000000   2.0000000   2.0000000   2.0000000
           13          14          15          16          17          18
    1   2.0000000   2.0000000   2.0000000   2.0000000   2.0000000   2.0000000
           19          20          21          22          23          24
    1   2.0000000   2.0000000   2.0000000   2.0000000   2.0000000   2.0000000
           25          26          27          28          29          30
    1   2.0000000   2.0000000   2.0000000   2.0000000   2.0000000   2.0000000
           31          32          33          34          35          36
    1   2.0000000   2.0000000   2.0000000   2.0000000   2.0000000   2.0000000
           37          38          39          40          41          42
    1   2.0000000   1.9954442   1.9883565   1.9882254   1.9048508   1.8852252
           43          44          45          46          47          48
    1   1.5111048   1.0095110   0.4898826   0.1118573   0.0840090   0.0096679
           49          50          51          52          53          54
    1   0.0094489   0.0035050   0.0011614   0.0010831   0.0010417   0.0007685
           55          56          57          58          59          60
    1   0.0006774   0.0006308   0.0004389   0.0004074   0.0003791   0.0003430
           61          62          63          64          65          66
    1   0.0003209   0.0002811   0.0002800   0.0001861   0.0001660   0.0001614
           67          68          69          70          71          72
    1   0.0001464   0.0001230   0.0001130   0.0000530   0.0000426   0.0000269
           73          74
    1   0.0000167   0.0000122
Natural Orbitals stored in FCHK

  Amplitudes : 
  
 | HOLE  | ALPHA   | BETA    | PART  |    AMPLITUDE 
--------------------------------------------------
 |       | 1111000 | 1100100 |       |    -1.5363850931134E-01
 |       | 1111000 | 1011000 |       |     6.2288071911037E-01
 |       | 1110001 | 1110000 |       |     6.2502439428588E-01
 |       | 1101001 | 1101000 |       |    -1.0147045337488E-01
 |       | 0111010 | 1110000 |       |    -1.5883200944464E-01
--------------------------------------------------
*** Contributions RASCI wfn    Active:  92.92
                                 Hole:   3.30
                                 Part:   3.78

      Mulliken population analysis 
 ---------------------------------------------------
   Atom    Charge (a.u.)   Spin (a.u.)  
 ---------------------------------------------------
   1  C   -0.061789       -0.019907 
   2  C   -0.080293        0.202678 
   3  C   -0.027752        0.116117 
   4  C   -0.113564       -0.049111 
   5  C   -0.027752        0.116117 
   6  C   -0.080293        0.202678 
   7  C   -0.077641        0.010379 
   8  C   -0.014270        0.012642 
   9  C   -0.079612        0.108517 
  10  C   -0.053851        0.087633 
  11  C   -0.079612        0.108517 
  12  C   -0.053850        0.087633 
  13  C   -0.077641        0.010379 
  14  H    0.089073        0.000063 
  15  H    0.097959        0.000729 
  16  H    0.089073        0.000063 
  17  H    0.098221       -0.000153 
  18  H    0.088798        0.001479 
  19  H    0.088798        0.001479 
  20  H    0.097959        0.000729 
  21  H    0.089021        0.000671 
  22  H    0.089021        0.000671 
 ---------------------------------------------------
   Sum:   -0.000000        1.000000 
 ---------------------------------------------------
 
  
 NATURAL OCCUPATION NUMBERS (higher than 1.0E-05)
            1           2           3           4           5           6
    1   2.0000000   2.0000000   2.0000000   2.0000000   2.0000000   2.0000000
            7           8           9          10          11          12
    1   2.0000000   2.0000000   2.0000000   2.0000000   2.0000000   2.0000000
           13          14          15          16          17          18
    1   2.0000000   2.0000000   2.0000000   2.0000000   2.0000000   2.0000000
           19          20          21          22          23          24
    1   2.0000000   2.0000000   2.0000000   2.0000000   2.0000000   2.0000000
           25          26          27          28          29          30
    1   2.0000000   2.0000000   2.0000000   2.0000000   2.0000000   2.0000000
           31          32          33          34          35          36
    1   2.0000000   2.0000000   2.0000000   2.0000000   2.0000000   2.0000000
           37          38          39          40          41          42
    1   2.0000000   1.9954442   1.9883565   1.9882254   1.9048508   1.8852252
           43          44          45          46          47          48
    1   1.5111048   1.0095110   0.4898826   0.1118573   0.0840090   0.0096679
           49          50          51          52          53          54
    1   0.0094489   0.0035050   0.0011614   0.0010831   0.0010417   0.0007685
           55          56          57          58          59          60
    1   0.0006774   0.0006308   0.0004389   0.0004074   0.0003791   0.0003430
           61          62          63          64          65          66
    1   0.0003209   0.0002811   0.0002800   0.0001861   0.0001660   0.0001614
           67          68          69          70          71          72
    1   0.0001464   0.0001230   0.0001130   0.0000530   0.0000426   0.0000269
           73          74
    1   0.0000167   0.0000122
  
*** Unpaired Electrons
 Yamaguchi Nd:         3.37
 Head-Gordon Nu:       2.43
 Head-Gordon Nu_nl:    2.25
  
**************************************************
 RAS-CI total energy for state   8:   -497.515537435624
  Excitation energy (eV) =  5.228007389364
  State symmetry: B2    (C2v      )
  <S^2>      :  0.7500
  Dipole Moment:   -0.0000 X    -0.0000 Y    -0.0101 Z
  Trans. Moment:   -0.0515 X    -0.0000 Y    -0.0000 Z
  Strength   :  0.000339
  Natural transition orbitals ( 1 -> 8 ):
   e-/hole pair  1 alpha:  ampl =  0.397136 ( 15.8%)   [7 : 8]
   e-/hole pair  2 alpha:  ampl =  0.217312 (  4.7%)   [6 : 9]
   e-/hole pair  1 beta :  ampl =  0.507403 ( 25.7%)   [7 : 8]
   e-/hole pair  2 beta :  ampl =  0.242491 (  5.9%)   [6 : 9]
   Sum of square amplitudes: 0.59

 NATURAL OCCUPATION NUMBERS (higher than 1.0E-05)
            1           2           3           4           5           6
    1   2.0000000   2.0000000   2.0000000   2.0000000   2.0000000   2.0000000
            7           8           9          10          11          12
    1   2.0000000   2.0000000   2.0000000   2.0000000   2.0000000   2.0000000
           13          14          15          16          17          18
    1   2.0000000   2.0000000   2.0000000   2.0000000   2.0000000   2.0000000
           19          20          21          22          23          24
    1   2.0000000   2.0000000   2.0000000   2.0000000   2.0000000   2.0000000
           25          26          27          28          29          30
    1   2.0000000   2.0000000   2.0000000   2.0000000   2.0000000   2.0000000
           31          32          33          34          35          36
    1   2.0000000   2.0000000   2.0000000   2.0000000   2.0000000   2.0000000
           37          38          39          40          41          42
    1   2.0000000   1.9911940   1.9901044   1.9340135   1.7095468   1.7074375
           43          44          45          46          47          48
    1   1.6919542   1.1170105   0.3093985   0.2768598   0.1849143   0.0684693
           49          50          51          52          53          54
    1   0.0081170   0.0066083   0.0005269   0.0005084   0.0004960   0.0004631
           55          56          57          58          59          60
    1   0.0003601   0.0003359   0.0002524   0.0002469   0.0001798   0.0001491
           61          62          63          64          65          66
    1   0.0001404   0.0001187   0.0000973   0.0000950   0.0000871   0.0000649
           67          68          69          70          71          72
    1   0.0000529   0.0000497   0.0000480   0.0000303   0.0000136   0.0000120
Natural Orbitals stored in FCHK

  Amplitudes : 
  
[...]
  55    H 8   p     0.00468   0.00127   0.00279   0.00146   0.00289   0.00132
  56    H 9   s     0.06332   0.00045   0.05187   0.06068   0.09518   0.00005
  57    H 9   p     0.00468   0.00127   0.00279   0.00146   0.00289   0.00132
                        31        32        33        34        35        36
                       13B1      19A1       1B2      14B1      20A1      15B1  
   1    C 1   s     0.00000   0.00609   0.00000   0.00000   0.00126   0.00000
   2    C 1   p     0.03538   0.14107   0.07762   0.04954   0.20059   0.16284
   3    C 1   d     0.00198   0.01540   0.00145   0.00980   0.01289   0.00587
   4    C 2   s     0.00213   0.00706   0.00000   0.00409   0.00367   0.00070
   5    C 2   p     0.16376   0.06696   0.10454   0.16642   0.04356   0.15698
   6    C 2   d     0.00340   0.01243   0.00211   0.00737   0.00716   0.00729
   7    C 3   s     0.00000   0.02808   0.00000   0.00014   0.00004   0.00000
   8    C 3   p     0.22385   0.04578   0.24809   0.05308   0.10431   0.00212
   9    C 3   d     0.00544   0.00224   0.00099   0.01211   0.00412   0.00424
  10    C 4   s     0.00000   0.02667   0.00000   0.00000   0.00000   0.00000
  11    C 4   p     0.00000   0.00000   0.36818   0.08165   0.08166   0.00000
  12    C 4   d     0.00000   0.00046   0.00000   0.00242   0.00242   0.00000
  13    C 5   s     0.00000   0.02808   0.00000   0.00014   0.00004   0.00000
  14    C 5   p     0.22385   0.04578   0.24809   0.05308   0.10431   0.00212
  15    C 5   d     0.00544   0.00224   0.00099   0.01211   0.00412   0.00424
  16    C 6   s     0.00213   0.00706   0.00000   0.00409   0.00367   0.00070
  17    C 6   p     0.16376   0.06696   0.10454   0.16642   0.04356   0.15698
  18    C 6   d     0.00340   0.01243   0.00211   0.00737   0.00716   0.00729
  19    C 7   s     0.00214   0.00707   0.00000   0.00674   0.00103   0.00070
  20    C 7   p     0.16288   0.06736   0.10450   0.06818   0.14044   0.15813
  21    C 7   d     0.00342   0.01247   0.00211   0.00471   0.00973   0.00733
  22    C 8   s     0.00000   0.02806   0.00000   0.00000   0.00019   0.00000
  23    C 8   p     0.22343   0.04567   0.24811   0.13017   0.02768   0.00202
  24    C 8   d     0.00543   0.00222   0.00099   0.00012   0.01612   0.00425
  25    C 9   s     0.00212   0.00710   0.00000   0.00081   0.00692   0.00071
  26    C 9   p     0.16367   0.06704   0.10450   0.07950   0.13000   0.15800
  27    C 9   d     0.00338   0.01242   0.00211   0.00965   0.00484   0.00734
  28    C 10  s     0.00000   0.00607   0.00000   0.00095   0.00032   0.00000
  29    C 10  p     0.03463   0.14157   0.07759   0.16204   0.08659   0.16369
  30    C 10  d     0.00200   0.01546   0.00145   0.01207   0.01052   0.00593
  31    C 11  s     0.00212   0.00710   0.00000   0.00081   0.00692   0.00071
  32    C 11  p     0.16367   0.06704   0.10450   0.07950   0.13000   0.15800
  33    C 11  d     0.00338   0.01242   0.00211   0.00965   0.00484   0.00734
  34    C 12  s     0.00000   0.00607   0.00000   0.00095   0.00032   0.00000
  35    C 12  p     0.03463   0.14157   0.07759   0.16204   0.08659   0.16369
  36    C 12  d     0.00200   0.01546   0.00145   0.01207   0.01052   0.00593
  37    C 13  s     0.00214   0.00707   0.00000   0.00674   0.00103   0.00070
  38    C 13  p     0.16288   0.06736   0.10450   0.06818   0.14044   0.15813
  39    C 13  d     0.00342   0.01247   0.00211   0.00471   0.00973   0.00733
  40    H 1   s     0.02885   0.04930   0.00000   0.01576   0.09024   0.07640
  41    H 1   p     0.00189   0.00146   0.00094   0.00064   0.00107   0.00207
  42    H 2   s     0.00000   0.14162   0.00000   0.11153   0.03700   0.00000
  43    H 2   p     0.00079   0.00277   0.00068   0.00131   0.00080   0.00283
  44    H 3   s     0.02885   0.04930   0.00000   0.01576   0.09024   0.07640
  45    H 3   p     0.00189   0.00146   0.00094   0.00064   0.00107   0.00207
  46    H 4   s     0.00000   0.14121   0.00000   0.00000   0.14925   0.00000
  47    H 4   p     0.00080   0.00277   0.00068   0.00056   0.00158   0.00282
  48    H 5   s     0.02888   0.04904   0.00000   0.10444   0.00232   0.07584
  49    H 5   p     0.00191   0.00145   0.00094   0.00077   0.00095   0.00206
  50    H 6   s     0.02888   0.04904   0.00000   0.10444   0.00232   0.07584
  51    H 6   p     0.00191   0.00145   0.00094   0.00077   0.00095   0.00206
  52    H 7   s     0.00000   0.14162   0.00000   0.11153   0.03700   0.00000
  53    H 7   p     0.00079   0.00277   0.00068   0.00131   0.00080   0.00283
  54    H 8   s     0.02944   0.04897   0.00000   0.03939   0.06699   0.07669
  55    H 8   p     0.00190   0.00145   0.00094   0.00116   0.00056   0.00207
  56    H 9   s     0.02944   0.04897   0.00000   0.03939   0.06699   0.07669
  57    H 9   p     0.00190   0.00145   0.00094   0.00116   0.00056   0.00207
                        37        38        39        40        41        42
                       21A1      16B1       1A2       2B2       3B2       2A2  
   1    C 1   s     0.00090   0.00000   0.00000   0.00000   0.00000   0.00000
   2    C 1   p     0.08520   0.05983   0.00000   0.38119   0.23688   0.00000
   3    C 1   d     0.01826   0.00251   0.00215   0.00396   0.00054   0.01372
   4    C 2   s     0.00105   0.00055   0.00000   0.00000   0.00000   0.00000
   5    C 2   p     0.14046   0.04845   0.05697   0.26898   0.05763   0.27250
   6    C 2   d     0.00882   0.01283   0.00216   0.00430   0.00716   0.00408
   7    C 3   s     0.00001   0.00003   0.00000   0.00000   0.00000   0.00000
   8    C 3   p     0.13477   0.18216   0.19177   0.06391   0.07402   0.26589
   9    C 3   d     0.01721   0.01429   0.00291   0.00456   0.01549   0.00421
  10    C 4   s     0.00000   0.00000   0.00000   0.00000   0.00000   0.00000
  11    C 4   p     0.19212   0.19233   0.00000   0.00000   0.59050   0.00000
  12    C 4   d     0.01916   0.01918   0.00830   0.00830   0.00000   0.01043
  13    C 5   s     0.00001   0.00003   0.00000   0.00000   0.00000   0.00000
  14    C 5   p     0.13477   0.18216   0.19177   0.06391   0.07402   0.26589
  15    C 5   d     0.01721   0.01429   0.00291   0.00456   0.01549   0.00421
  16    C 6   s     0.00105   0.00055   0.00000   0.00000   0.00000   0.00000
  17    C 6   p     0.14046   0.04845   0.05697   0.26898   0.05763   0.27250
  18    C 6   d     0.00882   0.01283   0.00216   0.00430   0.00716   0.00408
  19    C 7   s     0.00007   0.00153   0.00000   0.00000   0.00000   0.00000
  20    C 7   p     0.06745   0.12149   0.32311   0.00278   0.06039   0.00407
  21    C 7   d     0.00676   0.01488   0.00332   0.00314   0.00728   0.01210
  22    C 8   s     0.00004   0.00000   0.00000   0.00000   0.00000   0.00000
  23    C 8   p     0.20564   0.11116   0.00000   0.25566   0.07753   0.00000
  24    C 8   d     0.01281   0.01870   0.00537   0.00209   0.01537   0.01012
  25    C 9   s     0.00128   0.00032   0.00000   0.00000   0.00000   0.00000
  26    C 9   p     0.07552   0.11347   0.10877   0.21707   0.05730   0.21001
  27    C 9   d     0.01689   0.00476   0.00421   0.00225   0.00739   0.00346
  28    C 10  s     0.00023   0.00067   0.00000   0.00000   0.00000   0.00000
  29    C 10  p     0.06616   0.07874   0.28585   0.09529   0.24216   0.19052
  30    C 10  d     0.00645   0.01432   0.00351   0.00260   0.00055   0.00399
  31    C 11  s     0.00128   0.00032   0.00000   0.00000   0.00000   0.00000
  32    C 11  p     0.07552   0.11347   0.10877   0.21707   0.05730   0.21001
  33    C 11  d     0.01689   0.00476   0.00421   0.00225   0.00739   0.00346
  34    C 12  s     0.00023   0.00067   0.00000   0.00000   0.00000   0.00000
  35    C 12  p     0.06616   0.07874   0.28585   0.09529   0.24216   0.19052
  36    C 12  d     0.00645   0.01432   0.00351   0.00260   0.00055   0.00399
  37    C 13  s     0.00007   0.00153   0.00000   0.00000   0.00000   0.00000
  38    C 13  p     0.06745   0.12149   0.32311   0.00278   0.06039   0.00407
  39    C 13  d     0.00676   0.01488   0.00332   0.00314   0.00728   0.01210
  40    H 1   s     0.01087   0.06633   0.00000   0.00000   0.00000   0.00000
  41    H 1   p     0.00122   0.00099   0.00398   0.00002   0.00121   0.00010
  42    H 2   s     0.02315   0.06941   0.00000   0.00000   0.00000   0.00000
  43    H 2   p     0.00092   0.00053   0.00351   0.00117   0.00450   0.00337
  44    H 3   s     0.01087   0.06633   0.00000   0.00000   0.00000   0.00000
  45    H 3   p     0.00122   0.00099   0.00398   0.00002   0.00121   0.00010
  46    H 4   s     0.09271   0.00000   0.00000   0.00000   0.00000   0.00000
  47    H 4   p     0.00034   0.00112   0.00000   0.00468   0.00440   0.00000
  48    H 5   s     0.02923   0.04799   0.00000   0.00000   0.00000   0.00000
  49    H 5   p     0.00192   0.00030   0.00079   0.00321   0.00116   0.00493
  50    H 6   s     0.02923   0.04799   0.00000   0.00000   0.00000   0.00000
  51    H 6   p     0.00192   0.00030   0.00079   0.00321   0.00116   0.00493
  52    H 7   s     0.02315   0.06941   0.00000   0.00000   0.00000   0.00000
  53    H 7   p     0.00092   0.00053   0.00351   0.00117   0.00450   0.00337
  54    H 8   s     0.07579   0.00150   0.00000   0.00000   0.00000   0.00000
  55    H 8   p     0.00018   0.00204   0.00122   0.00277   0.00115   0.00363
  56    H 9   s     0.07579   0.00150   0.00000   0.00000   0.00000   0.00000
  57    H 9   p     0.00018   0.00204   0.00122   0.00277   0.00115   0.00363
                        43        44
                        4B2       3A2  
   1    C 1   s     0.00000   0.00000
   2    C 1   p     0.25749   0.00000
   3    C 1   d     0.00077   0.02394
   4    C 2   s     0.00000   0.00000
   5    C 2   p     0.05281   0.30282
   6    C 2   d     0.00912   0.00005
   7    C 3   s     0.00000   0.00000
   8    C 3   p     0.08981   0.00000
   9    C 3   d     0.00812   0.01988
  10    C 4   s     0.00000   0.00000
  11    C 4   p     0.00003   0.00000
  12    C 4   d     0.01044   0.00000
  13    C 5   s     0.00000   0.00000
  14    C 5   p     0.08981   0.00000
  15    C 5   d     0.00812   0.01988
  16    C 6   s     0.00000   0.00000
  17    C 6   p     0.05281   0.30282
  18    C 6   d     0.00912   0.00005
  19    C 7   s     0.00000   0.00000
  20    C 7   p     0.31833   0.30325
  21    C 7   d     0.00099   0.00005
  22    C 8   s     0.00000   0.00000
  23    C 8   p     0.35220   0.00000
  24    C 8   d     0.00232   0.01990
  25    C 9   s     0.00000   0.00000
  26    C 9   p     0.11543   0.30348
  27    C 9   d     0.00952   0.00005
  28    C 10  s     0.00000   0.00000
  29    C 10  p     0.06175   0.00000
  30    C 10  d     0.01047   0.02398
  31    C 11  s     0.00000   0.00000
  32    C 11  p     0.11543   0.30348
  33    C 11  d     0.00952   0.00005
  34    C 12  s     0.00000   0.00000
  35    C 12  p     0.06175   0.00000
  36    C 12  d     0.01047   0.02398
  37    C 13  s     0.00000   0.00000
  38    C 13  p     0.31833   0.30325
  39    C 13  d     0.00099   0.00005
  40    H 1   s     0.00000   0.00000
  41    H 1   p     0.00564   0.00818
  42    H 2   s     0.00000   0.00000
  43    H 2   p     0.00109   0.00000
  44    H 3   s     0.00000   0.00000
  45    H 3   p     0.00564   0.00818
  46    H 4   s     0.00000   0.00000
  47    H 4   p     0.00455   0.00000
  48    H 5   s     0.00000   0.00000
  49    H 5   p     0.00086   0.00817
  50    H 6   s     0.00000   0.00000
  51    H 6   p     0.00086   0.00817
  52    H 7   s     0.00000   0.00000
  53    H 7   p     0.00109   0.00000
  54    H 8   s     0.00000   0.00000
  55    H 8   p     0.00216   0.00818
  56    H 9   s     0.00000   0.00000
  57    H 9   p     0.00216   0.00818
 
 -----------------------------------------------------------------
                    Cartesian Multipole Moments
 -----------------------------------------------------------------
    Charge (ESU x 10^10)
                -0.0000
    Dipole Moment (Debye)
         X       0.0000      Y       0.0000      Z      -0.0001
       Tot       0.0001
    Quadrupole Moments (Debye-Ang)
        XX     -65.4153     XY      -0.0000     YY     -83.6152
        XZ      -0.0000     YZ      -0.0000     ZZ     -65.4235
    Octopole Moments (Debye-Ang^2)
       XXX       0.0000    XXY      -0.0000    XYY       0.0000
       YYY      -0.0000    XXZ       0.8049    XYZ       0.0000
       YYZ       0.0008    XZZ       0.0000    YZZ       0.0000
       ZZZ      -0.8083
    Hexadecapole Moments (Debye-Ang^3)
      XXXX   -1203.3904   XXXY      -0.0000   XXYY    -271.9377
      XYYY       0.0000   YYYY     -97.2301   XXXZ      -0.0000
      XXYZ      -0.0000   XYYZ       0.0000   YYYZ       0.0000
      XXZZ    -401.1719   XYZZ      -0.0000   YYZZ    -271.9351
      XZZZ      -0.0000   YZZZ      -0.0000   ZZZZ   -1203.4553
 -----------------------------------------------------------------
 Mayer SCF Bond Order, atomic valence on the diagonal:

            1           2           3           4           5           6
    1   3.8497368   1.4347311  -0.0338360   0.0316637  -0.0338360   1.4347311
    2   1.4347311   3.8074040   1.2780156  -0.0069887   0.0394277  -0.0044215
    3  -0.0338360   1.2780156   3.8483035   1.3140578  -0.0224291   0.0394277
    4   0.0316637  -0.0069887   1.3140578   4.0300046   1.3140578  -0.0069887
    5  -0.0338360   0.0394277  -0.0224291   1.3140578   3.8483035   1.2780156
    6   1.4347311  -0.0044215   0.0394277  -0.0069887   1.2780156   3.8074040
    7   0.0140841  -0.0190929   1.2776411  -0.0070209   0.0057754   0.0245646
    8   0.0011522   0.0057790  -0.0223938   1.3142700  -0.0223938   0.0057790
    9   0.0098367   0.0245850   0.0393669  -0.0069826   0.0057929   0.0256182
   10   0.0011163   0.0140834  -0.0338469   0.0316603   0.0011509   0.0098350
   11   0.0098367   0.0256182   0.0057929  -0.0069826   0.0393669   0.0245850
   12   0.0011163   0.0098350   0.0011509   0.0316603  -0.0338469   0.0140834
   13   0.0140841   0.0245646   0.0057754  -0.0070209   1.2776411  -0.0190929
   14   0.0000444   0.0003597  -0.0004333   0.0057087  -0.0043389  -0.0044883
   15   0.0000797  -0.0000255   0.0003500   0.0001177   0.0036993   0.0006660
   16   0.0000444  -0.0044883  -0.0043389   0.0057087  -0.0004333   0.0003597
   17   0.9906841  -0.0109129   0.0036968   0.0001176   0.0036968  -0.0109129
   18  -0.0128909   0.9915614  -0.0043325   0.0057165   0.0006862   0.0032495
   19  -0.0128909   0.0032495   0.0006862   0.0057165  -0.0043325   0.9915614
   20   0.0000797   0.0006660   0.0036993   0.0001177   0.0003500  -0.0000255
   21  -0.0000470   0.0004911  -0.0004324   0.0057079   0.0006858   0.0003663
   22  -0.0000470   0.0003663   0.0006858   0.0057079  -0.0004324   0.0004911
            7           8           9          10          11          12
    1   0.0140841   0.0011522   0.0098367   0.0011163   0.0098367   0.0011163
    2  -0.0190929   0.0057790   0.0245850   0.0140834   0.0256182   0.0098350
    3   1.2776411  -0.0223938   0.0393669  -0.0338469   0.0057929   0.0011509
    4  -0.0070209   1.3142700  -0.0069826   0.0316603  -0.0069826   0.0316603
    5   0.0057754  -0.0223938   0.0057929   0.0011509   0.0393669  -0.0338469
    6   0.0245646   0.0057790   0.0256182   0.0098350   0.0245850   0.0140834
    7   3.8073430   0.0393850  -0.0043180   1.4349878   0.0246200   0.0098125
    8   0.0393850   3.8483985   1.2777743  -0.0338487   1.2777743  -0.0338487
    9  -0.0043180   1.2777743   3.8072096   1.4346347  -0.0190184   0.0140609
   10   1.4349878  -0.0338487   1.4346347   3.8498616   0.0140609   0.0011147
   11   0.0246200   1.2777743  -0.0190184   0.0140609   3.8072096   1.4346347
   12   0.0098125  -0.0338487   0.0140609   0.0011147   1.4346347   3.8498616
   13   0.0256342   0.0393850   0.0246200   0.0098125  -0.0043180   1.4349878
   14   0.0004914   0.0006855   0.0003665  -0.0000472   0.0032559  -0.0128755
   15  -0.0000256   0.0036955   0.0006667   0.0000795  -0.0109233   0.9907090
   16   0.9915526   0.0006855   0.0032559  -0.0128755   0.0003665  -0.0000472
   17   0.0006671   0.0003504  -0.0000255   0.0000797  -0.0000255   0.0000797
   18  -0.0044874  -0.0004335   0.0003594   0.0000449   0.0004914  -0.0000472
   19   0.0003663  -0.0004335   0.0004914  -0.0000472   0.0003594   0.0000449
   20  -0.0109066   0.0036955  -0.0109233   0.9907090   0.0006667   0.0000795
   21   0.0003596  -0.0043304  -0.0044824   0.0000445   0.9915305  -0.0128870
   22   0.0032527  -0.0043304   0.9915305  -0.0128870  -0.0044824   0.0000445
           13          14          15          16          17          18
    1   0.0140841   0.0000444   0.0000797   0.0000444   0.9906841  -0.0128909
    2   0.0245646   0.0003597  -0.0000255  -0.0044883  -0.0109129   0.9915614
    3   0.0057754  -0.0004333   0.0003500  -0.0043389   0.0036968  -0.0043325
    4  -0.0070209   0.0057087   0.0001177   0.0057087   0.0001176   0.0057165
    5   1.2776411  -0.0043389   0.0036993  -0.0004333   0.0036968   0.0006862
    6  -0.0190929  -0.0044883   0.0006660   0.0003597  -0.0109129   0.0032495
    7   0.0256342   0.0004914  -0.0000256   0.9915526   0.0006671  -0.0044874
    8   0.0393850   0.0006855   0.0036955   0.0006855   0.0003504  -0.0004335
    9   0.0246200   0.0003665   0.0006667   0.0032559  -0.0000255   0.0003594
   10   0.0098125  -0.0000472   0.0000795  -0.0128755   0.0000797   0.0000449
   11  -0.0043180   0.0032559  -0.0109233   0.0003665  -0.0000255   0.0004914
   12   1.4349878  -0.0128755   0.9907090  -0.0000472   0.0000797  -0.0000472
   13   3.8073430   0.9915526  -0.0109066   0.0004914   0.0006671   0.0003663
   14   0.9915526   0.9818669  -0.0022251   0.0000658  -0.0000104   0.0000269
   15  -0.0109066  -0.0022251   0.9738036   0.0000213   0.0000214   0.0000213
   16   0.0004914   0.0000658   0.0000213   0.9818669  -0.0000104   0.0029506
   17   0.0006671  -0.0000104   0.0000214  -0.0000104   0.9737898  -0.0022188
   18   0.0003663   0.0000269   0.0000213   0.0029506  -0.0022188   0.9818746
   19  -0.0044874   0.0029506  -0.0000104   0.0000269  -0.0022188   0.0007280
   20  -0.0000256   0.0000213   0.0000214  -0.0022251   0.0000214  -0.0000104
   21   0.0032527   0.0007292  -0.0022185   0.0000270   0.0000213   0.0000658
   22   0.0003596   0.0000270  -0.0000103   0.0007292   0.0000213   0.0000270
           19          20          21          22
    1  -0.0128909   0.0000797  -0.0000470  -0.0000470
    2   0.0032495   0.0006660   0.0004911   0.0003663
    3   0.0006862   0.0036993  -0.0004324   0.0006858
    4   0.0057165   0.0001177   0.0057079   0.0057079
    5  -0.0043325   0.0003500   0.0006858  -0.0004324
    6   0.9915614  -0.0000255   0.0003663   0.0004911
    7   0.0003663  -0.0109066   0.0003596   0.0032527
    8  -0.0004335   0.0036955  -0.0043304  -0.0043304
    9   0.0004914  -0.0109233  -0.0044824   0.9915305
   10  -0.0000472   0.9907090   0.0000445  -0.0128870
   11   0.0003594   0.0006667   0.9915305  -0.0044824
   12   0.0000449   0.0000795  -0.0128870   0.0000445
   13  -0.0044874  -0.0000256   0.0032527   0.0003596
   14   0.0029506   0.0000213   0.0007292   0.0000270
   15  -0.0000104   0.0000214  -0.0022185  -0.0000103
   16   0.0000269  -0.0022251   0.0000270   0.0007292
   17  -0.0022188   0.0000214   0.0000213   0.0000213
   18   0.0007280  -0.0000104   0.0000658   0.0000270
   19   0.9818746   0.0000213   0.0000270   0.0000658
   20   0.0000213   0.9738036  -0.0000103  -0.0022185
   21   0.0000270  -0.0000103   0.9818537   0.0029530
   22   0.0000658  -0.0022185   0.0029530   0.9818537


 Total job time:  18433.20s(wall), 15676.24s(cpu) 
 Mon Sep  4 21:29:16 2023

        *************************************************************
        *                                                           *
        *  Thank you very much for using Q-Chem.  Have a nice day.  *
        *                                                           *
        *************************************************************


