                  Welcome to Q-Chem
     A Quantum Leap Into The Future Of Chemistry


 Q-Chem 6.0 (devel), Q-Chem, Inc., Pleasanton, CA (2022)

 E. Epifanovsky,  A. T. B. Gilbert,  Xintian Feng,  Joonho Lee,  Yuezhi Mao,  
 N. Mardirossian,  P. Pokhilko,  A. White,  M. Wormit,  M. P. Coons,  
 A. L. Dempwolff,  Zhengting Gan,  D. Hait,  P. R. Horn,  L. D. Jacobson,  
 I. Kaliman,  J. Kussmann,  A. W. Lange,  Ka Un Lao,  D. S. Levine,  Jie Liu,  
 S. C. McKenzie,  A. F. Morrison,  K. Nanda,  F. Plasser,  D. R. Rehn,  
 M. L. Vidal,  Zhi-Qiang You,  Ying Zhu,  B. Alam,  B. Albrecht,  
 A. Aldossary,  E. Alguire,  J. H. Andersen,  V. Athavale,  D. Barton,  
 K. Begam,  A. Behn,  N. Bellonzi,  Y. A. Bernard,  E. J. Berquist,  
 H. Burton,  A. Carreras,  K. Carter-Fenk,  Romit Chakraborty,  
 Chandrima Chakravarty,  Junhan Chen,  A. D. Chien,  K. D. Closser,  
 V. Cofer-Shabica,  L. Cunha,  S. Dasgupta,  Jia Deng,  M. de Wergifosse,  
 M. Diedenhofen,  Hainam Do,  S. Ehlert,  Po-Tung Fang,  S. Fatehi,  
 Qingguo Feng,  T. Friedhoff,  B. Ganoe,  J. Gayvert,  Qinghui Ge,  
 G. Gidofalvi,  M. Goldey,  J. Gomes,  C. Gonzalez-Espinoza,  S. Gulania,  
 A. Gunina,  J. A. Gyamfi,  M. W. D. Hanson-Heine,  P. H. P. Harbach,  
 A. W. Hauser,  M. F. Herbst,  M. Hernandez Vera,  M. Hodecker,  
 Z. C. Holden,  S. Houck,  Xunkun Huang,  Kerwin Hui,  B. C. Huynh,  
 K. Ikeda,  M. Ivanov,  Hyunjun Ji,  Zuxin Jin,  Hanjie Jiang,  B. Kaduk,  
 S. Kaehler,  R. Kang,  K. Khistyaev,  Jaehoon Kim,  Yongbin Kim,  
 P. Klunzinger,  Z. Koczor-Benda,  Joong Hoon Koh,  D. Kosenkov,  
 Saikiran Kotaru,  L. Koulias,  T. Kowalczyk,  C. M. Krauter,  K. Kue,  
 A. Kunitsa,  T. Kus,  A. Landau,  K. V. Lawler,  D. Lefrancois,  S. Lehtola,  
 Rain Li,  Shaozhi Li,  Yi-Pei Li,  Jiashu Liang,  M. Liebenthal,  
 Hung-Hsuan Lin,  You-Sheng Lin,  Fenglai Liu,  Kuan-Yu Liu,  
 M. Loipersberger,  A. Luenser,  C. Malbon,  A. Manjanath,  P. Manohar,  
 E. Mansoor,  S. F. Manzer,  Shan-Ping Mao,  A. V. Marenich,  T. Markovich,  
 S. Mason,  F. Matz,  S. A. Maurer,  P. F. McLaughlin,  M. F. S. J. Menger,  
 J.-M. Mewes,  S. A. Mewes,  P. Morgante,  Mohammad Mostafanejad,  
 J. W. Mullinax,  K. J. Oosterbaan,  G. Paran,  V. Parravicini,  
 Alexander C. Paul,  Suranjan K. Paul,  F. Pavosevic,  Zheng Pei,  S. Prager,  
 E. I. Proynov,  E. Ramos,  B. Rana,  A. E. Rask,  A. Rettig,  R. M. Richard,  
 F. Rob,  E. Rossomme,  T. Scheele,  M. Scheurer,  M. Schneider,  
 P. E. Schneider,  N. Sergueev,  S. M. Sharada,  Hengyuan Shen,  
 W. Skomorowski,  D. W. Small,  C. J. Stein,  Yingli Su,  Yu-Chuan Su,  
 E. J. Sundstrom,  Zhen Tao,  J. Thirman,  Hung-Yi Tsai,  T. Tsuchimochi,  
 N. M. Tubman,  C. Utku,  S. P. Veccham,  O. Vydrov,  J. Wenzel,  
 Jonathan Wong,  J. Witte,  A. Yamada,  Chou-Hsun Yang,  Kun Yao,  
 S. Yeganeh,  S. R. Yost,  A. Zech,  F. Zeller,  Igor Ying Zhang,  
 Xing Zhang,  Yu Zhang,  D. Zuev,  A. Aspuru-Guzik,  A. T. Bell,  
 N. A. Besley,  K. B. Bravaya,  B. R. Brooks,  D. Casanova,  Jeng-Da Chai,  
 Hsing-Ta Chen,  S. Coriani,  C. J. Cramer,  A. E. DePrince, III,  
 R. A. DiStasio Jr.,  A. Dreuw,  B. D. Dunietz,  T. R. Furlani,  
 W. A. Goddard III,  S. Grimme,  S. Hammes-Schiffer,  T. Head-Gordon,  
 W. J. Hehre,  Chao-Ping Hsu,  T.-C. Jagau,  Yousung Jung,  A. Klamt,  
 Jing Kong,  D. S. Lambrecht,  Xiangyuan Li,  WanZhen Liang,  N. J. Mayhall,  
 C. W. McCurdy,  J. B. Neaton,  T. Neudecker,  C. Ochsenfeld,  
 J. A. Parkhill,  R. Peverati,  V. A. Rassolov,  Haisheng Ren,  Yihan Shao,  
 L. V. Slipchenko,  R. P. Steele,  J. E. Subotnik,  A. J. W. Thom,  
 A. Tkatchenko,  D. G. Truhlar,  T. Van Voorhis,  Fan Wang,  
 T. A. Wesolowski,  K. B. Whaley,  H. L. Woodcock III,  P. M. Zimmerman,  
 S. Faraji,  P. M. W. Gill,  M. Head-Gordon,  J. M. Herbert,  A. I. Krylov

 Contributors to earlier versions of Q-Chem not listed above: 
 R. D. Adamson,  B. Austin,  R. Baer,  J. Baker,  G. J. O. Beran,  
 K. Brandhorst,  S. T. Brown,  E. F. C. Byrd,  Arup K. Chakraborty,  
 G. K. L. Chan,  Chun-Min Chang,  Yunqing Chen,  C.-L. Cheng,  
 Siu Hung Chien,  D. M. Chipman,  D. L. Crittenden,  H. Dachsel,  
 R. J. Doerksen,  A. D. Dutoi,  R. G. Edgar,  J. Fosso-Tande,  
 L. Fusti-Molnar,  D. Ghosh,  A. Ghysels,  A. Golubeva-Zadorozhnaya,  
 J. Gonthier,  M. S. Gordon,  S. R. Gwaltney,  G. Hawkins,  J. E. Herr,  
 A. Heyden,  S. Hirata,  E. G. Hohenstein,  G. Kedziora,  F. J. Keil,  
 C. Kelley,  Jihan Kim,  R. A. King,  R. Z. Khaliullin,  P. P. Korambath,  
 W. Kurlancheek,  A. Laurent,  A. M. Lee,  M. S. Lee,  S. V. Levchenko,  
 Ching Yeh Lin,  D. Liotard,  E. Livshits,  R. C. Lochan,  I. Lotan,  
 L. A. Martinez-Martinez,  P. E. Maslen,  N. Nair,  D. P. O'Neill,  
 D. Neuhauser,  E. Neuscamman,  C. M. Oana,  R. Olivares-Amaya,  R. Olson,  
 T. M. Perrine,  B. Peters,  P. A. Pieniazek,  A. Prociuk,  Y. M. Rhee,  
 J. Ritchie,  M. A. Rohrdanz,  E. Rosta,  N. J. Russ,  H. F. Schaefer III,  
 M. W. Schmidt,  N. E. Schultz,  S. Sharma,  N. Shenvi,  C. D. Sherrill,  
 A. C. Simmonett,  A. Sodt,  T. Stein,  D. Stuck,  K. S. Thanthiriwatte,  
 V. Vanovschi,  L. Vogt,  Tao Wang,  A. Warshel,  M. A. Watson,  
 C. F. Williams,  Q. Wu,  X. Xu,  Jun Yang,  W. Zhang,  Yan Zhao

   Please cite Q-Chem as follows:
  "Software for the frontiers of quantum chemistry:
   An overview of developments in the Q-Chem 5 package"
   J. Chem. Phys. 155, 084801 (2021)
   https://doi.org/10.1063/5.0055522 (open access)

 Q-Chem 6.0.1 for Intel X86 EM64T Linux

 Parts of Q-Chem use Armadillo 9.900.5 (Nocturnal Misbehaviour).
 http://arma.sourceforge.net/

 Q-Chem begins on Fri Dec  1 14:23:23 2023  

 Host: atlas-009
0

     Scratch files written to ./qchem22772//
 Processing $rem in /scratch/abel/SOFTWARE/qchem/config/preferences:
 Processing $rem in /dipc/acebg/.qchemrc:

 Checking the input file for inconsistencies... 	...done.

--------------------------------------------------------------
User input:
--------------------------------------------------------------
$comment
 RAS-SF CALCULATION
$end

$molecule
 READ tetracene_opt.molecule
$end

$rem
!**CALCULATION TYPE***     
JOBTYPE            sp    
EXCHANGE           HF
CORRELATION        RASCI    !RASCI=Casanova; RASCI2=Zimmerman
BASIS              def2-TZVP

!***SCF REFERENCE***
!SKIP_SCFMAN        FALSE
UNRESTRICTED       FALSE
!SCF_GUESS          core
!SCF_GUESS_MIX      FALSE
!SCF_GUESS_ALWAYS   FALSE
MAX_SCF_CYCLES     999
!SCF_CONVERGENCE    8
SCF_ALGORITHM      DIIS_GDM !DIIS,DM,DIIS_DM,GDM,DIIS_GDM,GD

!SYMMETRY           TRUE   !use of symmetry for calculating integrals
!SYM_IGNORE         FALSE  !turn off using symmetry
!SYM_TOL            5      !tolerance for determining point group
!USE_ABELIAN_SUBGROUP      !define to use abelian group

!THRESH             14
SCF_FINAL_PRINT     1 !0,1,2,3

!****RAS-SF****
RAS_ROOTS          20       !number of RAS-CI roots to be computed
SET_ITER           150     !number of iterations in RASCI
RAS_ELEC           10       !number of electrons in RAS2
RAS_ELEC_ALPHA     6       !spin-α electrons in RAS2 
RAS_ELEC_BETA      4       !spin-β electrons in RAS2

RAS_ACT            11       !number of orbitals in RAS2 
RAS_ACT_ORB  [44, 49, 51, 52, 60, 61, 62, 63, 69, 74, 83]  !user-selected RAS2 orbitals
RAS_OCC            55       !number of orbitals in RAS1
!N_FROZEN_CORE      35     !Number of frozen core orbitals
!N_FROZEN_VIRTUAL   544      !Number of frozen virtual orbitals

RAS_DO_HOLE        false  !presence of hole excitations in RAS-CI wave function
RAS_DO_PART        false   !presence of particle excitations
!RAS_AMPL_PRINT     10     !threshold (×10 2 ) for the CI amplitudes

!RAS_GUESS_CS       0      !number of closed shell guess conﬁgurations
!RAS_SPIN_MULT      0      !spin multiplicity. Only for Ms = 0 
!RAS_SRDFT          FALSE  !short-range density functional RAS-CI
!RAS_NFRAG          0     !fragments of excitation analysis in RASCI

RAS_PRINT          2      !level of information
RAS_NATORB         TRUE   !computation of the natural orbital occupancies
!RAS_NATORB_STATE  0      !Saves NO of i RAS computed state in .fchk ﬁle
!RAS_FOD            TRUE

!****RAS-SOC****
CALC_SOC           TRUE   !calculate SOC for EOM-CC, RAS-CI, ADC, TDDFT/TDA and TDDFT
!RAS_SOC_2E        TRUE   !two-electron mean-ﬁeld contribution, default=true
RAS_SOC_SYM_DENS   TRUE   !averaging of α and β densities

!****MEMORY****
MEM_TOTAL          100000 !Default 2000 MB
MEM_STATIC         200000  !Default 64 MB

!**Molecular Properties and Analysis **                                                                                          
POP_MULLIKEN       TRUE   !Run Mulliken population analysis
LOWDIN_POPULATION  TRUE   !Run Löwdin population analysis
GUI                2       !Checkpoints generation
STATE_ANALYSIS     TRUE

!**Wave function analysis of RAS-CI states: MOLDEN**
!PLOTS = 0     ! Note: This can be omitted, default is 0
!NTO_PAIRS = 2 ! Note: This can be omitted, default is 2
!GUI 0
!MOLDEN_FORMAT      TRUE
!PRINT_ORBITALS     15

!**Wave function analysis of RAS-CI state: CUBE**
!NTO_PAIRS = 2 ! Note: This can be omitted, default is 2
!PLOTS = 1
!GUI 0

!**SR-DFT**
!RAS_SRDFT           TRUE !Perform short-range density functional RAS-CI
!RAS_SRDFT_EXC       0 !EX functional. 0=HF. 
!RAS_SRDFT_ONLY_COR  TRUE !No use of EXC functional
!RAS_SRDFT_COR       srPBE !short-range correlation functional
!ras_srdft_0         TRUE !true: no iteration (one-shot); false: iteration
!RAS_OMEGA           400 !Coulomb range-separation parameter. def=400
!RAS_SRDFT_DAMP     0.5 !dumping factor. def=0.5
$end

!$plots
!   grid_points 100 100 100
!   grid_range  (-10,10) (-10,10) (-10,10)
!$end

--------------------------------------------------------------
 ----------------------------------------------------------------
             Standard Nuclear Orientation (Angstroms)
    I     Atom           X                Y                Z
 ----------------------------------------------------------------
    1      C       0.0000002188    -0.7282540188     0.0008017092
    2      C      -1.2207052746    -1.3992280118    -0.0018011386
    3      H      -1.2261427012    -2.4836772361    -0.0033764159
    4      C       1.2207081982    -1.3992259422     0.0033054321
    5      H       1.2261474362    -2.4836746482     0.0051990930
    6      C       2.4728705352    -0.7109288954     0.0026585214
    7      C       3.6933843145    -1.3895468780     0.0054990200
    8      H       3.6912698368    -2.4735216295     0.0101982845
    9      C       4.8951625276    -0.6951136790     0.0022317856
   10      H       5.8317025073    -1.2370466889     0.0045873165
   11      C       4.8951698125     0.6950863412    -0.0042218962
   12      H       5.8317157882     1.2370045515    -0.0077605937
   13      C       3.6933986099     1.3895408935    -0.0060711048
   14      H       3.6912882173     2.4735158387    -0.0107273443
   15      C       2.4728749790     0.7109408505    -0.0019787702
   16      C      -2.4728683323    -0.7109320216    -0.0020626534
   17      C      -3.6933779290    -1.3895491796    -0.0061374954
   18      H      -3.6912592123    -2.4735238608    -0.0108510748
   19      C      -4.8951593786    -0.6951146350    -0.0041874034
   20      H      -5.8316964398    -1.2370465250    -0.0076843755
   21      C      -4.8951727029     0.6950851007     0.0023272769
   22      H      -5.8317217130     1.2370039111     0.0048148574
   23      C      -3.6934038059     1.3895388116     0.0055099792
   24      H      -3.6912977184     2.4735134779     0.0102326338
   25      C      -2.4728768497     0.7109387678     0.0025725219
   26      C      -1.2207179048     1.3992461788     0.0031737596
   27      H      -1.2261589783     2.4836960370     0.0049726451
   28      C      -0.0000008258     0.7282779777     0.0007731087
   29      C       1.2207137816     1.3992480899    -0.0017660019
   30      H       1.2261531349     2.4836982700    -0.0033649292
 ----------------------------------------------------------------
 Molecular Point Group                 C1    NOp =  1
 Largest Abelian Subgroup              C1    NOp =  1
 Nuclear Repulsion Energy =        1116.85311862 hartrees
 There are       61 alpha and       59 beta electrons
 Requested basis set is def2-TZVP
 There are 246 shells and 630 basis functions

 Q-Chem warning in module libmdc/get_mega.C, line 167:

 Allowed MEM_STATIC has been capped at MEM_STATIC=8191.
 Reduce the value of MEM_STATIC to silence this warning.


 Total QAlloc Memory Limit 100000 MB
 Mega-Array Size      8007 MB
 MEM_STATIC part      8191 MB

 A cutoff of  1.0D-09 yielded  19900 shell pairs
 There are    128244 function pairs (    165257 Cartesian)
 Smallest overlap matrix eigenvalue = 5.12E-06

 Q-Chem warning in module stvman/mkSTV.C, line 313:

 Overlap eigenvalue is smaller than square root of threshold
 Use THRESH >= 12 to get rid of this warning


 Scale SEOQF with 1.000000e-02/1.000000e-01/1.000000e+00

 Standard Electronic Orientation quadrupole field applied
 Nucleus-field energy     =     0.0000000173 hartrees
 Guess from superposition of atomic densities
 Warning:  Energy on first SCF cycle will be non-variational
 SAD guess density has 120.000001 electrons

 -----------------------------------------------------------------------
  General SCF calculation program by
  Eric Jon Sundstrom, Paul Horn, Yuezhi Mao, Dmitri Zuev, Alec White,
  David Stuck, Shaama M.S., Shane Yost, Joonho Lee, David Small,
  Daniel Levine, Susi Lehtola, Hugh Burton, Evgeny Epifanovsky,
  Bang C. Huynh
 -----------------------------------------------------------------------
 Hartree-Fock
 Orthonormalizing orbitals
 A restricted open-shell SCF calculation will be
 performed using DIIS, GDM
 SCF converges when RMS gradient is below 1.0e-05
 ---------------------------------------
  Cycle       Energy         DIIS error
 ---------------------------------------
    1    -685.8608859782      1.91e-02  
    2    -686.0494228468      1.74e-02  
    3    -688.3056248184      4.57e-03  Done DIIS. Switching to GDM
 ---------------------------------------
  Cycle       Energy        RMS Gradient
 ---------------------------------------
    1    -688.3056248184      1.23e-01   Descent step
    2    -688.5049702682      2.15e-01   Descent step
    3    -688.6307210373      4.83e-01   Descent step
    4    -688.7837550706      1.52e-01   Dog-leg BFGS step
    5    -688.8054388912      5.72e-02   Dog-leg BFGS step
    6    -688.7675395622      6.03e-02  Line search: overstep
    7    -688.8103732479      5.41e-02   Normal BFGS step
    8    -688.8125969296      3.57e-02   Normal BFGS step
    9    -688.8138877681      5.27e-03   Normal BFGS step
   10    -688.8139410514      3.38e-03   Normal BFGS step
   11    -688.8139673857      5.12e-04   Normal BFGS step
   12    -688.8139695261      2.37e-04   Normal BFGS step
   13    -688.8139711683      1.15e-04   Normal BFGS step
   14    -688.8139724227      5.03e-05   Normal BFGS step
   15    -688.8139725183      1.12e-05   Normal BFGS step
   16    -688.8139748074      9.79e-06  Convergence criterion met
The disked orbital energies are calculated using alpha and beta Focks
 ---------------------------------------
 Alpha HF Exchange    Energy = -49.35509995296632
 Beta HF Exchange     Energy = -48.47302167668884
 Nuclear Attraction   Energy =   0.00000000000000
 One-Electron (alpha) Energy = -1596.31343662819563
 One-Electron (beta)  Energy = -1552.80604030061886
 Total Coulomb        Energy = 1441.28050511129118
 Final Alpha MO Eigenvalues
            1           2           3           4           5           6
    1 -11.2465250 -11.2456903 -11.2440894 -11.2440946 -11.2430746 -11.2430761
            7           8           9          10          11          12
    1 -11.2436624 -11.2436240 -11.2434742 -11.2434064 -11.2354282 -11.2354303
           13          14          15          16          17          18
    1 -11.2352729 -11.2352757 -11.2340038 -11.2340059 -11.2329276 -11.2329291
           19          20          21          22          23          24
    1  -1.1998629  -1.1731256  -1.1325776  -1.0805236  -1.0725351  -1.0467333
           25          26          27          28          29          30
    1  -1.0139995  -1.0072306  -0.9488184  -0.9164398  -0.8463940  -0.8334529
           31          32          33          34          35          36
    1  -0.8259220  -0.8138458  -0.7796445  -0.7161618  -0.6929213  -0.6894673
           37          38          39          40          41          42
    1  -0.6790039  -0.6308783  -0.6331425  -0.6286481  -0.6151467  -0.5883367
           43          44          45          46          47          48
    1  -0.5844161  -0.5816429  -0.5777742  -0.5654960  -0.5721641  -0.5216452
           49          50          51          52          53          54
    1  -0.5208038  -0.5311781  -0.4903356  -0.4868441  -0.4749185  -0.4854979
           55          56          57          58          59          60
    1  -0.4418278  -0.3964328  -0.3757556  -0.3334365  -0.3364685  -0.2861952
           61          62          63          64          65          66
    1  -0.2086640   0.0829500   0.1025764   0.1337284   0.1489697   0.1408825
           67          68          69          70          71          72
    1   0.1575251   0.1578271   0.1686911   0.1695217   0.1622385   0.1868760
           73          74          75          76          77          78
    1   0.1918659   0.2006155   0.2117343   0.2197057   0.2265549   0.2373559
           79          80          81          82          83          84
    1   0.2504114   0.2645357   0.2641646   0.2690574   0.2725092   0.2789073
           85          86          87          88          89          90
    1   0.2994637   0.3004501   0.3083058   0.3107552   0.3180266   0.3152104
           91          92          93          94          95          96
    1   0.3308946   0.3400402   0.3509888   0.3558018   0.3669157   0.3698505
           97          98          99         100         101         102
    1   0.3890105   0.3909925   0.3941818   0.4022882   0.4036425   0.4068197
          103         104         105         106         107         108
    1   0.4098387   0.4184228   0.4292672   0.4345760   0.4370011   0.4427779
          109         110         111         112         113         114
    1   0.4516586   0.4531482   0.4507227   0.4496704   0.4656067   0.4687944
          115         116         117         118         119         120
    1   0.4717604   0.4817269   0.4868376   0.4894149   0.4961082   0.5040691
          121         122         123         124         125         126
    1   0.5082057   0.5124012   0.5181724   0.5281056   0.5354452   0.5373251
          127         128         129         130         131         132
    1   0.5419472   0.5437584   0.5621666   0.5664518   0.5658288   0.5698316
          133         134         135         136         137         138
    1   0.5853157   0.5853773   0.5936098   0.5943965   0.6076319   0.6210465
          139         140         141         142         143         144
    1   0.6268696   0.6329456   0.6392235   0.6472537   0.6479698   0.6488826
          145         146         147         148         149         150
    1   0.6495158   0.6501830   0.6515007   0.6549660   0.6579832   0.6812223
          151         152         153         154         155         156
    1   0.6813680   0.6890042   0.7142369   0.7143204   0.7229227   0.7375620
          157         158         159         160         161         162
    1   0.7475119   0.7549472   0.7660875   0.7944118   0.8078445   0.8166430
          163         164         165         166         167         168
    1   0.8220199   0.8217963   0.8233116   0.8383293   0.8390773   0.8443056
          169         170         171         172         173         174
    1   0.8454804   0.8578047   0.8808421   0.8885583   0.8925767   0.8953144
          175         176         177         178         179         180
    1   0.8948123   0.9091861   0.9181124   0.9180732   0.9180639   0.9267688
          181         182         183         184         185         186
    1   0.9313120   0.9322353   0.9383674   0.9487370   0.9487952   0.9483117
          187         188         189         190         191         192
    1   0.9639135   0.9751377   0.9861014   0.9870608   0.9928419   0.9916243
          193         194         195         196         197         198
    1   0.9946875   1.0100473   1.0386191   1.0500720   1.0550443   1.0637945
          199         200         201         202         203         204
    1   1.0664000   1.0793370   1.0888789   1.1018165   1.1016905   1.1052769
          205         206         207         208         209         210
    1   1.1038114   1.1075492   1.1164201   1.1321819   1.1498603   1.1737469
          211         212         213         214         215         216
    1   1.1793171   1.1880532   1.1892212   1.2008781   1.2116061   1.2256492
          217         218         219         220         221         222
    1   1.2316094   1.2324542   1.2483660   1.2683155   1.3163828   1.3219284
          223         224         225         226         227         228
    1   1.3525134   1.3547307   1.3594163   1.3653057   1.3672341   1.3717085
          229         230         231         232         233         234
    1   1.3773706   1.3792415   1.4138897   1.4250368   1.4297397   1.4397364
          235         236         237         238         239         240
    1   1.4379808   1.4530031   1.4552151   1.4677806   1.4755218   1.4907054
          241         242         243         244         245         246
    1   1.4913703   1.5002975   1.5069070   1.5083946   1.5291396   1.5379423
          247         248         249         250         251         252
    1   1.5483401   1.5527885   1.5619990   1.5946516   1.5953454   1.5927704
          253         254         255         256         257         258
    1   1.6091949   1.6445861   1.6560439   1.6610301   1.6731038   1.6735934
          259         260         261         262         263         264
    1   1.6875168   1.7036189   1.7100845   1.7215046   1.7260484   1.7340569
          265         266         267         268         269         270
    1   1.7492155   1.7642533   1.7639772   1.7683391   1.7770928   1.7818216
          271         272         273         274         275         276
    1   1.7957596   1.7992538   1.8087049   1.8151732   1.8118629   1.8276504
          277         278         279         280         281         282
    1   1.8455713   1.8507938   1.8655391   1.8729174   1.8786788   1.8827117
          283         284         285         286         287         288
    1   1.9081085   1.9357608   1.9354874   1.9427149   1.9436896   1.9450949
          289         290         291         292         293         294
    1   1.9571902   1.9671464   1.9754253   1.9738582   1.9840808   1.9887133
          295         296         297         298         299         300
    1   2.0043549   2.0073593   2.0342405   2.0444173   2.0453675   2.0530030
          301         302         303         304         305         306
    1   2.0706520   2.0851786   2.1138207   2.1340611   2.1542829   2.1560774
          307         308         309         310         311         312
    1   2.1697441   2.1857800   2.1857365   2.1937572   2.1988231   2.2226369
          313         314         315         316         317         318
    1   2.2284492   2.2306693   2.2363650   2.2695422   2.2729944   2.2855645
          319         320         321         322         323         324
    1   2.2982443   2.3017081   2.3425412   2.3497400   2.3638390   2.3708240
          325         326         327         328         329         330
    1   2.4206434   2.4326993   2.4342423   2.4474310   2.4660203   2.4709990
          331         332         333         334         335         336
    1   2.4743761   2.4959064   2.4978429   2.5038103   2.5090525   2.5112251
          337         338         339         340         341         342
    1   2.5204538   2.5283259   2.5343280   2.5531298   2.5555943   2.6033037
          343         344         345         346         347         348
    1   2.6108895   2.6141871   2.6309631   2.6324449   2.6425505   2.6500613
          349         350         351         352         353         354
    1   2.6648368   2.6982147   2.7318443   2.7339683   2.7537558   2.7624693
          355         356         357         358         359         360
    1   2.7671097   2.7732012   2.7829991   2.8002879   2.8377497   2.8373989
          361         362         363         364         365         366
    1   2.8379920   2.8646418   2.8676405   2.8705036   2.8718652   2.9107087
          367         368         369         370         371         372
    1   2.9250028   2.9286344   2.9425905   2.9615367   2.9604400   2.9720797
          373         374         375         376         377         378
    1   2.9752908   2.9755674   2.9798436   2.9882012   2.9933260   2.9953270
          379         380         381         382         383         384
    1   3.0445526   3.0502185   3.0529120   3.0558917   3.0634381   3.0677647
          385         386         387         388         389         390
    1   3.0741976   3.0747349   3.1011753   3.1060829   3.1052377   3.1081850
          391         392         393         394         395         396
    1   3.1092388   3.1231226   3.1255771   3.1397385   3.1443362   3.1586408
          397         398         399         400         401         402
    1   3.1589283   3.1714746   3.1822696   3.1806567   3.1849207   3.1913156
          403         404         405         406         407         408
    1   3.1908993   3.1964530   3.2082508   3.2123024   3.2189366   3.2268807
          409         410         411         412         413         414
    1   3.2473899   3.2535779   3.2589079   3.2614878   3.2665466   3.2670657
          415         416         417         418         419         420
    1   3.2796774   3.2923063   3.2914995   3.3043389   3.3125414   3.3156322
          421         422         423         424         425         426
    1   3.3183576   3.3548986   3.3555760   3.3639437   3.3676877   3.3755636
          427         428         429         430         431         432
    1   3.3831279   3.3840680   3.3875626   3.3958551   3.3964895   3.4063282
          433         434         435         436         437         438
    1   3.4174720   3.4274899   3.4309785   3.4589791   3.4575137   3.4646062
          439         440         441         442         443         444
    1   3.4672964   3.4907027   3.5066964   3.5080095   3.5086520   3.5132877
          445         446         447         448         449         450
    1   3.5153788   3.5247928   3.5510756   3.5531424   3.5618774   3.5711726
          451         452         453         454         455         456
    1   3.5769301   3.5744895   3.5848301   3.5986361   3.6049141   3.6153032
          457         458         459         460         461         462
    1   3.6210038   3.6386386   3.6402907   3.6519014   3.6604389   3.6653699
          463         464         465         466         467         468
    1   3.6650705   3.6673060   3.6702900   3.7006716   3.7027406   3.7103982
          469         470         471         472         473         474
    1   3.7142063   3.7174525   3.7219841   3.7337872   3.7551011   3.7594165
          475         476         477         478         479         480
    1   3.7766290   3.7787857   3.7906836   3.7967407   3.7999525   3.8006430
          481         482         483         484         485         486
    1   3.8094949   3.8216929   3.8258663   3.8341547   3.8379491   3.8523106
          487         488         489         490         491         492
    1   3.8538059   3.8791101   3.8804956   3.8853121   3.8976442   3.9000746
          493         494         495         496         497         498
    1   3.9054105   3.9128718   3.9201407   3.9238996   3.9420205   3.9592906
          499         500         501         502         503         504
    1   3.9736805   3.9983564   4.0056757   4.0272531   4.0260707   4.0366930
          505         506         507         508         509         510
    1   4.0362813   4.0631090   4.1032680   4.1154718   4.1203239   4.1421594
          511         512         513         514         515         516
    1   4.1533590   4.1780145   4.1952587   4.2282296   4.2338534   4.2497634
          517         518         519         520         521         522
    1   4.2509620   4.2580131   4.2700621   4.2887141   4.3016174   4.3140253
          523         524         525         526         527         528
    1   4.3269116   4.3597807   4.3616553   4.3623765   4.3658597   4.3943260
          529         530         531         532         533         534
    1   4.4023303   4.4316740   4.4375817   4.4406169   4.4409321   4.4496790
          535         536         537         538         539         540
    1   4.4813690   4.5023667   4.5311942   4.5312997   4.5382488   4.5387304
          541         542         543         544         545         546
    1   4.5399212   4.5431486   4.5428293   4.5681181   4.5740519   4.5938344
          547         548         549         550         551         552
    1   4.5961838   4.6106685   4.6125207   4.6380444   4.6484785   4.6771752
          553         554         555         556         557         558
    1   4.7076044   4.7276953   4.7341793   4.7378567   4.7475787   4.7604704
          559         560         561         562         563         564
    1   4.7800001   4.7795613   4.8194278   4.8260376   4.8444516   4.8674038
          565         566         567         568         569         570
    1   4.8853804   4.9045793   4.9265147   4.9628162   5.0066052   5.0109900
          571         572         573         574         575         576
    1   5.0406633   5.0660474   5.0834130   5.0872550   5.1025704   5.1616686
          577         578         579         580         581         582
    1   5.1760027   5.1779672   5.1974360   5.2174180   5.2304790   5.2421182
          583         584         585         586         587         588
    1   5.2511591   5.2866065   5.3044727   5.3190729   5.3365141   5.3815328
          589         590         591         592         593         594
    1   5.3989342   5.4806672   5.5094738   5.5121076   5.5479132   5.5722588
          595         596         597         598         599         600
    1   5.5976693   5.6131243   5.6753506   5.6902374   5.7248636   5.7878559
          601         602         603         604         605         606
    1   5.8730284   5.8730444   5.9073470   5.9328614   5.9640687   6.0117436
          607         608         609         610         611         612
    1   6.0616317   6.0714725   6.1534896   6.1660512   6.3294458   6.6133480
          613         614         615         616         617         618
    1  22.9509019  23.5059965  23.7020657  23.7277754  23.8143386  23.8164655
          619         620         621         622         623         624
    1  23.8190117  23.8917751  23.9625533  23.9698745  23.9732885  24.0038201
          625         626         627         628         629         630
    1  24.0599060  24.1216060  24.3593797  24.3899427  24.7220434  24.9934169
 Final Beta MO Eigenvalues
            1           2           3           4           5           6
    1 -11.2464170 -11.2455508 -11.2434490 -11.2434552 -11.2423913 -11.2423976
            7           8           9          10          11          12
    1 -11.2364409 -11.2364507 -11.2363841 -11.2363879 -11.2346299 -11.2346323
           13          14          15          16          17          18
    1 -11.2344043 -11.2344071 -11.2333249 -11.2333265 -11.2323245 -11.2323258
           19          20          21          22          23          24
    1  -1.1861012  -1.1650223  -1.1238174  -1.0597932  -1.0601864  -1.0357419
           25          26          27          28          29          30
    1  -1.0090598  -0.9968888  -0.9257603  -0.8988030  -0.8410178  -0.8291754
           31          32          33          34          35          36
    1  -0.8126308  -0.8064024  -0.7692227  -0.7124037  -0.6871542  -0.6821833
           37          38          39          40          41          42
    1  -0.6743047  -0.6287363  -0.6268897  -0.6243614  -0.6109981  -0.5847327
           43          44          45          46          47          48
    1  -0.5768296  -0.5768647  -0.5727628  -0.5600291  -0.5315777  -0.5189182
           49          50          51          52          53          54
    1  -0.5159149  -0.5100672  -0.4876769  -0.4813128  -0.4707827  -0.4510081
           55          56          57          58          59          60
    1  -0.3757277  -0.3608313  -0.3473698  -0.3119269  -0.2827225   0.0049574
           61          62          63          64          65          66
    1   0.0742802   0.1279506   0.1217380   0.1548019   0.1503844   0.1743198
           67          68          69          70          71          72
    1   0.1582691   0.1583199   0.1693784   0.1709330   0.1926695   0.1878699
           73          74          75          76          77          78
    1   0.1923706   0.2011628   0.2126334   0.2202502   0.2321913   0.2405095
           79          80          81          82          83          84
    1   0.2530380   0.2695377   0.2709448   0.2704782   0.2754550   0.3027562
           85          86          87          88          89          90
    1   0.3005487   0.3040491   0.3091457   0.3172696   0.3241766   0.3330873
           91          92          93          94          95          96
    1   0.3368532   0.3421954   0.3543971   0.3635517   0.3680940   0.3709606
           97          98          99         100         101         102
    1   0.3913623   0.4017709   0.4099835   0.4068427   0.4133436   0.4081794
          103         104         105         106         107         108
    1   0.4109743   0.4263840   0.4319367   0.4387841   0.4465990   0.4538671
          109         110         111         112         113         114
    1   0.4570062   0.4553170   0.4695559   0.4913509   0.4826742   0.4764726
          115         116         117         118         119         120
    1   0.4764421   0.4841247   0.4912891   0.4910607   0.5048979   0.5064847
          121         122         123         124         125         126
    1   0.5109115   0.5277912   0.5217288   0.5354622   0.5386786   0.5390597
          127         128         129         130         131         132
    1   0.5466215   0.5478886   0.5647147   0.5677488   0.5739150   0.5714570
          133         134         135         136         137         138
    1   0.5905874   0.5943185   0.5956381   0.6013996   0.6148807   0.6245782
          139         140         141         142         143         144
    1   0.6308446   0.6343862   0.6438470   0.6506599   0.6502124   0.6520712
          145         146         147         148         149         150
    1   0.6547347   0.6555956   0.6601666   0.6575807   0.6762011   0.6834518
          151         152         153         154         155         156
    1   0.6839962   0.6905538   0.7202825   0.7208358   0.7269323   0.7462717
          157         158         159         160         161         162
    1   0.7496846   0.7570359   0.7697093   0.8024413   0.8186175   0.8225188
          163         164         165         166         167         168
    1   0.8254461   0.8282649   0.8257542   0.8407245   0.8482786   0.8476181
          169         170         171         172         173         174
    1   0.8476273   0.8616028   0.8834447   0.8907723   0.8960817   0.8985335
          175         176         177         178         179         180
    1   0.9029537   0.9124613   0.9231082   0.9287729   0.9350286   0.9295656
          181         182         183         184         185         186
    1   0.9350397   0.9344363   0.9415422   0.9513251   0.9522980   0.9606486
          187         188         189         190         191         192
    1   0.9795103   0.9782708   0.9877406   0.9964355   0.9966646   0.9991561
          193         194         195         196         197         198
    1   0.9980650   1.0120485   1.0488533   1.0531144   1.0600226   1.0666129
          199         200         201         202         203         204
    1   1.0694157   1.0810145   1.0947658   1.1077521   1.1154341   1.1085423
          205         206         207         208         209         210
    1   1.1137197   1.1124218   1.1190269   1.1363721   1.1605328   1.1754544
          211         212         213         214         215         216
    1   1.1810814   1.1951628   1.1951586   1.2050262   1.2260700   1.2300755
          217         218         219         220         221         222
    1   1.2347557   1.2351692   1.2585684   1.2771724   1.3211756   1.3250411
          223         224         225         226         227         228
    1   1.3551263   1.3592297   1.3682661   1.3726355   1.3690738   1.3741981
          229         230         231         232         233         234
    1   1.3801037   1.3922744   1.4195535   1.4308206   1.4322349   1.4417138
          235         236         237         238         239         240
    1   1.4492197   1.4548384   1.4574208   1.4702514   1.4770668   1.4928778
          241         242         243         244         245         246
    1   1.4967996   1.5066049   1.5103075   1.5131039   1.5316802   1.5414783
          247         248         249         250         251         252
    1   1.5558367   1.5556904   1.5683374   1.5974966   1.5998805   1.6053606
          253         254         255         256         257         258
    1   1.6137140   1.6475647   1.6589039   1.6675342   1.6749266   1.6973770
          259         260         261         262         263         264
    1   1.7005353   1.7054117   1.7138083   1.7228720   1.7324186   1.7358248
          265         266         267         268         269         270
    1   1.7522711   1.7703283   1.7763084   1.7786586   1.7811596   1.7835254
          271         272         273         274         275         276
    1   1.7986184   1.8012238   1.8158264   1.8166218   1.8235530   1.8288822
          277         278         279         280         281         282
    1   1.8517217   1.8522444   1.8705463   1.8788312   1.8907910   1.8861381
          283         284         285         286         287         288
    1   1.9106292   1.9391324   1.9413111   1.9450915   1.9449652   1.9535798
          289         290         291         292         293         294
    1   1.9728157   1.9700304   1.9788265   1.9823476   1.9856671   1.9928435
          295         296         297         298         299         300
    1   2.0056452   2.0087568   2.0379651   2.0484484   2.0493991   2.0611020
          301         302         303         304         305         306
    1   2.0736079   2.0868224   2.1242171   2.1429038   2.1584288   2.1574847
          307         308         309         310         311         312
    1   2.1757037   2.1878263   2.1958791   2.1973339   2.2066564   2.2270909
          313         314         315         316         317         318
    1   2.2304580   2.2341531   2.2398358   2.2725345   2.2751695   2.2875702
          319         320         321         322         323         324
    1   2.3006206   2.3036257   2.3469913   2.3532022   2.3707138   2.3729327
          325         326         327         328         329         330
    1   2.4223776   2.4381687   2.4371071   2.4522056   2.4728032   2.4766125
          331         332         333         334         335         336
    1   2.4795992   2.5010927   2.5017040   2.5078624   2.5141898   2.5148457
          337         338         339         340         341         342
    1   2.5259786   2.5318952   2.5369230   2.5576408   2.5569111   2.6051996
          343         344         345         346         347         348
    1   2.6147045   2.6165163   2.6340007   2.6362816   2.6453283   2.6533256
          349         350         351         352         353         354
    1   2.6718459   2.7050609   2.7335577   2.7407760   2.7558795   2.7652311
          355         356         357         358         359         360
    1   2.7695416   2.7801280   2.7855860   2.8041572   2.8410151   2.8451440
          361         362         363         364         365         366
    1   2.8471630   2.8668535   2.8700244   2.8754098   2.8739385   2.9135227
          367         368         369         370         371         372
    1   2.9264546   2.9300891   2.9456343   2.9624789   2.9661899   2.9735351
          373         374         375         376         377         378
    1   2.9792674   2.9829384   2.9835990   2.9905911   2.9953552   2.9984691
          379         380         381         382         383         384
    1   3.0462318   3.0553989   3.0569435   3.0606751   3.0652977   3.0697769
          385         386         387         388         389         390
    1   3.0758165   3.0772818   3.1068003   3.1083235   3.1162844   3.1118434
          391         392         393         394         395         396
    1   3.1143872   3.1258790   3.1290003   3.1443457   3.1465898   3.1607159
          397         398         399         400         401         402
    1   3.1622277   3.1759484   3.1840067   3.1902628   3.1877661   3.1981937
          403         404         405         406         407         408
    1   3.1997960   3.1994038   3.2174167   3.2156246   3.2282144   3.2298022
          409         410         411         412         413         414
    1   3.2506002   3.2617319   3.2623572   3.2651892   3.2749360   3.2744050
          415         416         417         418         419         420
    1   3.2842878   3.2952198   3.3018032   3.3080338   3.3157252   3.3212708
          421         422         423         424         425         426
    1   3.3211212   3.3572408   3.3614010   3.3693501   3.3701015   3.3796515
          427         428         429         430         431         432
    1   3.3852061   3.3903021   3.3915444   3.4012680   3.4036509   3.4119166
          433         434         435         436         437         438
    1   3.4209143   3.4335486   3.4341101   3.4619257   3.4649693   3.4672245
          439         440         441         442         443         444
    1   3.4702150   3.4925716   3.5109316   3.5111396   3.5113023   3.5182084
          445         446         447         448         449         450
    1   3.5174311   3.5290484   3.5545534   3.5577166   3.5659813   3.5748199
          451         452         453         454         455         456
    1   3.5791026   3.5869977   3.5880790   3.6043584   3.6066860   3.6281751
          457         458         459         460         461         462
    1   3.6306462   3.6398961   3.6417327   3.6593887   3.6663327   3.6685096
          463         464         465         466         467         468
    1   3.6728419   3.6686896   3.6739770   3.7016673   3.7041883   3.7135329
          469         470         471         472         473         474
    1   3.7197798   3.7189978   3.7292734   3.7357890   3.7579441   3.7622617
          475         476         477         478         479         480
    1   3.7801283   3.7811798   3.7938287   3.8056566   3.8033454   3.8049061
          481         482         483         484         485         486
    1   3.8118514   3.8265575   3.8280367   3.8395111   3.8396625   3.8552640
          487         488         489         490         491         492
    1   3.8555196   3.8848542   3.8823420   3.8874139   3.9012229   3.9035005
          493         494         495         496         497         498
    1   3.9107805   3.9144601   3.9245897   3.9286543   3.9444786   3.9607674
          499         500         501         502         503         504
    1   3.9752435   3.9999212   4.0097885   4.0284780   4.0314137   4.0383412
          505         506         507         508         509         510
    1   4.0410626   4.0670993   4.1049827   4.1219189   4.1253621   4.1451387
          511         512         513         514         515         516
    1   4.1566049   4.1790171   4.1983428   4.2298242   4.2364528   4.2519959
          517         518         519         520         521         522
    1   4.2535331   4.2603646   4.2745053   4.2921299   4.3024463   4.3149647
          523         524         525         526         527         528
    1   4.3288311   4.3629636   4.3636527   4.3662382   4.3706791   4.3976018
          529         530         531         532         533         534
    1   4.4073141   4.4383545   4.4392861   4.4425767   4.4464814   4.4511766
          535         536         537         538         539         540
    1   4.4835857   4.5059956   4.5349321   4.5351133   4.5397532   4.5420565
          541         542         543         544         545         546
    1   4.5434605   4.5447844   4.5454125   4.5696890   4.5762589   4.5957398
          547         548         549         550         551         552
    1   4.5983975   4.6121178   4.6157656   4.6403230   4.6520967   4.6799308
          553         554         555         556         557         558
    1   4.7084471   4.7290145   4.7366820   4.7431964   4.7488369   4.7666004
          559         560         561         562         563         564
    1   4.7819211   4.7845911   4.8233685   4.8316626   4.8467453   4.8712214
          565         566         567         568         569         570
    1   4.8869005   4.9065405   4.9296648   4.9649626   5.0095252   5.0132107
          571         572         573         574         575         576
    1   5.0431432   5.0687581   5.0862845   5.0898160   5.1041169   5.1638989
          577         578         579         580         581         582
    1   5.1774966   5.1789685   5.1988078   5.2187487   5.2323111   5.2467086
          583         584         585         586         587         588
    1   5.2556187   5.2881211   5.3061298   5.3216073   5.3377561   5.3833120
          589         590         591         592         593         594
    1   5.4003659   5.4839954   5.5107082   5.5142147   5.5488004   5.5734176
          595         596         597         598         599         600
    1   5.6005844   5.6147780   5.6770281   5.6910688   5.7259037   5.7889496
          601         602         603         604         605         606
    1   5.8740637   5.8748382   5.9087873   5.9346566   5.9650304   6.0129996
          607         608         609         610         611         612
    1   6.0639350   6.0732735   6.1554050   6.1685902   6.3307349   6.6147684
          613         614         615         616         617         618
    1  22.9519485  23.5064344  23.7040389  23.7281905  23.8150022  23.8189434
          619         620         621         622         623         624
    1  23.8197616  23.8944651  23.9629196  23.9705284  23.9743874  24.0065038
          625         626         627         628         629         630
    1  24.0615090  24.1232245  24.3610690  24.3917877  24.7226094  24.9939006
 SCF time:   CPU 3030.01s  wall 3046.00s 
<S^2> =          2.000000000
 SCF   energy in the final basis set =     -688.8139748074
 Total energy in the final basis set =     -688.8139748074
  
     ##========================================##
     ||                                        ||
     ||              R A S M A N 2             ||
     ||________________________________________||
     ||                                        ||
     ||  Author:                               ||
     ||                                        ||
     ||        David Casanova (2010)           ||
     ||                                        ||
     ##========================================##
  
Setting single-point xc-functionals (if necessary)

  ***************************************************
  *  RAS-CI Dimensions:                             *
  *                                                 *
  *  Active Elec.:  10 ( 6, 4)   Active Orb.:  11   *
  *  Doubly Occ. :  55           Doubly Vir.: 564   *
  *  Frozen Occ. :   0           Frozen Vir.:   0   *
  *                                                 *
  *  Total CI configurations:    152460             * 
  *    Active configurations:    152460             * 
  *      Hole configurations:         0             * 
  *  Particle configurations:         0             * 
  *                                                 *
  *   Requested states:       20                    *
  *  Spin multiplicity: Any multiplicity            *
  *                                                 *
  ***************************************************
-----------------------------------------
    Memory requirements of RASCI

 Each CI-vector requires      1.16 MiB 
 Max. subspace vectors           3000      

 Reduced Lists                0.01 MiB 
 Excitation Lists             0.01 MiB 
 Excitation Lists Sign        0.01 MiB 
 CI-space (Max)            3581.48 MiB 
 Integrals                  691.53 MiB 
 Memory required (Max)     3581.50 MiB 
 Memory available          7811.55 MiB 

    Disk requirements of RASCI

 Fock matrix                  6.06 MiB 
 2-electron integrals         0.22 MiB 
 CI-space                  6979.06 MiB 
 Disk required             6985.34 MiB 
-----------------------------------------
  
RAS1 HF-like energy:           -676.6664012137
 Computing integrals
 Computing J and K matrices
 Computing addressing
 Making amplitude guesses
 
Direct CI diagonalization
 ---------------------------------------------------
 Iter    Rts Conv    Rts Left    Ttl Dev     Max Dev
 ---------------------------------------------------
   1         0          20      0.001926    0.000240
   2         0          20      0.001683    0.000765
   3         0          20      0.000845    0.000247
   4         0          20      0.000755    0.000298
   5         1          19      0.000450    0.000158
   6         5          15      0.000307    0.000102
   7         9          11      0.000240    0.000102
   8        10          10      0.000178    0.000073
   9        12           8      0.000132    0.000048
  10        14           6      0.000117    0.000052
  11        14           6      0.000382    0.000274
  12        14           6      0.000403    0.000202
  13        14           6      0.000529    0.000210
  14        15           5      0.000350    0.000149
  15        15           5      0.000266    0.000122
  16        15           5      0.000214    0.000101
  17        16           4      0.000155    0.000064
  18        15           5      0.000123    0.000043
  19        15           5      0.000191    0.000102
  20        15           5      0.000175    0.000086
  21        15           5      0.000160    0.000065
  22        15           5      0.000127    0.000054
  23        15           5      0.000093    0.000045
  24        15           5      0.000070    0.000033
  25        15           5      0.000060    0.000028
  26        15           5      0.000057    0.000026
  27        17           3      0.000050    0.000021
  28        17           3      0.000042    0.000016
  29        17           3      0.000040    0.000020
  30        17           3      0.000041    0.000025
  31        17           3      0.000047    0.000034
  32        17           3      0.000056    0.000045
  33        17           3      0.000054    0.000044
  34        18           2      0.000047    0.000038
  35        19           1      0.000039    0.000031
  36        19           1      0.000035    0.000027
  37        19           1      0.000028    0.000020
  38        19           1      0.000026    0.000018
  39        19           1      0.000025    0.000016
  40        19           1      0.000022    0.000014
  41        19           1      0.000019    0.000011
  42        19           1      0.000016    0.000008
  43        19           1      0.000014    0.000005
  44        19           1      0.000012    0.000004
  45        19           1      0.000011    0.000002
  46        19           1      0.000010    0.000002
  47        19           1      0.000010    0.000001
  48        20           0      0.000009    0.000001    Roots Converged
 ---------------------------------------------------
   
**************************************************
 RAS-CI total energy for state   1:   -688.814847006959
  Excitation energy (eV) =  0.000000000000
  State symmetry: A1  (C1       )
  <S^2>      :  2.0000
  Dipole Moment:    0.0000 X     0.0000 Y     0.0004 Z
 NATURAL OCCUPATION NUMBERS (higher than 1.0E-05)
            1           2           3           4           5           6
    1   2.0000000   2.0000000   2.0000000   2.0000000   2.0000000   2.0000000
            7           8           9          10          11          12
    1   2.0000000   2.0000000   2.0000000   2.0000000   2.0000000   2.0000000
           13          14          15          16          17          18
    1   2.0000000   2.0000000   2.0000000   2.0000000   2.0000000   2.0000000
           19          20          21          22          23          24
    1   2.0000000   2.0000000   2.0000000   2.0000000   2.0000000   2.0000000
           25          26          27          28          29          30
    1   2.0000000   2.0000000   2.0000000   2.0000000   2.0000000   2.0000000
           31          32          33          34          35          36
    1   2.0000000   2.0000000   2.0000000   2.0000000   2.0000000   2.0000000
           37          38          39          40          41          42
    1   2.0000000   2.0000000   2.0000000   2.0000000   2.0000000   2.0000000
           43          44          45          46          47          48
    1   2.0000000   2.0000000   2.0000000   2.0000000   2.0000000   2.0000000
           49          50          51          52          53          54
    1   2.0000000   2.0000000   2.0000000   2.0000000   2.0000000   2.0000000
           55          56          57          58          59          60
    1   2.0000000   1.9999804   1.9999646   1.9999587   1.9998792   0.9979940
           61          62          63          64          65
    1   0.9979904   0.0020816   0.0020777   0.0000535   0.0000118

 Head-Gordon Nu:    2.00
 Head-Gordon Nu_nl: 2.00

  Amplitudes : 
  
 | HOLE  | ALPHA       | BETA        | PART  |    AMPLITUDE 
--------------------------------------------------
 |       | 11111100000 | 11110000000 |       |     9.9893727615866E-01
--------------------------------------------------
*** Contributions RASCI wfn    Active: 100.00
                                 Hole:   0.00
                                 Part:   0.00

      Mulliken population analysis 
 ---------------------------------------------------
   Atom    Charge (a.u.)   Spin (a.u.)  
 ---------------------------------------------------
   1  C    0.239901        0.031840 
   2  C   -0.369753        0.368679 
   3  H    0.122220        0.002117 
   4  C   -0.370368        0.368424 
   5  H    0.122218        0.002116 
   6  C    0.227141        0.034773 
   7  C   -0.229117        0.045216 
   8  H    0.123857        0.000243 
   9  C   -0.117239        0.032969 
  10  H    0.123525        0.000205 
  11  C   -0.117520        0.032960 
  12  H    0.123520        0.000205 
  13  C   -0.228484        0.045232 
  14  H    0.123914        0.000243 
  15  C    0.226293        0.034766 
  16  C    0.227089        0.034768 
  17  C   -0.229196        0.045239 
  18  H    0.123829        0.000243 
  19  C   -0.117018        0.032963 
  20  H    0.123537        0.000205 
  21  C   -0.117558        0.032971 
  22  H    0.123556        0.000206 
  23  C   -0.228757        0.045223 
  24  H    0.123881        0.000243 
  25  C    0.226739        0.034775 
  26  C   -0.370084        0.368479 
  27  H    0.122178        0.002116 
  28  C    0.238963        0.031840 
  29  C   -0.369560        0.368626 
  30  H    0.122294        0.002117 
 ---------------------------------------------------
   Sum:    0.000000        2.000000 
 ---------------------------------------------------
 
  
 NATURAL OCCUPATION NUMBERS (higher than 1.0E-05)
            1           2           3           4           5           6
    1   2.0000000   2.0000000   2.0000000   2.0000000   2.0000000   2.0000000
            7           8           9          10          11          12
    1   2.0000000   2.0000000   2.0000000   2.0000000   2.0000000   2.0000000
           13          14          15          16          17          18
    1   2.0000000   2.0000000   2.0000000   2.0000000   2.0000000   2.0000000
           19          20          21          22          23          24
    1   2.0000000   2.0000000   2.0000000   2.0000000   2.0000000   2.0000000
           25          26          27          28          29          30
    1   2.0000000   2.0000000   2.0000000   2.0000000   2.0000000   2.0000000
           31          32          33          34          35          36
    1   2.0000000   2.0000000   2.0000000   2.0000000   2.0000000   2.0000000
           37          38          39          40          41          42
    1   2.0000000   2.0000000   2.0000000   2.0000000   2.0000000   2.0000000
           43          44          45          46          47          48
    1   2.0000000   2.0000000   2.0000000   2.0000000   2.0000000   2.0000000
           49          50          51          52          53          54
    1   2.0000000   2.0000000   2.0000000   2.0000000   2.0000000   2.0000000
           55          56          57          58          59          60
    1   2.0000000   1.9999804   1.9999646   1.9999587   1.9998792   0.9979940
           61          62          63          64          65
    1   0.9979904   0.0020816   0.0020777   0.0000535   0.0000118
  
*** Unpaired Electrons
 Yamaguchi Nd:         2.01
 Head-Gordon Nu:       2.00
 Head-Gordon Nu_nl:    2.00
  
**************************************************
 RAS-CI total energy for state   2:   -688.668101832697
  Excitation energy (eV) =  3.993139356253
  State symmetry: A1  (C1       )
  <S^2>      :  2.0000
  Dipole Moment:    0.0007 X    -0.0000 Y    -0.0007 Z
  Trans. Moment:   -0.0006 X     0.0000 Y     0.0015 Z
  Strength   :  0.000000
  Natural transition orbitals ( 1 -> 2 ):
   e-/hole pair  1 alpha:  ampl =  0.986048 ( 97.2%)   [11 : 12]
   e-/hole pair  2 alpha:  ampl =  0.158827 (  2.5%)   [10 : 13]
   e-/hole pair  1 beta :  ampl =  0.001926 (  0.0%)   [11 : 12]
   e-/hole pair  2 beta :  ampl =  0.001124 (  0.0%)   [10 : 13]
   Sum of square amplitudes: 1.00

 NATURAL OCCUPATION NUMBERS (higher than 1.0E-05)
            1           2           3           4           5           6
    1   2.0000000   2.0000000   2.0000000   2.0000000   2.0000000   2.0000000
            7           8           9          10          11          12
    1   2.0000000   2.0000000   2.0000000   2.0000000   2.0000000   2.0000000
           13          14          15          16          17          18
    1   2.0000000   2.0000000   2.0000000   2.0000000   2.0000000   2.0000000
           19          20          21          22          23          24
    1   2.0000000   2.0000000   2.0000000   2.0000000   2.0000000   2.0000000
           25          26          27          28          29          30
    1   2.0000000   2.0000000   2.0000000   2.0000000   2.0000000   2.0000000
           31          32          33          34          35          36
    1   2.0000000   2.0000000   2.0000000   2.0000000   2.0000000   2.0000000
           37          38          39          40          41          42
    1   2.0000000   2.0000000   2.0000000   2.0000000   2.0000000   2.0000000
           43          44          45          46          47          48
    1   2.0000000   2.0000000   2.0000000   2.0000000   2.0000000   2.0000000
           49          50          51          52          53          54
    1   2.0000000   2.0000000   2.0000000   2.0000000   2.0000000   2.0000000
           55          56          57          58          59          60
    1   2.0000000   1.9999666   1.9999200   1.9999165   1.9996220   0.9747191
           61          62          63          64          65          66
    1   0.9746991   0.0257225   0.0253567   0.0000511   0.0000158   0.0000107

 Head-Gordon Nu:    2.00
 Head-Gordon Nu_nl: 2.00

  Amplitudes : 
  
 | HOLE  | ALPHA       | BETA        | PART  |    AMPLITUDE 
--------------------------------------------------
 |       | 11111001000 | 11110000000 |       |     9.8672249642826E-01
 |       | 11110110000 | 11110000000 |       |    -1.5898778601949E-01
--------------------------------------------------
*** Contributions RASCI wfn    Active: 100.00
                                 Hole:   0.00
                                 Part:   0.00

      Mulliken population analysis 
 ---------------------------------------------------
   Atom    Charge (a.u.)   Spin (a.u.)  
 ---------------------------------------------------
   1  C    0.184057        0.087406 
   2  C   -0.202785        0.200815 
   3  H    0.123297        0.001049 
   4  C   -0.203543        0.200703 
   5  H    0.123294        0.001048 
   6  C    0.156702        0.105859 
   7  C   -0.216817        0.033728 
   8  H    0.123949        0.000153 
   9  C   -0.197907        0.113725 
  10  H    0.122163        0.001040 
  11  C   -0.198161        0.113690 
  12  H    0.122160        0.001040 
  13  C   -0.216169        0.033728 
  14  H    0.124006        0.000153 
  15  C    0.155839        0.105867 
  16  C    0.156681        0.105829 
  17  C   -0.216876        0.033727 
  18  H    0.123921        0.000153 
  19  C   -0.197697        0.113721 
  20  H    0.122187        0.001041 
  21  C   -0.198170        0.113662 
  22  H    0.122206        0.001041 
  23  C   -0.216457        0.033731 
  24  H    0.123974        0.000153 
  25  C    0.156297        0.105869 
  26  C   -0.203229        0.200727 
  27  H    0.123256        0.001048 
  28  C    0.183065        0.087461 
  29  C   -0.202615        0.200784 
  30  H    0.123373        0.001049 
 ---------------------------------------------------
   Sum:    0.000000        2.000000 
 ---------------------------------------------------
 
  
 NATURAL OCCUPATION NUMBERS (higher than 1.0E-05)
            1           2           3           4           5           6
    1   2.0000000   2.0000000   2.0000000   2.0000000   2.0000000   2.0000000
            7           8           9          10          11          12
    1   2.0000000   2.0000000   2.0000000   2.0000000   2.0000000   2.0000000
           13          14          15          16          17          18
    1   2.0000000   2.0000000   2.0000000   2.0000000   2.0000000   2.0000000
           19          20          21          22          23          24
    1   2.0000000   2.0000000   2.0000000   2.0000000   2.0000000   2.0000000
           25          26          27          28          29          30
    1   2.0000000   2.0000000   2.0000000   2.0000000   2.0000000   2.0000000
           31          32          33          34          35          36
    1   2.0000000   2.0000000   2.0000000   2.0000000   2.0000000   2.0000000
           37          38          39          40          41          42
    1   2.0000000   2.0000000   2.0000000   2.0000000   2.0000000   2.0000000
           43          44          45          46          47          48
    1   2.0000000   2.0000000   2.0000000   2.0000000   2.0000000   2.0000000
           49          50          51          52          53          54
    1   2.0000000   2.0000000   2.0000000   2.0000000   2.0000000   2.0000000
           55          56          57          58          59          60
    1   2.0000000   1.9999666   1.9999200   1.9999165   1.9996220   0.9747191
           61          62          63          64          65          66
    1   0.9746991   0.0257225   0.0253567   0.0000511   0.0000158   0.0000107
  
*** Unpaired Electrons
 Yamaguchi Nd:         2.10
 Head-Gordon Nu:       2.00
 Head-Gordon Nu_nl:    2.00
  
**************************************************
 RAS-CI total energy for state   3:   -688.666127304365
  Excitation energy (eV) =  4.046869005834
  State symmetry: A1  (C1       )
  <S^2>      :  2.0000
  Dipole Moment:    0.0008 X     0.0000 Y    -0.0006 Z
  Trans. Moment:    2.9115 X     0.0001 Y     0.0000 Z
  Strength   :  0.840433
  Natural transition orbitals ( 1 -> 3 ):
   e-/hole pair  1 alpha:  ampl =  0.996735 ( 99.3%)   [11 : 12]
   e-/hole pair  2 alpha:  ampl =  0.062348 (  0.4%)   [10 : 13]
   e-/hole pair  1 beta :  ampl =  0.006026 (  0.0%)   [11 : 12]
   e-/hole pair  2 beta :  ampl =  0.003623 (  0.0%)   [10 : 13]
   Sum of square amplitudes: 1.00

 NATURAL OCCUPATION NUMBERS (higher than 1.0E-05)
            1           2           3           4           5           6
    1   2.0000000   2.0000000   2.0000000   2.0000000   2.0000000   2.0000000
            7           8           9          10          11          12
    1   2.0000000   2.0000000   2.0000000   2.0000000   2.0000000   2.0000000
           13          14          15          16          17          18
    1   2.0000000   2.0000000   2.0000000   2.0000000   2.0000000   2.0000000
           19          20          21          22          23          24
    1   2.0000000   2.0000000   2.0000000   2.0000000   2.0000000   2.0000000
           25          26          27          28          29          30
    1   2.0000000   2.0000000   2.0000000   2.0000000   2.0000000   2.0000000
           31          32          33          34          35          36
    1   2.0000000   2.0000000   2.0000000   2.0000000   2.0000000   2.0000000
           37          38          39          40          41          42
    1   2.0000000   2.0000000   2.0000000   2.0000000   2.0000000   2.0000000
           43          44          45          46          47          48
    1   2.0000000   2.0000000   2.0000000   2.0000000   2.0000000   2.0000000
           49          50          51          52          53          54
    1   2.0000000   2.0000000   2.0000000   2.0000000   2.0000000   2.0000000
           55          56          57          58          59          60
    1   2.0000000   1.9999658   1.9999159   1.9999105   1.9994649   0.9960953
           61          62          63          64          65          66
    1   0.9959907   0.0044637   0.0040263   0.0001160   0.0000372   0.0000137

 Head-Gordon Nu:    2.00
 Head-Gordon Nu_nl: 2.00

  Amplitudes : 
  
 | HOLE  | ALPHA       | BETA        | PART  |    AMPLITUDE 
--------------------------------------------------
 |       | 11111010000 | 11110000000 |       |     9.9739920069016E-01
--------------------------------------------------
*** Contributions RASCI wfn    Active: 100.00
                                 Hole:   0.00
                                 Part:   0.00

      Mulliken population analysis 
 ---------------------------------------------------
   Atom    Charge (a.u.)   Spin (a.u.)  
 ---------------------------------------------------
   1  C    0.192368        0.079056 
   2  C   -0.237870        0.235808 
   3  H    0.122888        0.001459 
   4  C   -0.238628        0.235697 
   5  H    0.122884        0.001459 
   6  C    0.229370        0.033196 
   7  C   -0.314226        0.131284 
   8  H    0.122905        0.001188 
   9  C   -0.141131        0.057307 
  10  H    0.122514        0.000298 
  11  C   -0.141478        0.057366 
  12  H    0.122509        0.000299 
  13  C   -0.313578        0.131284 
  14  H    0.122963        0.001188 
  15  C    0.228552        0.033159 
  16  C    0.229332        0.033184 
  17  C   -0.314261        0.131257 
  18  H    0.122878        0.001188 
  19  C   -0.140927        0.057311 
  20  H    0.122535        0.000300 
  21  C   -0.141494        0.057345 
  22  H    0.122554        0.000301 
  23  C   -0.313838        0.131258 
  24  H    0.122931        0.001188 
  25  C    0.228999        0.033173 
  26  C   -0.238326        0.235732 
  27  H    0.122846        0.001459 
  28  C    0.191483        0.079004 
  29  C   -0.237717        0.235793 
  30  H    0.122963        0.001459 
 ---------------------------------------------------
   Sum:    0.000000        2.000000 
 ---------------------------------------------------
 
  
 NATURAL OCCUPATION NUMBERS (higher than 1.0E-05)
            1           2           3           4           5           6
    1   2.0000000   2.0000000   2.0000000   2.0000000   2.0000000   2.0000000
            7           8           9          10          11          12
    1   2.0000000   2.0000000   2.0000000   2.0000000   2.0000000   2.0000000
           13          14          15          16          17          18
    1   2.0000000   2.0000000   2.0000000   2.0000000   2.0000000   2.0000000
           19          20          21          22          23          24
    1   2.0000000   2.0000000   2.0000000   2.0000000   2.0000000   2.0000000
           25          26          27          28          29          30
    1   2.0000000   2.0000000   2.0000000   2.0000000   2.0000000   2.0000000
           31          32          33          34          35          36
    1   2.0000000   2.0000000   2.0000000   2.0000000   2.0000000   2.0000000
           37          38          39          40          41          42
    1   2.0000000   2.0000000   2.0000000   2.0000000   2.0000000   2.0000000
           43          44          45          46          47          48
    1   2.0000000   2.0000000   2.0000000   2.0000000   2.0000000   2.0000000
           49          50          51          52          53          54
    1   2.0000000   2.0000000   2.0000000   2.0000000   2.0000000   2.0000000
           55          56          57          58          59          60
    1   2.0000000   1.9999658   1.9999159   1.9999105   1.9994649   0.9960953
           61          62          63          64          65          66
    1   0.9959907   0.0044637   0.0040263   0.0001160   0.0000372   0.0000137
  
*** Unpaired Electrons
 Yamaguchi Nd:         2.02
 Head-Gordon Nu:       2.00
 Head-Gordon Nu_nl:    2.00
  
**************************************************
 RAS-CI total energy for state   4:   -688.596386778348
  Excitation energy (eV) =  5.944605272556
  State symmetry: A1  (C1       )
  <S^2>      :  2.0000
  Dipole Moment:    0.0009 X    -0.0000 Y    -0.0005 Z
  Trans. Moment:    0.0001 X     0.0000 Y    -0.0041 Z
  Strength   :  0.000002
  Natural transition orbitals ( 1 -> 4 ):
   e-/hole pair  1 alpha:  ampl =  0.985668 ( 97.2%)   [11 : 12]
   e-/hole pair  2 alpha:  ampl =  0.158579 (  2.5%)   [10 : 13]
   e-/hole pair  1 beta :  ampl =  0.007486 (  0.0%)   [11 : 12]
   e-/hole pair  2 beta :  ampl =  0.006528 (  0.0%)   [10 : 13]
   Sum of square amplitudes: 1.00

 NATURAL OCCUPATION NUMBERS (higher than 1.0E-05)
            1           2           3           4           5           6
    1   2.0000000   2.0000000   2.0000000   2.0000000   2.0000000   2.0000000
            7           8           9          10          11          12
    1   2.0000000   2.0000000   2.0000000   2.0000000   2.0000000   2.0000000
           13          14          15          16          17          18
    1   2.0000000   2.0000000   2.0000000   2.0000000   2.0000000   2.0000000
           19          20          21          22          23          24
    1   2.0000000   2.0000000   2.0000000   2.0000000   2.0000000   2.0000000
           25          26          27          28          29          30
    1   2.0000000   2.0000000   2.0000000   2.0000000   2.0000000   2.0000000
           31          32          33          34          35          36
    1   2.0000000   2.0000000   2.0000000   2.0000000   2.0000000   2.0000000
           37          38          39          40          41          42
    1   2.0000000   2.0000000   2.0000000   2.0000000   2.0000000   2.0000000
           43          44          45          46          47          48
    1   2.0000000   2.0000000   2.0000000   2.0000000   2.0000000   2.0000000
           49          50          51          52          53          54
    1   2.0000000   2.0000000   2.0000000   2.0000000   2.0000000   2.0000000
           55          56          57          58          59          60
    1   2.0000000   1.9999678   1.9998781   1.9998310   1.9990955   0.9746214
           61          62          63          64          65          66
    1   0.9740533   0.0270137   0.0254182   0.0000854   0.0000197   0.0000159

 Head-Gordon Nu:    2.00
 Head-Gordon Nu_nl: 2.00

  Amplitudes : 
  
 | HOLE  | ALPHA       | BETA        | PART  |    AMPLITUDE 
--------------------------------------------------
 |       | 11111001000 | 11110000000 |       |     1.5869727973652E-01
 |       | 11110110000 | 11110000000 |       |     9.8666147113289E-01
--------------------------------------------------
*** Contributions RASCI wfn    Active: 100.00
                                 Hole:   0.00
                                 Part:   0.00

      Mulliken population analysis 
 ---------------------------------------------------
   Atom    Charge (a.u.)   Spin (a.u.)  
 ---------------------------------------------------
   1  C    0.186076        0.085320 
   2  C   -0.229932        0.227418 
   3  H    0.122829        0.001508 
   4  C   -0.230690        0.227308 
   5  H    0.122826        0.001507 
   6  C    0.227769        0.035078 
   7  C   -0.314667        0.131928 
   8  H    0.122937        0.001157 
   9  C   -0.144001        0.059869 
  10  H    0.122663        0.000446 
  11  C   -0.144303        0.059884 
  12  H    0.122660        0.000446 
  13  C   -0.314027        0.131935 
  14  H    0.122994        0.001157 
  15  C    0.226919        0.035074 
  16  C    0.227730        0.035069 
  17  C   -0.314710        0.131908 
  18  H    0.122909        0.001157 
  19  C   -0.143801        0.059876 
  20  H    0.122687        0.000447 
  21  C   -0.144313        0.059856 
  22  H    0.122706        0.000448 
  23  C   -0.314282        0.131904 
  24  H    0.122962        0.001157 
  25  C    0.227375        0.035078 
  26  C   -0.230375        0.227330 
  27  H    0.122788        0.001508 
  28  C    0.185134        0.085326 
  29  C   -0.229771        0.227395 
  30  H    0.122905        0.001508 
 ---------------------------------------------------
   Sum:    0.000000        2.000000 
 ---------------------------------------------------
 
  
 NATURAL OCCUPATION NUMBERS (higher than 1.0E-05)
            1           2           3           4           5           6
    1   2.0000000   2.0000000   2.0000000   2.0000000   2.0000000   2.0000000
            7           8           9          10          11          12
    1   2.0000000   2.0000000   2.0000000   2.0000000   2.0000000   2.0000000
           13          14          15          16          17          18
    1   2.0000000   2.0000000   2.0000000   2.0000000   2.0000000   2.0000000
           19          20          21          22          23          24
    1   2.0000000   2.0000000   2.0000000   2.0000000   2.0000000   2.0000000
           25          26          27          28          29          30
    1   2.0000000   2.0000000   2.0000000   2.0000000   2.0000000   2.0000000
           31          32          33          34          35          36
    1   2.0000000   2.0000000   2.0000000   2.0000000   2.0000000   2.0000000
           37          38          39          40          41          42
    1   2.0000000   2.0000000   2.0000000   2.0000000   2.0000000   2.0000000
           43          44          45          46          47          48
    1   2.0000000   2.0000000   2.0000000   2.0000000   2.0000000   2.0000000
           49          50          51          52          53          54
    1   2.0000000   2.0000000   2.0000000   2.0000000   2.0000000   2.0000000
           55          56          57          58          59          60
    1   2.0000000   1.9999678   1.9998781   1.9998310   1.9990955   0.9746214
           61          62          63          64          65          66
    1   0.9740533   0.0270137   0.0254182   0.0000854   0.0000197   0.0000159
  
*** Unpaired Electrons
 Yamaguchi Nd:         2.10
 Head-Gordon Nu:       2.00
 Head-Gordon Nu_nl:    2.00
  
**************************************************
 RAS-CI total energy for state   5:   -688.576228228822
  Excitation energy (eV) =  6.493147314107
  State symmetry: A1  (C1       )
  <S^2>      :  2.0000
  Dipole Moment:    0.0005 X    -0.0000 Y    -0.0007 Z
  Trans. Moment:   -2.5855 X     0.0001 Y    -0.0000 Z
  Strength   :  1.063455
  Natural transition orbitals ( 1 -> 5 ):
   e-/hole pair  1 alpha:  ampl =  0.996393 ( 99.3%)   [11 : 12]
   e-/hole pair  2 alpha:  ampl =  0.062660 (  0.4%)   [10 : 13]
   e-/hole pair  1 beta :  ampl =  0.006934 (  0.0%)   [11 : 12]
   e-/hole pair  2 beta :  ampl =  0.002831 (  0.0%)   [10 : 13]
   Sum of square amplitudes: 1.00

 NATURAL OCCUPATION NUMBERS (higher than 1.0E-05)
            1           2           3           4           5           6
    1   2.0000000   2.0000000   2.0000000   2.0000000   2.0000000   2.0000000
            7           8           9          10          11          12
    1   2.0000000   2.0000000   2.0000000   2.0000000   2.0000000   2.0000000
           13          14          15          16          17          18
    1   2.0000000   2.0000000   2.0000000   2.0000000   2.0000000   2.0000000
           19          20          21          22          23          24
    1   2.0000000   2.0000000   2.0000000   2.0000000   2.0000000   2.0000000
           25          26          27          28          29          30
    1   2.0000000   2.0000000   2.0000000   2.0000000   2.0000000   2.0000000
           31          32          33          34          35          36
    1   2.0000000   2.0000000   2.0000000   2.0000000   2.0000000   2.0000000
           37          38          39          40          41          42
    1   2.0000000   2.0000000   2.0000000   2.0000000   2.0000000   2.0000000
           43          44          45          46          47          48
    1   2.0000000   2.0000000   2.0000000   2.0000000   2.0000000   2.0000000
           49          50          51          52          53          54
    1   2.0000000   2.0000000   2.0000000   2.0000000   2.0000000   2.0000000
           55          56          57          58          59          60
    1   2.0000000   1.9999646   1.9998819   1.9998737   1.9990580   0.9959634
           61          62          63          64          65          66
    1   0.9952840   0.0056955   0.0040497   0.0001726   0.0000438   0.0000128

 Head-Gordon Nu:    2.00
 Head-Gordon Nu_nl: 2.00

  Amplitudes : 
  
 | HOLE  | ALPHA       | BETA        | PART  |    AMPLITUDE 
--------------------------------------------------
 |       | 11110101000 | 11110000000 |       |     9.9737452184876E-01
--------------------------------------------------
*** Contributions RASCI wfn    Active: 100.00
                                 Hole:   0.00
                                 Part:   0.00

      Mulliken population analysis 
 ---------------------------------------------------
   Atom    Charge (a.u.)   Spin (a.u.)  
 ---------------------------------------------------
[...]
  52    C 10  f     0.00249   0.00380   0.00018   0.00023   0.00003   0.00380
  53    C 11  s     0.00000   0.00124   0.00085   0.00123   0.00011   0.00000
  54    C 11  p     0.18904   0.10455   0.11130   0.07309   0.08653   0.03591
  55    C 11  d     0.00113   0.00379   0.00559   0.04050   0.00448   0.00655
  56    C 11  f     0.00023   0.00035   0.00081   0.00009   0.00079   0.00031
  57    H 7   s     0.00000   0.00623   0.00001   0.06794   0.00004   0.00000
  58    H 7   p     0.00348   0.00151   0.00148   0.00058   0.00116   0.00086
  59    C 12  s     0.00000   0.00019   0.00082   0.00012   0.00048   0.00000
  60    C 12  p     0.05856   0.10230   0.12624   0.07308   0.06450   0.02430
  61    C 12  d     0.02372   0.00140   0.04231   0.01214   0.02517   0.00804
  62    C 12  f     0.00219   0.00068   0.00062   0.00058   0.00011   0.00063
  63    H 8   s     0.00000   0.00001   0.08013   0.01518   0.04163   0.00000
  64    H 8   p     0.00107   0.00143   0.00164   0.00092   0.00070   0.00054
  65    C 13  s     0.00000   0.00019   0.00082   0.00012   0.00048   0.00000
  66    C 13  p     0.05851   0.10229   0.12624   0.07308   0.06450   0.02431
  67    C 13  d     0.02372   0.00140   0.04231   0.01213   0.02517   0.00803
  68    C 13  f     0.00219   0.00068   0.00062   0.00058   0.00011   0.00063
  69    H 9   s     0.00000   0.00001   0.08012   0.01517   0.04163   0.00000
  70    H 9   p     0.00107   0.00143   0.00164   0.00092   0.00070   0.00054
  71    C 14  s     0.00000   0.00125   0.00085   0.00122   0.00011   0.00000
  72    C 14  p     0.18907   0.10454   0.11131   0.07308   0.08654   0.03590
  73    C 14  d     0.00113   0.00380   0.00559   0.04050   0.00448   0.00655
  74    C 14  f     0.00023   0.00035   0.00081   0.00009   0.00079   0.00031
  75    H 10  s     0.00000   0.00623   0.00001   0.06794   0.00004   0.00000
  76    H 10  p     0.00348   0.00151   0.00148   0.00058   0.00116   0.00086
  77    C 15  s     0.00000   0.00056   0.00103   0.00007   0.00006   0.00000
  78    C 15  p     0.01132   0.07141   0.06698   0.12270   0.08432   0.02394
  79    C 15  d     0.02658   0.00820   0.01863   0.01691   0.02603   0.03742
  80    C 15  f     0.00249   0.00381   0.00018   0.00023   0.00003   0.00379
  81    C 16  s     0.00000   0.00122   0.00409   0.00043   0.00000   0.00000
  82    C 16  p     0.08891   0.08100   0.02768   0.03770   0.10360   0.30890
  83    C 16  d     0.01415   0.01388   0.00327   0.01270   0.00602   0.00194
  84    C 16  f     0.00074   0.00217   0.00021   0.00080   0.00090   0.00017
  85    H 11  s     0.00000   0.03214   0.00065   0.02045   0.00026   0.00000
  86    H 11  p     0.00163   0.00135   0.00027   0.00032   0.00133   0.00692
  87    C 17  s     0.00000   0.00000   0.00166   0.00000   0.00000   0.00000
  88    C 17  p     0.11992   0.11636   0.00316   0.00041   0.07871   0.00000
  89    C 17  d     0.02748   0.00439   0.00546   0.00295   0.02467   0.07197
  90    C 17  f     0.00216   0.00069   0.00004   0.00092   0.00019   0.00751
  91    C 18  s     0.00000   0.00122   0.00409   0.00043   0.00000   0.00000
  92    C 18  p     0.08890   0.08099   0.02768   0.03773   0.10357   0.30901
  93    C 18  d     0.01414   0.01388   0.00327   0.01272   0.00602   0.00194
  94    C 18  f     0.00074   0.00217   0.00021   0.00080   0.00090   0.00017
  95    H 12  s     0.00000   0.03213   0.00065   0.02048   0.00026   0.00000
  96    H 12  p     0.00163   0.00135   0.00027   0.00032   0.00133   0.00692
                        61
   1    C 1   s     0.00000
   2    C 1   p     0.00000
   3    C 1   d     0.09878
   4    C 1   f     0.00487
   5    C 2   s     0.00000
   6    C 2   p     0.27933
   7    C 2   d     0.00279
   8    C 2   f     0.00137
   9    H 1   s     0.00000
  10    H 1   p     0.00704
  11    C 3   s     0.00000
  12    C 3   p     0.27914
  13    C 3   d     0.00279
  14    C 3   f     0.00137
  15    H 2   s     0.00000
  16    H 2   p     0.00703
  17    C 4   s     0.00000
  18    C 4   p     0.01890
  19    C 4   d     0.04998
  20    C 4   f     0.00329
  21    C 5   s     0.00000
  22    C 5   p     0.03808
  23    C 5   d     0.00669
  24    C 5   f     0.00092
  25    H 3   s     0.00000
  26    H 3   p     0.00083
  27    C 6   s     0.00000
  28    C 6   p     0.02630
  29    C 6   d     0.01114
  30    C 6   f     0.00074
  31    H 4   s     0.00000
  32    H 4   p     0.00087
  33    C 7   s     0.00000
  34    C 7   p     0.02629
  35    C 7   d     0.01114
  36    C 7   f     0.00074
  37    H 5   s     0.00000
  38    H 5   p     0.00087
  39    C 8   s     0.00000
  40    C 8   p     0.03809
  41    C 8   d     0.00669
  42    C 8   f     0.00092
  43    H 6   s     0.00000
  44    H 6   p     0.00083
  45    C 9   s     0.00000
  46    C 9   p     0.01889
  47    C 9   d     0.05000
  48    C 9   f     0.00329
  49    C 10  s     0.00000
  50    C 10  p     0.01889
  51    C 10  d     0.05001
  52    C 10  f     0.00329
  53    C 11  s     0.00000
  54    C 11  p     0.03810
  55    C 11  d     0.00669
  56    C 11  f     0.00092
  57    H 7   s     0.00000
  58    H 7   p     0.00083
  59    C 12  s     0.00000
  60    C 12  p     0.02629
  61    C 12  d     0.01114
  62    C 12  f     0.00074
  63    H 8   s     0.00000
  64    H 8   p     0.00087
  65    C 13  s     0.00000
  66    C 13  p     0.02630
  67    C 13  d     0.01114
  68    C 13  f     0.00074
  69    H 9   s     0.00000
  70    H 9   p     0.00087
  71    C 14  s     0.00000
  72    C 14  p     0.03808
  73    C 14  d     0.00669
  74    C 14  f     0.00092
  75    H 10  s     0.00000
  76    H 10  p     0.00083
  77    C 15  s     0.00000
  78    C 15  p     0.01890
  79    C 15  d     0.04999
  80    C 15  f     0.00329
  81    C 16  s     0.00000
  82    C 16  p     0.27917
  83    C 16  d     0.00279
  84    C 16  f     0.00137
  85    H 11  s     0.00000
  86    H 11  p     0.00703
  87    C 17  s     0.00000
  88    C 17  p     0.00000
  89    C 17  d     0.09878
  90    C 17  f     0.00487
  91    C 18  s     0.00000
  92    C 18  p     0.27929
  93    C 18  d     0.00279
  94    C 18  f     0.00137
  95    H 12  s     0.00000
  96    H 12  p     0.00703
 
 -----------------------------------------------------------------
                    Cartesian Multipole Moments
 -----------------------------------------------------------------
    Charge (ESU x 10^10)
                 0.0000
    Dipole Moment (Debye)
         X      -0.0001      Y      -0.0000      Z      -0.0011
       Tot       0.0011
    Quadrupole Moments (Debye-Ang)
        XX     -92.5335     XY       0.0001     YY     -90.7394
        XZ      -0.0007     YZ       0.0001     ZZ    -114.9359
    Octopole Moments (Debye-Ang^2)
       XXX       0.0011    XXY      -0.0005    XYY      -0.0001
       YYY      -0.0001    XXZ      -0.0776    XYZ      -0.3150
       YYZ       0.0012    XZZ      -0.0001    YZZ      -0.0001
       ZZZ       0.0002
    Hexadecapole Moments (Debye-Ang^3)
      XXXX   -5934.2865   XXXY      -0.0045   XXYY   -1137.9448
      XYYY       0.0005   YYYY    -881.4921   XXXZ      -0.0364
      XXYZ       0.0076   XYYZ       0.0001   YYYZ      -0.0003
      XXZZ   -1278.9630   XYZZ       0.0008   YYZZ    -209.9486
      XZZZ      -0.0008   YZZZ       0.0001   ZZZZ    -138.6103
 -----------------------------------------------------------------
 Mayer SCF Bond Order, atomic valence on the diagonal:

            1           2           3           4           5           6
    1   3.8295784   1.3805993  -0.0194492   1.3816068  -0.0194266  -0.0341645
    2   1.3805993   3.6238193   0.9906943   0.1132747   0.0081833   0.0166553
    3  -0.0194492   0.9906943   0.9766133   0.0081760   0.0027904   0.0008988
    4   1.3816068   0.1132747   0.0081760   3.6246863   0.9907246   1.0813574
    5  -0.0194266   0.0081833   0.0027904   0.9907246   0.9766318  -0.0274173
    6  -0.0341645   0.0166553   0.0008988   1.0813574  -0.0274173   3.7763452
    7   0.0227233   0.0157959   0.0000663  -0.0127975   0.0031294   1.4001018
    8   0.0010229  -0.0000420   0.0000545   0.0085651   0.0022905  -0.0285893
    9  -0.0018623   0.0019834   0.0000353   0.0136952   0.0001604  -0.0053492
   10   0.0001138   0.0000501   0.0000005   0.0005225   0.0000082   0.0057394
   11   0.0124162   0.0110602   0.0000665   0.0038687  -0.0001515   0.0437790
   12   0.0000452   0.0000822   0.0000009   0.0003410   0.0000177   0.0007618
   13  -0.0051725   0.0070945   0.0000511   0.0149732   0.0006375  -0.0188044
   14  -0.0004287   0.0000920  -0.0000067   0.0008856   0.0002867   0.0060649
   15   0.0160986   0.0005521  -0.0000116  -0.0197029   0.0062956   1.3266599
   16  -0.0341283   1.0816968  -0.0273962   0.0166207   0.0009037  -0.0008129
   17   0.0226763  -0.0127081   0.0031517   0.0158068   0.0000641   0.0006844
   18   0.0010288   0.0085557   0.0022897  -0.0000399   0.0000547   0.0001423
   19  -0.0018268   0.0136279   0.0001565   0.0019757   0.0000362   0.0008022
   20   0.0001123   0.0005263   0.0000086   0.0000491   0.0000005   0.0000236
   21   0.0123890   0.0039009  -0.0001497   0.0110627   0.0000658  -0.0000258
   22   0.0000437   0.0003425   0.0000178   0.0000830   0.0000009   0.0000082
   23  -0.0051466   0.0149667   0.0006346   0.0070830   0.0000515   0.0012605
   24  -0.0004252   0.0008866   0.0002860   0.0000908  -0.0000067  -0.0000208
   25   0.0159599  -0.0195633   0.0063047   0.0005654  -0.0000125   0.0035519
   26  -0.0265539  -0.0226359   0.0000925   0.0341811   0.0006546   0.0006827
   27   0.0068291   0.0000897   0.0001041   0.0006538   0.0002722  -0.0000078
   28   1.1247922  -0.0267790   0.0068189  -0.0264961   0.0068233   0.0156327
   29  -0.0270943   0.0341797   0.0006548  -0.0225337   0.0000897  -0.0195526
   30   0.0067997   0.0006575   0.0002722   0.0000935   0.0001049   0.0062831
            7           8           9          10          11          12
    1   0.0227233   0.0010229  -0.0018623   0.0001138   0.0124162   0.0000452
    2   0.0157959  -0.0000420   0.0019834   0.0000501   0.0110602   0.0000822
    3   0.0000663   0.0000545   0.0000353   0.0000005   0.0000665   0.0000009
    4  -0.0127975   0.0085651   0.0136952   0.0005225   0.0038687   0.0003410
    5   0.0031294   0.0022905   0.0001604   0.0000082  -0.0001515   0.0000177
    6   1.4001018  -0.0285893  -0.0053492   0.0057394   0.0437790   0.0007618
    7   3.9303305   0.9834358   1.4265941  -0.0139783   0.0458284   0.0057092
    8   0.9834358   0.9717150  -0.0093039  -0.0003506   0.0062363   0.0006598
    9   1.4265941  -0.0093039   3.9278454   0.9845636   1.4027077  -0.0121079
   10  -0.0139783  -0.0003506   0.9845636   0.9720325  -0.0121094  -0.0002022
   11   0.0458284   0.0062363   1.4027077  -0.0121094   3.9283907   0.9845536
   12   0.0057092   0.0006598  -0.0121079  -0.0002022   0.9845536   0.9720392
   13   0.0474114   0.0006329   0.0456880   0.0057068   1.4267374  -0.0139698
   14   0.0006330   0.0000229   0.0062285   0.0006608  -0.0092547  -0.0003481
   15  -0.0184425   0.0060765   0.0436360   0.0007606  -0.0050952   0.0057434
   16   0.0006834   0.0001444   0.0008083   0.0000228  -0.0000284   0.0000083
   17   0.0018773  -0.0000005   0.0003446   0.0000029   0.0014636   0.0000137
   18  -0.0000003   0.0000046   0.0000077   0.0000001   0.0000086   0.0000003
   19   0.0003464   0.0000076   0.0009827   0.0000075   0.0002212   0.0000020
   20   0.0000032   0.0000001   0.0000074   0.0000002   0.0000021   0.0000002
   21   0.0014656   0.0000086   0.0002180   0.0000019   0.0009820   0.0000075
   22   0.0000135   0.0000003   0.0000021   0.0000002   0.0000074   0.0000002
   23   0.0009024   0.0000235   0.0014678   0.0000138   0.0003456   0.0000030
   24   0.0000237   0.0000013   0.0000086   0.0000003   0.0000077   0.0000001
   25   0.0012574  -0.0000213  -0.0000155   0.0000086   0.0007931   0.0000233
   26   0.0070255   0.0000865   0.0111015   0.0000831   0.0019283   0.0000491
   27   0.0000499  -0.0000067   0.0000656   0.0000009   0.0000370   0.0000005
   28  -0.0050021  -0.0004176   0.0122811   0.0000439  -0.0017969   0.0001167
   29   0.0148372   0.0008856   0.0040452   0.0003426   0.0136146   0.0005194
   30   0.0006372   0.0002869  -0.0001487   0.0000175   0.0001619   0.0000080
           13          14          15          16          17          18
    1  -0.0051725  -0.0004287   0.0160986  -0.0341283   0.0226763   0.0010288
    2   0.0070945   0.0000920   0.0005521   1.0816968  -0.0127081   0.0085557
    3   0.0000511  -0.0000067  -0.0000116  -0.0273962   0.0031517   0.0022897
    4   0.0149732   0.0008856  -0.0197029   0.0166207   0.0158068  -0.0000399
    5   0.0006375   0.0002867   0.0062956   0.0009037   0.0000641   0.0000547
    6  -0.0188044   0.0060649   1.3266599  -0.0008129   0.0006844   0.0001423
    7   0.0474114   0.0006330  -0.0184425   0.0006834   0.0018773  -0.0000003
    8   0.0006329   0.0000229   0.0060765   0.0001444  -0.0000005   0.0000046
    9   0.0456880   0.0062285   0.0436360   0.0008083   0.0003446   0.0000077
   10   0.0057068   0.0006608   0.0007606   0.0000228   0.0000029   0.0000001
   11   1.4267374  -0.0092547  -0.0050952  -0.0000284   0.0014636   0.0000086
   12  -0.0139698  -0.0003481   0.0057434   0.0000083   0.0000137   0.0000003
   13   3.9298673   0.9833162   1.3999863   0.0012678   0.0008993   0.0000227
   14   0.9833162   0.9716811  -0.0285327  -0.0000192   0.0000228   0.0000012
   15   1.3999863  -0.0285327   3.7775685   0.0035174   0.0012615  -0.0000194
   16   0.0012678  -0.0000192   0.0035174   3.7768647   1.3995831  -0.0285721
   17   0.0008993   0.0000228   0.0012615   1.3995831   3.9302244   0.9834488
   18   0.0000227   0.0000012  -0.0000194  -0.0285721   0.9834488   0.9717521
   19   0.0014692   0.0000090  -0.0000144  -0.0054416   1.4267899  -0.0092884
   20   0.0000137   0.0000003   0.0000080   0.0057349  -0.0139485  -0.0003490
   21   0.0003404   0.0000072   0.0007952   0.0436391   0.0460270   0.0062367
   22   0.0000031   0.0000001   0.0000235   0.0007582   0.0057069   0.0006606
   23   0.0018864   0.0000003   0.0006917  -0.0186112   0.0473211   0.0006332
   24  -0.0000008   0.0000046   0.0001426   0.0060653   0.0006318   0.0000229
   25   0.0006911   0.0001405  -0.0007999   1.3271992  -0.0184874   0.0060675
   26   0.0158564  -0.0000386   0.0165064  -0.0196280   0.0148820   0.0008862
   27   0.0000623   0.0000541   0.0008954   0.0063032   0.0006391   0.0002871
   28   0.0226728   0.0010254  -0.0338526   0.0158904  -0.0050386  -0.0004208
   29  -0.0127368   0.0085698   1.0817620   0.0006641   0.0070582   0.0000892
   30   0.0031309   0.0022839  -0.0273730  -0.0000085   0.0000504  -0.0000067
           19          20          21          22          23          24
    1  -0.0018268   0.0001123   0.0123890   0.0000437  -0.0051466  -0.0004252
    2   0.0136279   0.0005263   0.0039009   0.0003425   0.0149667   0.0008866
    3   0.0001565   0.0000086  -0.0001497   0.0000178   0.0006346   0.0002860
    4   0.0019757   0.0000491   0.0110627   0.0000830   0.0070830   0.0000908
    5   0.0000362   0.0000005   0.0000658   0.0000009   0.0000515  -0.0000067
    6   0.0008022   0.0000236  -0.0000258   0.0000082   0.0012605  -0.0000208
    7   0.0003464   0.0000032   0.0014656   0.0000135   0.0009024   0.0000237
    8   0.0000076   0.0000001   0.0000086   0.0000003   0.0000235   0.0000013
    9   0.0009827   0.0000074   0.0002180   0.0000021   0.0014678   0.0000086
   10   0.0000075   0.0000002   0.0000019   0.0000002   0.0000138   0.0000003
   11   0.0002212   0.0000021   0.0009820   0.0000074   0.0003456   0.0000077
   12   0.0000020   0.0000002   0.0000075   0.0000002   0.0000030   0.0000001
   13   0.0014692   0.0000137   0.0003404   0.0000031   0.0018864  -0.0000008
   14   0.0000090   0.0000003   0.0000072   0.0000001   0.0000003   0.0000046
   15  -0.0000144   0.0000080   0.0007952   0.0000235   0.0006917   0.0001426
   16  -0.0054416   0.0057349   0.0436391   0.0007582  -0.0186112   0.0060653
   17   1.4267899  -0.0139485   0.0460270   0.0057069   0.0473211   0.0006318
   18  -0.0092884  -0.0003490   0.0062367   0.0006606   0.0006332   0.0000229
   19   3.9282062   0.9845020   1.4029155  -0.0120571   0.0455730   0.0062272
   20   0.9845020   0.9720239  -0.0120882  -0.0001991   0.0057065   0.0006612
   21   1.4029155  -0.0120882   3.9284070   0.9844553   1.4266606  -0.0092661
   22  -0.0120571  -0.0001991   0.9844553   0.9720382  -0.0139194  -0.0003460
   23   0.0455730   0.0057065   1.4266606  -0.0139194   3.9301173   0.9833510
   24   0.0062272   0.0006612  -0.0092661  -0.0003460   0.9833510   0.9717123
   25   0.0438933   0.0007626  -0.0052432   0.0057382   1.4003517  -0.0285128
   26   0.0039911   0.0003392   0.0136677   0.0005187  -0.0128478   0.0085511
   27  -0.0001491   0.0000171   0.0001611   0.0000081   0.0031098   0.0022816
   28   0.0123034   0.0000453  -0.0018213   0.0001181   0.0227134   0.0010316
   29   0.0110781   0.0000836   0.0019568   0.0000489   0.0158281  -0.0000395
   30   0.0000658   0.0000009   0.0000367   0.0000005   0.0000634   0.0000542
           25          26          27          28          29          30
    1   0.0159599  -0.0265539   0.0068291   1.1247922  -0.0270943   0.0067997
    2  -0.0195633  -0.0226359   0.0000897  -0.0267790   0.0341797   0.0006575
    3   0.0063047   0.0000925   0.0001041   0.0068189   0.0006548   0.0002722
    4   0.0005654   0.0341811   0.0006538  -0.0264961  -0.0225337   0.0000935
    5  -0.0000125   0.0006546   0.0002722   0.0068233   0.0000897   0.0001049
    6   0.0035519   0.0006827  -0.0000078   0.0156327  -0.0195526   0.0062831
    7   0.0012574   0.0070255   0.0000499  -0.0050021   0.0148372   0.0006372
    8  -0.0000213   0.0000865  -0.0000067  -0.0004176   0.0008856   0.0002869
    9  -0.0000155   0.0111015   0.0000656   0.0122811   0.0040452  -0.0001487
   10   0.0000086   0.0000831   0.0000009   0.0000439   0.0003426   0.0000175
   11   0.0007931   0.0019283   0.0000370  -0.0017969   0.0136146   0.0001619
   12   0.0000233   0.0000491   0.0000005   0.0001167   0.0005194   0.0000080
   13   0.0006911   0.0158564   0.0000623   0.0226728  -0.0127368   0.0031309
   14   0.0001405  -0.0000386   0.0000541   0.0010254   0.0085698   0.0022839
   15  -0.0007999   0.0165064   0.0008954  -0.0338526   1.0817620  -0.0273730
   16   1.3271992  -0.0196280   0.0063032   0.0158904   0.0006641  -0.0000085
   17  -0.0184874   0.0148820   0.0006391  -0.0050386   0.0070582   0.0000504
   18   0.0060675   0.0008862   0.0002871  -0.0004208   0.0000892  -0.0000067
   19   0.0438933   0.0039911  -0.0001491   0.0123034   0.0110781   0.0000658
   20   0.0007626   0.0003392   0.0000171   0.0000453   0.0000836   0.0000009
   21  -0.0052432   0.0136677   0.0001611  -0.0018213   0.0019568   0.0000367
   22   0.0057382   0.0005187   0.0000081   0.0001181   0.0000489   0.0000005
   23   1.4003517  -0.0128478   0.0031098   0.0227134   0.0158281   0.0000634
   24  -0.0285128   0.0085511   0.0022816   0.0010316  -0.0000395   0.0000542
   25   3.7779854   1.0813943  -0.0274684  -0.0340653   0.0165658   0.0009066
   26   1.0813943   3.6237394   0.9908896   1.3807273   0.1131651   0.0081838
   27  -0.0274684   0.9908896   0.9766070  -0.0195447   0.0081842   0.0027881
   28  -0.0340653   1.3807273  -0.0195447   3.8297825   1.3813483  -0.0193674
   29   0.0165658   0.1131651   0.0081842   1.3813483   3.6242086   0.9905942
   30   0.0009066   0.0081838   0.0027881  -0.0193674   0.9905942   0.9765773


 Total job time:  30776.44s(wall), 25869.22s(cpu) 
 Fri Dec  1 22:56:19 2023

        *************************************************************
        *                                                           *
        *  Thank you very much for using Q-Chem.  Have a nice day.  *
        *                                                           *
        *************************************************************


