                  Welcome to Q-Chem
     A Quantum Leap Into The Future Of Chemistry


 Q-Chem 6.0 (devel), Q-Chem, Inc., Pleasanton, CA (2022)

 E. Epifanovsky,  A. T. B. Gilbert,  Xintian Feng,  Joonho Lee,  Yuezhi Mao,  
 N. Mardirossian,  P. Pokhilko,  A. White,  M. Wormit,  M. P. Coons,  
 A. L. Dempwolff,  Zhengting Gan,  D. Hait,  P. R. Horn,  L. D. Jacobson,  
 I. Kaliman,  J. Kussmann,  A. W. Lange,  Ka Un Lao,  D. S. Levine,  Jie Liu,  
 S. C. McKenzie,  A. F. Morrison,  K. Nanda,  F. Plasser,  D. R. Rehn,  
 M. L. Vidal,  Zhi-Qiang You,  Ying Zhu,  B. Alam,  B. Albrecht,  
 A. Aldossary,  E. Alguire,  J. H. Andersen,  V. Athavale,  D. Barton,  
 K. Begam,  A. Behn,  N. Bellonzi,  Y. A. Bernard,  E. J. Berquist,  
 H. Burton,  A. Carreras,  K. Carter-Fenk,  Romit Chakraborty,  
 Chandrima Chakravarty,  Junhan Chen,  A. D. Chien,  K. D. Closser,  
 V. Cofer-Shabica,  L. Cunha,  S. Dasgupta,  Jia Deng,  M. de Wergifosse,  
 M. Diedenhofen,  Hainam Do,  S. Ehlert,  Po-Tung Fang,  S. Fatehi,  
 Qingguo Feng,  T. Friedhoff,  B. Ganoe,  J. Gayvert,  Qinghui Ge,  
 G. Gidofalvi,  M. Goldey,  J. Gomes,  C. Gonzalez-Espinoza,  S. Gulania,  
 A. Gunina,  J. A. Gyamfi,  M. W. D. Hanson-Heine,  P. H. P. Harbach,  
 A. W. Hauser,  M. F. Herbst,  M. Hernandez Vera,  M. Hodecker,  
 Z. C. Holden,  S. Houck,  Xunkun Huang,  Kerwin Hui,  B. C. Huynh,  
 K. Ikeda,  M. Ivanov,  Hyunjun Ji,  Zuxin Jin,  Hanjie Jiang,  B. Kaduk,  
 S. Kaehler,  R. Kang,  K. Khistyaev,  Jaehoon Kim,  Yongbin Kim,  
 P. Klunzinger,  Z. Koczor-Benda,  Joong Hoon Koh,  D. Kosenkov,  
 Saikiran Kotaru,  L. Koulias,  T. Kowalczyk,  C. M. Krauter,  K. Kue,  
 A. Kunitsa,  T. Kus,  A. Landau,  K. V. Lawler,  D. Lefrancois,  S. Lehtola,  
 Rain Li,  Shaozhi Li,  Yi-Pei Li,  Jiashu Liang,  M. Liebenthal,  
 Hung-Hsuan Lin,  You-Sheng Lin,  Fenglai Liu,  Kuan-Yu Liu,  
 M. Loipersberger,  A. Luenser,  C. Malbon,  A. Manjanath,  P. Manohar,  
 E. Mansoor,  S. F. Manzer,  Shan-Ping Mao,  A. V. Marenich,  T. Markovich,  
 S. Mason,  F. Matz,  S. A. Maurer,  P. F. McLaughlin,  M. F. S. J. Menger,  
 J.-M. Mewes,  S. A. Mewes,  P. Morgante,  Mohammad Mostafanejad,  
 J. W. Mullinax,  K. J. Oosterbaan,  G. Paran,  V. Parravicini,  
 Alexander C. Paul,  Suranjan K. Paul,  F. Pavosevic,  Zheng Pei,  S. Prager,  
 E. I. Proynov,  E. Ramos,  B. Rana,  A. E. Rask,  A. Rettig,  R. M. Richard,  
 F. Rob,  E. Rossomme,  T. Scheele,  M. Scheurer,  M. Schneider,  
 P. E. Schneider,  N. Sergueev,  S. M. Sharada,  Hengyuan Shen,  
 W. Skomorowski,  D. W. Small,  C. J. Stein,  Yingli Su,  Yu-Chuan Su,  
 E. J. Sundstrom,  Zhen Tao,  J. Thirman,  Hung-Yi Tsai,  T. Tsuchimochi,  
 N. M. Tubman,  C. Utku,  S. P. Veccham,  O. Vydrov,  J. Wenzel,  
 Jonathan Wong,  J. Witte,  A. Yamada,  Chou-Hsun Yang,  Kun Yao,  
 S. Yeganeh,  S. R. Yost,  A. Zech,  F. Zeller,  Igor Ying Zhang,  
 Xing Zhang,  Yu Zhang,  D. Zuev,  A. Aspuru-Guzik,  A. T. Bell,  
 N. A. Besley,  K. B. Bravaya,  B. R. Brooks,  D. Casanova,  Jeng-Da Chai,  
 Hsing-Ta Chen,  S. Coriani,  C. J. Cramer,  A. E. DePrince, III,  
 R. A. DiStasio Jr.,  A. Dreuw,  B. D. Dunietz,  T. R. Furlani,  
 W. A. Goddard III,  S. Grimme,  S. Hammes-Schiffer,  T. Head-Gordon,  
 W. J. Hehre,  Chao-Ping Hsu,  T.-C. Jagau,  Yousung Jung,  A. Klamt,  
 Jing Kong,  D. S. Lambrecht,  Xiangyuan Li,  WanZhen Liang,  N. J. Mayhall,  
 C. W. McCurdy,  J. B. Neaton,  T. Neudecker,  C. Ochsenfeld,  
 J. A. Parkhill,  R. Peverati,  V. A. Rassolov,  Haisheng Ren,  Yihan Shao,  
 L. V. Slipchenko,  R. P. Steele,  J. E. Subotnik,  A. J. W. Thom,  
 A. Tkatchenko,  D. G. Truhlar,  T. Van Voorhis,  Fan Wang,  
 T. A. Wesolowski,  K. B. Whaley,  H. L. Woodcock III,  P. M. Zimmerman,  
 S. Faraji,  P. M. W. Gill,  M. Head-Gordon,  J. M. Herbert,  A. I. Krylov

 Contributors to earlier versions of Q-Chem not listed above: 
 R. D. Adamson,  B. Austin,  R. Baer,  J. Baker,  G. J. O. Beran,  
 K. Brandhorst,  S. T. Brown,  E. F. C. Byrd,  Arup K. Chakraborty,  
 G. K. L. Chan,  Chun-Min Chang,  Yunqing Chen,  C.-L. Cheng,  
 Siu Hung Chien,  D. M. Chipman,  D. L. Crittenden,  H. Dachsel,  
 R. J. Doerksen,  A. D. Dutoi,  R. G. Edgar,  J. Fosso-Tande,  
 L. Fusti-Molnar,  D. Ghosh,  A. Ghysels,  A. Golubeva-Zadorozhnaya,  
 J. Gonthier,  M. S. Gordon,  S. R. Gwaltney,  G. Hawkins,  J. E. Herr,  
 A. Heyden,  S. Hirata,  E. G. Hohenstein,  G. Kedziora,  F. J. Keil,  
 C. Kelley,  Jihan Kim,  R. A. King,  R. Z. Khaliullin,  P. P. Korambath,  
 W. Kurlancheek,  A. Laurent,  A. M. Lee,  M. S. Lee,  S. V. Levchenko,  
 Ching Yeh Lin,  D. Liotard,  E. Livshits,  R. C. Lochan,  I. Lotan,  
 L. A. Martinez-Martinez,  P. E. Maslen,  N. Nair,  D. P. O'Neill,  
 D. Neuhauser,  E. Neuscamman,  C. M. Oana,  R. Olivares-Amaya,  R. Olson,  
 T. M. Perrine,  B. Peters,  P. A. Pieniazek,  A. Prociuk,  Y. M. Rhee,  
 J. Ritchie,  M. A. Rohrdanz,  E. Rosta,  N. J. Russ,  H. F. Schaefer III,  
 M. W. Schmidt,  N. E. Schultz,  S. Sharma,  N. Shenvi,  C. D. Sherrill,  
 A. C. Simmonett,  A. Sodt,  T. Stein,  D. Stuck,  K. S. Thanthiriwatte,  
 V. Vanovschi,  L. Vogt,  Tao Wang,  A. Warshel,  M. A. Watson,  
 C. F. Williams,  Q. Wu,  X. Xu,  Jun Yang,  W. Zhang,  Yan Zhao

   Please cite Q-Chem as follows:
  "Software for the frontiers of quantum chemistry:
   An overview of developments in the Q-Chem 5 package"
   J. Chem. Phys. 155, 084801 (2021)
   https://doi.org/10.1063/5.0055522 (open access)

 Q-Chem 6.0.1 for Intel X86 EM64T Linux

 Parts of Q-Chem use Armadillo 9.900.5 (Nocturnal Misbehaviour).
 http://arma.sourceforge.net/

 Q-Chem begins on Tue Oct  3 10:20:31 2023  

 Host: atlas-136
0

     Scratch files written to ./qchem134686//
 Processing $rem in /scratch/abel/SOFTWARE/qchem/config/preferences:
 Processing $rem in /dipc/acebg/.qchemrc:

 Checking the input file for inconsistencies... 	...done.

--------------------------------------------------------------
User input:
--------------------------------------------------------------
$comment
 RAS-SF CALCULATION
$end

$molecule
 READ tetracene_opt.molecule
$end

$rem
!**CALCULATION TYPE***     
JOBTYPE            sp    
EXCHANGE           HF
CORRELATION        RASCI    !RASCI=Casanova; RASCI2=Zimmerman
BASIS              def2-TZVP

!***SCF REFERENCE***
!SKIP_SCFMAN        FALSE
UNRESTRICTED       FALSE
!SCF_GUESS          core
!SCF_GUESS_MIX      FALSE
!SCF_GUESS_ALWAYS   FALSE
MAX_SCF_CYCLES     999
!SCF_CONVERGENCE    8
SCF_ALGORITHM      DIIS_GDM !DIIS,DM,DIIS_DM,GDM,DIIS_GDM,GD

!SYMMETRY           TRUE   !use of symmetry for calculating integrals
!SYM_IGNORE         FALSE  !turn off using symmetry
!SYM_TOL            5      !tolerance for determining point group
!USE_ABELIAN_SUBGROUP      !define to use abelian group

!THRESH             14
SCF_FINAL_PRINT     1 !0,1,2,3

!****RAS-SF****
RAS_ROOTS          20       !number of RAS-CI roots to be computed
SET_ITER           150     !number of iterations in RASCI
RAS_ELEC           14       !number of electrons in RAS2
!RAS_ELEC_ALPHA     8       !spin-α electrons in RAS2 
!RAS_ELEC_BETA      6       !spin-β electrons in RAS2

RAS_ACT            12       !number of orbitals in RAS2 
RAS_ACT_ORB  [54,55,56,57,58,59,60,61,62,63,64,66]  !user-selected RAS2 orbitals
RAS_OCC            53       !number of orbitals in RAS1
N_FROZEN_CORE      43     !Number of frozen core orbitals
N_FROZEN_VIRTUAL   555      !Number of frozen virtual orbitals

RAS_DO_HOLE        TRUE   !presence of hole excitations in RAS-CI wave function
RAS_DO_PART        TRUE   !presence of particle excitations
!RAS_AMPL_PRINT     10     !threshold (×10 2 ) for the CI amplitudes

!RAS_GUESS_CS       0      !number of closed shell guess conﬁgurations
RAS_SPIN_MULT      0      !spin multiplicity. Only for Ms = 0 
!RAS_SRDFT          FALSE  !short-range density functional RAS-CI
!RAS_NFRAG          0     !fragments of excitation analysis in RASCI

RAS_PRINT          2      !level of information
RAS_NATORB         TRUE   !computation of the natural orbital occupancies
!RAS_NATORB_STATE  0      !Saves NO of i RAS computed state in .fchk ﬁle
!RAS_FOD            TRUE

!****RAS-SOC****
CALC_SOC           TRUE   !calculate SOC for EOM-CC, RAS-CI, ADC, TDDFT/TDA and TDDFT
!RAS_SOC_2E        TRUE   !two-electron mean-ﬁeld contribution, default=true
RAS_SOC_SYM_DENS   TRUE   !averaging of α and β densities

!****MEMORY****
MEM_TOTAL          60000 !Default 2000 MB
MEM_STATIC         10000  !Default 64 MB

!**Molecular Properties and Analysis **                                                                                          
POP_MULLIKEN       TRUE   !Run Mulliken population analysis
LOWDIN_POPULATION  TRUE   !Run Löwdin population analysis
GUI                2       !Checkpoints generation
STATE_ANALYSIS     TRUE

!**Wave function analysis of RAS-CI states: MOLDEN**
!PLOTS = 0     ! Note: This can be omitted, default is 0
!NTO_PAIRS = 2 ! Note: This can be omitted, default is 2
!GUI 0
!MOLDEN_FORMAT      TRUE
!PRINT_ORBITALS     15

!**Wave function analysis of RAS-CI state: CUBE**
!NTO_PAIRS = 2 ! Note: This can be omitted, default is 2
!PLOTS = 1
!GUI 0

!**SR-DFT**
!RAS_SRDFT           TRUE !Perform short-range density functional RAS-CI
!RAS_SRDFT_EXC       0 !EX functional. 0=HF. 
!RAS_SRDFT_ONLY_COR  TRUE !No use of EXC functional
!RAS_SRDFT_COR       srPBE !short-range correlation functional
!ras_srdft_0         TRUE !true: no iteration (one-shot); false: iteration
!RAS_OMEGA           400 !Coulomb range-separation parameter. def=400
!RAS_SRDFT_DAMP     0.5 !dumping factor. def=0.5
$end

!$plots
!   grid_points 100 100 100
!   grid_range  (-10,10) (-10,10) (-10,10)
!$end

--------------------------------------------------------------
 ----------------------------------------------------------------
             Standard Nuclear Orientation (Angstroms)
    I     Atom           X                Y                Z
 ----------------------------------------------------------------
    1      C       0.0000002188    -0.7282540188     0.0008017092
    2      C      -1.2207052746    -1.3992280118    -0.0018011386
    3      H      -1.2261427012    -2.4836772361    -0.0033764159
    4      C       1.2207081982    -1.3992259422     0.0033054321
    5      H       1.2261474362    -2.4836746482     0.0051990930
    6      C       2.4728705352    -0.7109288954     0.0026585214
    7      C       3.6933843145    -1.3895468780     0.0054990200
    8      H       3.6912698368    -2.4735216295     0.0101982845
    9      C       4.8951625276    -0.6951136790     0.0022317856
   10      H       5.8317025073    -1.2370466889     0.0045873165
   11      C       4.8951698125     0.6950863412    -0.0042218962
   12      H       5.8317157882     1.2370045515    -0.0077605937
   13      C       3.6933986099     1.3895408935    -0.0060711048
   14      H       3.6912882173     2.4735158387    -0.0107273443
   15      C       2.4728749790     0.7109408505    -0.0019787702
   16      C      -2.4728683323    -0.7109320216    -0.0020626534
   17      C      -3.6933779290    -1.3895491796    -0.0061374954
   18      H      -3.6912592123    -2.4735238608    -0.0108510748
   19      C      -4.8951593786    -0.6951146350    -0.0041874034
   20      H      -5.8316964398    -1.2370465250    -0.0076843755
   21      C      -4.8951727029     0.6950851007     0.0023272769
   22      H      -5.8317217130     1.2370039111     0.0048148574
   23      C      -3.6934038059     1.3895388116     0.0055099792
   24      H      -3.6912977184     2.4735134779     0.0102326338
   25      C      -2.4728768497     0.7109387678     0.0025725219
   26      C      -1.2207179048     1.3992461788     0.0031737596
   27      H      -1.2261589783     2.4836960370     0.0049726451
   28      C      -0.0000008258     0.7282779777     0.0007731087
   29      C       1.2207137816     1.3992480899    -0.0017660019
   30      H       1.2261531349     2.4836982700    -0.0033649292
 ----------------------------------------------------------------
 Molecular Point Group                 C1    NOp =  1
 Largest Abelian Subgroup              C1    NOp =  1
 Nuclear Repulsion Energy =        1116.85311862 hartrees
 There are       61 alpha and       59 beta electrons
 Requested basis set is def2-TZVP
 There are 246 shells and 630 basis functions

 Q-Chem warning in module libmdc/get_mega.C, line 167:

 Allowed MEM_STATIC has been capped at MEM_STATIC=8191.
 Reduce the value of MEM_STATIC to silence this warning.


 Total QAlloc Memory Limit  60000 MB
 Mega-Array Size      8007 MB
 MEM_STATIC part      8191 MB

 A cutoff of  1.0D-09 yielded  19900 shell pairs
 There are    128244 function pairs (    165257 Cartesian)
 Smallest overlap matrix eigenvalue = 5.12E-06

 Q-Chem warning in module stvman/mkSTV.C, line 313:

 Overlap eigenvalue is smaller than square root of threshold
 Use THRESH >= 12 to get rid of this warning


 Scale SEOQF with 1.000000e-02/1.000000e-01/1.000000e+00

 Standard Electronic Orientation quadrupole field applied
 Nucleus-field energy     =     0.0000000173 hartrees
 Guess from superposition of atomic densities
 Warning:  Energy on first SCF cycle will be non-variational
 SAD guess density has 120.000001 electrons

 -----------------------------------------------------------------------
  General SCF calculation program by
  Eric Jon Sundstrom, Paul Horn, Yuezhi Mao, Dmitri Zuev, Alec White,
  David Stuck, Shaama M.S., Shane Yost, Joonho Lee, David Small,
  Daniel Levine, Susi Lehtola, Hugh Burton, Evgeny Epifanovsky,
  Bang C. Huynh
 -----------------------------------------------------------------------
 Hartree-Fock
 Orthonormalizing orbitals
 A restricted open-shell SCF calculation will be
 performed using DIIS, GDM
 SCF converges when RMS gradient is below 1.0e-05
 ---------------------------------------
  Cycle       Energy         DIIS error
 ---------------------------------------
    1    -685.8608859782      1.91e-02  
    2    -686.0494228468      1.74e-02  
    3    -688.3056248184      4.57e-03  Done DIIS. Switching to GDM
 ---------------------------------------
  Cycle       Energy        RMS Gradient
 ---------------------------------------
    1    -688.3056248184      1.23e-01   Descent step
    2    -688.5049702682      2.15e-01   Descent step
    3    -688.6307210373      4.83e-01   Descent step
    4    -688.7837550706      1.52e-01   Dog-leg BFGS step
    5    -688.8054388912      5.72e-02   Dog-leg BFGS step
    6    -688.7675395622      6.03e-02  Line search: overstep
    7    -688.8103732479      5.41e-02   Normal BFGS step
    8    -688.8125969296      3.57e-02   Normal BFGS step
    9    -688.8138877681      5.27e-03   Normal BFGS step
   10    -688.8139410514      3.38e-03   Normal BFGS step
   11    -688.8139673857      5.12e-04   Normal BFGS step
   12    -688.8139695261      2.37e-04   Normal BFGS step
   13    -688.8139711683      1.15e-04   Normal BFGS step
   14    -688.8139724227      5.03e-05   Normal BFGS step
   15    -688.8139725183      1.12e-05   Normal BFGS step
   16    -688.8139748074      9.79e-06  Convergence criterion met
The disked orbital energies are calculated using alpha and beta Focks
 ---------------------------------------
 Alpha HF Exchange    Energy = -49.35509995296632
 Beta HF Exchange     Energy = -48.47302167668884
 Nuclear Attraction   Energy =   0.00000000000000
 One-Electron (alpha) Energy = -1596.31343662819563
 One-Electron (beta)  Energy = -1552.80604030061886
 Total Coulomb        Energy = 1441.28050511129118
 Final Alpha MO Eigenvalues
            1           2           3           4           5           6
    1 -11.2465250 -11.2456903 -11.2440894 -11.2440946 -11.2430746 -11.2430761
            7           8           9          10          11          12
    1 -11.2436624 -11.2436240 -11.2434742 -11.2434064 -11.2354282 -11.2354303
           13          14          15          16          17          18
    1 -11.2352729 -11.2352757 -11.2340038 -11.2340059 -11.2329276 -11.2329291
           19          20          21          22          23          24
    1  -1.1998629  -1.1731256  -1.1325776  -1.0805236  -1.0725351  -1.0467333
           25          26          27          28          29          30
    1  -1.0139995  -1.0072306  -0.9488184  -0.9164398  -0.8463940  -0.8334529
           31          32          33          34          35          36
    1  -0.8259220  -0.8138458  -0.7796445  -0.7161618  -0.6929213  -0.6894673
           37          38          39          40          41          42
    1  -0.6790039  -0.6308783  -0.6331425  -0.6286481  -0.6151467  -0.5883367
           43          44          45          46          47          48
    1  -0.5844161  -0.5816429  -0.5777742  -0.5654960  -0.5721641  -0.5216452
           49          50          51          52          53          54
    1  -0.5208038  -0.5311781  -0.4903356  -0.4868441  -0.4749185  -0.4854979
           55          56          57          58          59          60
    1  -0.4418278  -0.3964328  -0.3757556  -0.3334365  -0.3364685  -0.2861952
           61          62          63          64          65          66
    1  -0.2086640   0.0829500   0.1025764   0.1337284   0.1489697   0.1408825
           67          68          69          70          71          72
    1   0.1575251   0.1578271   0.1686911   0.1695217   0.1622385   0.1868760
           73          74          75          76          77          78
    1   0.1918659   0.2006155   0.2117343   0.2197057   0.2265549   0.2373559
           79          80          81          82          83          84
    1   0.2504114   0.2645357   0.2641646   0.2690574   0.2725092   0.2789073
           85          86          87          88          89          90
    1   0.2994637   0.3004501   0.3083058   0.3107552   0.3180266   0.3152104
           91          92          93          94          95          96
    1   0.3308946   0.3400402   0.3509888   0.3558018   0.3669157   0.3698505
           97          98          99         100         101         102
    1   0.3890105   0.3909925   0.3941818   0.4022882   0.4036425   0.4068197
          103         104         105         106         107         108
    1   0.4098387   0.4184228   0.4292672   0.4345760   0.4370011   0.4427779
          109         110         111         112         113         114
    1   0.4516586   0.4531482   0.4507227   0.4496704   0.4656067   0.4687944
          115         116         117         118         119         120
    1   0.4717604   0.4817269   0.4868376   0.4894149   0.4961082   0.5040691
          121         122         123         124         125         126
    1   0.5082057   0.5124012   0.5181724   0.5281056   0.5354452   0.5373251
          127         128         129         130         131         132
    1   0.5419472   0.5437584   0.5621666   0.5664518   0.5658288   0.5698316
          133         134         135         136         137         138
    1   0.5853157   0.5853773   0.5936098   0.5943965   0.6076319   0.6210465
          139         140         141         142         143         144
    1   0.6268696   0.6329456   0.6392235   0.6472537   0.6479698   0.6488826
          145         146         147         148         149         150
    1   0.6495158   0.6501830   0.6515007   0.6549660   0.6579832   0.6812223
          151         152         153         154         155         156
    1   0.6813680   0.6890042   0.7142369   0.7143204   0.7229227   0.7375620
          157         158         159         160         161         162
    1   0.7475119   0.7549472   0.7660875   0.7944118   0.8078445   0.8166430
          163         164         165         166         167         168
    1   0.8220199   0.8217963   0.8233116   0.8383293   0.8390773   0.8443056
          169         170         171         172         173         174
    1   0.8454804   0.8578047   0.8808421   0.8885583   0.8925767   0.8953144
          175         176         177         178         179         180
    1   0.8948123   0.9091861   0.9181124   0.9180732   0.9180639   0.9267688
          181         182         183         184         185         186
    1   0.9313120   0.9322353   0.9383674   0.9487370   0.9487952   0.9483117
          187         188         189         190         191         192
    1   0.9639135   0.9751377   0.9861014   0.9870608   0.9928419   0.9916243
          193         194         195         196         197         198
    1   0.9946875   1.0100473   1.0386191   1.0500720   1.0550443   1.0637945
          199         200         201         202         203         204
    1   1.0664000   1.0793370   1.0888789   1.1018165   1.1016905   1.1052769
          205         206         207         208         209         210
    1   1.1038114   1.1075492   1.1164201   1.1321819   1.1498603   1.1737469
          211         212         213         214         215         216
    1   1.1793171   1.1880532   1.1892212   1.2008781   1.2116061   1.2256492
          217         218         219         220         221         222
    1   1.2316094   1.2324542   1.2483660   1.2683155   1.3163828   1.3219284
          223         224         225         226         227         228
    1   1.3525134   1.3547307   1.3594163   1.3653057   1.3672341   1.3717085
          229         230         231         232         233         234
    1   1.3773706   1.3792415   1.4138897   1.4250368   1.4297397   1.4397364
          235         236         237         238         239         240
    1   1.4379808   1.4530031   1.4552151   1.4677806   1.4755218   1.4907054
          241         242         243         244         245         246
    1   1.4913703   1.5002975   1.5069070   1.5083946   1.5291396   1.5379423
          247         248         249         250         251         252
    1   1.5483401   1.5527885   1.5619990   1.5946516   1.5953454   1.5927704
          253         254         255         256         257         258
    1   1.6091949   1.6445861   1.6560439   1.6610301   1.6731038   1.6735934
          259         260         261         262         263         264
    1   1.6875168   1.7036189   1.7100845   1.7215046   1.7260484   1.7340569
          265         266         267         268         269         270
    1   1.7492155   1.7642533   1.7639772   1.7683391   1.7770928   1.7818216
          271         272         273         274         275         276
    1   1.7957596   1.7992538   1.8087049   1.8151732   1.8118629   1.8276504
          277         278         279         280         281         282
    1   1.8455713   1.8507938   1.8655391   1.8729174   1.8786788   1.8827117
          283         284         285         286         287         288
    1   1.9081085   1.9357608   1.9354874   1.9427149   1.9436896   1.9450949
          289         290         291         292         293         294
    1   1.9571902   1.9671464   1.9754253   1.9738582   1.9840808   1.9887133
          295         296         297         298         299         300
    1   2.0043549   2.0073593   2.0342405   2.0444173   2.0453675   2.0530030
          301         302         303         304         305         306
    1   2.0706520   2.0851786   2.1138207   2.1340611   2.1542829   2.1560774
          307         308         309         310         311         312
    1   2.1697441   2.1857800   2.1857365   2.1937572   2.1988231   2.2226369
          313         314         315         316         317         318
    1   2.2284492   2.2306693   2.2363650   2.2695422   2.2729944   2.2855645
          319         320         321         322         323         324
    1   2.2982443   2.3017081   2.3425412   2.3497400   2.3638390   2.3708240
          325         326         327         328         329         330
    1   2.4206434   2.4326993   2.4342423   2.4474310   2.4660203   2.4709990
          331         332         333         334         335         336
    1   2.4743761   2.4959064   2.4978429   2.5038103   2.5090525   2.5112251
          337         338         339         340         341         342
    1   2.5204538   2.5283259   2.5343280   2.5531298   2.5555943   2.6033037
          343         344         345         346         347         348
    1   2.6108895   2.6141871   2.6309631   2.6324449   2.6425505   2.6500613
          349         350         351         352         353         354
    1   2.6648368   2.6982147   2.7318443   2.7339683   2.7537558   2.7624693
          355         356         357         358         359         360
    1   2.7671097   2.7732012   2.7829991   2.8002879   2.8377497   2.8373989
          361         362         363         364         365         366
    1   2.8379920   2.8646418   2.8676405   2.8705036   2.8718652   2.9107087
          367         368         369         370         371         372
    1   2.9250028   2.9286344   2.9425905   2.9615367   2.9604400   2.9720797
          373         374         375         376         377         378
    1   2.9752908   2.9755674   2.9798436   2.9882012   2.9933260   2.9953270
          379         380         381         382         383         384
    1   3.0445526   3.0502185   3.0529120   3.0558917   3.0634381   3.0677647
          385         386         387         388         389         390
    1   3.0741976   3.0747349   3.1011753   3.1060829   3.1052377   3.1081850
          391         392         393         394         395         396
    1   3.1092388   3.1231226   3.1255771   3.1397385   3.1443362   3.1586408
          397         398         399         400         401         402
    1   3.1589283   3.1714746   3.1822696   3.1806567   3.1849207   3.1913156
          403         404         405         406         407         408
    1   3.1908993   3.1964530   3.2082508   3.2123024   3.2189366   3.2268807
          409         410         411         412         413         414
    1   3.2473899   3.2535779   3.2589079   3.2614878   3.2665466   3.2670657
          415         416         417         418         419         420
    1   3.2796774   3.2923063   3.2914995   3.3043389   3.3125414   3.3156322
          421         422         423         424         425         426
    1   3.3183576   3.3548986   3.3555760   3.3639437   3.3676877   3.3755636
          427         428         429         430         431         432
    1   3.3831279   3.3840680   3.3875626   3.3958551   3.3964895   3.4063282
          433         434         435         436         437         438
    1   3.4174720   3.4274899   3.4309785   3.4589791   3.4575137   3.4646062
          439         440         441         442         443         444
    1   3.4672964   3.4907027   3.5066964   3.5080095   3.5086520   3.5132877
          445         446         447         448         449         450
    1   3.5153788   3.5247928   3.5510756   3.5531424   3.5618774   3.5711726
          451         452         453         454         455         456
    1   3.5769301   3.5744895   3.5848301   3.5986361   3.6049141   3.6153032
          457         458         459         460         461         462
    1   3.6210038   3.6386386   3.6402907   3.6519014   3.6604389   3.6653699
          463         464         465         466         467         468
    1   3.6650705   3.6673060   3.6702900   3.7006716   3.7027406   3.7103982
          469         470         471         472         473         474
    1   3.7142063   3.7174525   3.7219841   3.7337872   3.7551011   3.7594165
          475         476         477         478         479         480
    1   3.7766290   3.7787857   3.7906836   3.7967407   3.7999525   3.8006430
          481         482         483         484         485         486
    1   3.8094949   3.8216929   3.8258663   3.8341547   3.8379491   3.8523106
          487         488         489         490         491         492
    1   3.8538059   3.8791101   3.8804956   3.8853121   3.8976442   3.9000746
          493         494         495         496         497         498
    1   3.9054105   3.9128718   3.9201407   3.9238996   3.9420205   3.9592906
          499         500         501         502         503         504
    1   3.9736805   3.9983564   4.0056757   4.0272531   4.0260707   4.0366930
          505         506         507         508         509         510
    1   4.0362813   4.0631090   4.1032680   4.1154718   4.1203239   4.1421594
          511         512         513         514         515         516
    1   4.1533590   4.1780145   4.1952587   4.2282296   4.2338534   4.2497634
          517         518         519         520         521         522
    1   4.2509620   4.2580131   4.2700621   4.2887141   4.3016174   4.3140253
          523         524         525         526         527         528
    1   4.3269116   4.3597807   4.3616553   4.3623765   4.3658597   4.3943260
          529         530         531         532         533         534
    1   4.4023303   4.4316740   4.4375817   4.4406169   4.4409321   4.4496790
          535         536         537         538         539         540
    1   4.4813690   4.5023667   4.5311942   4.5312997   4.5382488   4.5387304
          541         542         543         544         545         546
    1   4.5399212   4.5431486   4.5428293   4.5681181   4.5740519   4.5938344
          547         548         549         550         551         552
    1   4.5961838   4.6106685   4.6125207   4.6380444   4.6484785   4.6771752
          553         554         555         556         557         558
    1   4.7076044   4.7276953   4.7341793   4.7378567   4.7475787   4.7604704
          559         560         561         562         563         564
    1   4.7800001   4.7795613   4.8194278   4.8260376   4.8444516   4.8674038
          565         566         567         568         569         570
    1   4.8853804   4.9045793   4.9265147   4.9628162   5.0066052   5.0109900
          571         572         573         574         575         576
    1   5.0406633   5.0660474   5.0834130   5.0872550   5.1025704   5.1616686
          577         578         579         580         581         582
    1   5.1760027   5.1779672   5.1974360   5.2174180   5.2304790   5.2421182
          583         584         585         586         587         588
    1   5.2511591   5.2866065   5.3044727   5.3190729   5.3365141   5.3815328
          589         590         591         592         593         594
    1   5.3989342   5.4806672   5.5094738   5.5121076   5.5479132   5.5722588
          595         596         597         598         599         600
    1   5.5976693   5.6131243   5.6753506   5.6902374   5.7248636   5.7878559
          601         602         603         604         605         606
    1   5.8730284   5.8730444   5.9073470   5.9328614   5.9640687   6.0117436
          607         608         609         610         611         612
    1   6.0616317   6.0714725   6.1534896   6.1660512   6.3294458   6.6133480
          613         614         615         616         617         618
    1  22.9509019  23.5059965  23.7020657  23.7277754  23.8143386  23.8164655
          619         620         621         622         623         624
    1  23.8190117  23.8917751  23.9625533  23.9698745  23.9732885  24.0038201
          625         626         627         628         629         630
    1  24.0599060  24.1216060  24.3593797  24.3899427  24.7220434  24.9934169
 Final Beta MO Eigenvalues
            1           2           3           4           5           6
    1 -11.2464170 -11.2455508 -11.2434490 -11.2434552 -11.2423913 -11.2423976
            7           8           9          10          11          12
    1 -11.2364409 -11.2364507 -11.2363841 -11.2363879 -11.2346299 -11.2346323
           13          14          15          16          17          18
    1 -11.2344043 -11.2344071 -11.2333249 -11.2333265 -11.2323245 -11.2323258
           19          20          21          22          23          24
    1  -1.1861012  -1.1650223  -1.1238174  -1.0597932  -1.0601864  -1.0357419
           25          26          27          28          29          30
    1  -1.0090598  -0.9968888  -0.9257603  -0.8988030  -0.8410178  -0.8291754
           31          32          33          34          35          36
    1  -0.8126308  -0.8064024  -0.7692227  -0.7124037  -0.6871542  -0.6821833
           37          38          39          40          41          42
    1  -0.6743047  -0.6287363  -0.6268897  -0.6243614  -0.6109981  -0.5847327
           43          44          45          46          47          48
    1  -0.5768296  -0.5768647  -0.5727628  -0.5600291  -0.5315777  -0.5189182
           49          50          51          52          53          54
    1  -0.5159149  -0.5100672  -0.4876769  -0.4813128  -0.4707827  -0.4510081
           55          56          57          58          59          60
    1  -0.3757277  -0.3608313  -0.3473698  -0.3119269  -0.2827225   0.0049574
           61          62          63          64          65          66
    1   0.0742802   0.1279506   0.1217380   0.1548019   0.1503844   0.1743198
           67          68          69          70          71          72
    1   0.1582691   0.1583199   0.1693784   0.1709330   0.1926695   0.1878699
           73          74          75          76          77          78
    1   0.1923706   0.2011628   0.2126334   0.2202502   0.2321913   0.2405095
           79          80          81          82          83          84
    1   0.2530380   0.2695377   0.2709448   0.2704782   0.2754550   0.3027562
           85          86          87          88          89          90
    1   0.3005487   0.3040491   0.3091457   0.3172696   0.3241766   0.3330873
           91          92          93          94          95          96
    1   0.3368532   0.3421954   0.3543971   0.3635517   0.3680940   0.3709606
           97          98          99         100         101         102
    1   0.3913623   0.4017709   0.4099835   0.4068427   0.4133436   0.4081794
          103         104         105         106         107         108
    1   0.4109743   0.4263840   0.4319367   0.4387841   0.4465990   0.4538671
          109         110         111         112         113         114
    1   0.4570062   0.4553170   0.4695559   0.4913509   0.4826742   0.4764726
          115         116         117         118         119         120
    1   0.4764421   0.4841247   0.4912891   0.4910607   0.5048979   0.5064847
          121         122         123         124         125         126
    1   0.5109115   0.5277912   0.5217288   0.5354622   0.5386786   0.5390597
          127         128         129         130         131         132
    1   0.5466215   0.5478886   0.5647147   0.5677488   0.5739150   0.5714570
          133         134         135         136         137         138
    1   0.5905874   0.5943185   0.5956381   0.6013996   0.6148807   0.6245782
          139         140         141         142         143         144
    1   0.6308446   0.6343862   0.6438470   0.6506599   0.6502124   0.6520712
          145         146         147         148         149         150
    1   0.6547347   0.6555956   0.6601666   0.6575807   0.6762011   0.6834518
          151         152         153         154         155         156
    1   0.6839962   0.6905538   0.7202825   0.7208358   0.7269323   0.7462717
          157         158         159         160         161         162
    1   0.7496846   0.7570359   0.7697093   0.8024413   0.8186175   0.8225188
          163         164         165         166         167         168
    1   0.8254461   0.8282649   0.8257542   0.8407245   0.8482786   0.8476181
          169         170         171         172         173         174
    1   0.8476273   0.8616028   0.8834447   0.8907723   0.8960817   0.8985335
          175         176         177         178         179         180
    1   0.9029537   0.9124613   0.9231082   0.9287729   0.9350286   0.9295656
          181         182         183         184         185         186
    1   0.9350397   0.9344363   0.9415422   0.9513251   0.9522980   0.9606486
          187         188         189         190         191         192
    1   0.9795103   0.9782708   0.9877406   0.9964355   0.9966646   0.9991561
          193         194         195         196         197         198
    1   0.9980650   1.0120485   1.0488533   1.0531144   1.0600226   1.0666129
          199         200         201         202         203         204
    1   1.0694157   1.0810145   1.0947658   1.1077521   1.1154341   1.1085423
          205         206         207         208         209         210
    1   1.1137197   1.1124218   1.1190269   1.1363721   1.1605328   1.1754544
          211         212         213         214         215         216
    1   1.1810814   1.1951628   1.1951586   1.2050262   1.2260700   1.2300755
          217         218         219         220         221         222
    1   1.2347557   1.2351692   1.2585684   1.2771724   1.3211756   1.3250411
          223         224         225         226         227         228
    1   1.3551263   1.3592297   1.3682661   1.3726355   1.3690738   1.3741981
          229         230         231         232         233         234
    1   1.3801037   1.3922744   1.4195535   1.4308206   1.4322349   1.4417138
          235         236         237         238         239         240
    1   1.4492197   1.4548384   1.4574208   1.4702514   1.4770668   1.4928778
          241         242         243         244         245         246
    1   1.4967996   1.5066049   1.5103075   1.5131039   1.5316802   1.5414783
          247         248         249         250         251         252
    1   1.5558367   1.5556904   1.5683374   1.5974966   1.5998805   1.6053606
          253         254         255         256         257         258
    1   1.6137140   1.6475647   1.6589039   1.6675342   1.6749266   1.6973770
          259         260         261         262         263         264
    1   1.7005353   1.7054117   1.7138083   1.7228720   1.7324186   1.7358248
          265         266         267         268         269         270
    1   1.7522711   1.7703283   1.7763084   1.7786586   1.7811596   1.7835254
          271         272         273         274         275         276
    1   1.7986184   1.8012238   1.8158264   1.8166218   1.8235530   1.8288822
          277         278         279         280         281         282
    1   1.8517217   1.8522444   1.8705463   1.8788312   1.8907910   1.8861381
          283         284         285         286         287         288
    1   1.9106292   1.9391324   1.9413111   1.9450915   1.9449652   1.9535798
          289         290         291         292         293         294
    1   1.9728157   1.9700304   1.9788265   1.9823476   1.9856671   1.9928435
          295         296         297         298         299         300
    1   2.0056452   2.0087568   2.0379651   2.0484484   2.0493991   2.0611020
          301         302         303         304         305         306
    1   2.0736079   2.0868224   2.1242171   2.1429038   2.1584288   2.1574847
          307         308         309         310         311         312
    1   2.1757037   2.1878263   2.1958791   2.1973339   2.2066564   2.2270909
          313         314         315         316         317         318
    1   2.2304580   2.2341531   2.2398358   2.2725345   2.2751695   2.2875702
          319         320         321         322         323         324
    1   2.3006206   2.3036257   2.3469913   2.3532022   2.3707138   2.3729327
          325         326         327         328         329         330
    1   2.4223776   2.4381687   2.4371071   2.4522056   2.4728032   2.4766125
          331         332         333         334         335         336
    1   2.4795992   2.5010927   2.5017040   2.5078624   2.5141898   2.5148457
          337         338         339         340         341         342
    1   2.5259786   2.5318952   2.5369230   2.5576408   2.5569111   2.6051996
          343         344         345         346         347         348
    1   2.6147045   2.6165163   2.6340007   2.6362816   2.6453283   2.6533256
          349         350         351         352         353         354
    1   2.6718459   2.7050609   2.7335577   2.7407760   2.7558795   2.7652311
          355         356         357         358         359         360
    1   2.7695416   2.7801280   2.7855860   2.8041572   2.8410151   2.8451440
          361         362         363         364         365         366
    1   2.8471630   2.8668535   2.8700244   2.8754098   2.8739385   2.9135227
          367         368         369         370         371         372
    1   2.9264546   2.9300891   2.9456343   2.9624789   2.9661899   2.9735351
          373         374         375         376         377         378
    1   2.9792674   2.9829384   2.9835990   2.9905911   2.9953552   2.9984691
          379         380         381         382         383         384
    1   3.0462318   3.0553989   3.0569435   3.0606751   3.0652977   3.0697769
          385         386         387         388         389         390
    1   3.0758165   3.0772818   3.1068003   3.1083235   3.1162844   3.1118434
          391         392         393         394         395         396
    1   3.1143872   3.1258790   3.1290003   3.1443457   3.1465898   3.1607159
          397         398         399         400         401         402
    1   3.1622277   3.1759484   3.1840067   3.1902628   3.1877661   3.1981937
          403         404         405         406         407         408
    1   3.1997960   3.1994038   3.2174167   3.2156246   3.2282144   3.2298022
          409         410         411         412         413         414
    1   3.2506002   3.2617319   3.2623572   3.2651892   3.2749360   3.2744050
          415         416         417         418         419         420
    1   3.2842878   3.2952198   3.3018032   3.3080338   3.3157252   3.3212708
          421         422         423         424         425         426
    1   3.3211212   3.3572408   3.3614010   3.3693501   3.3701015   3.3796515
          427         428         429         430         431         432
    1   3.3852061   3.3903021   3.3915444   3.4012680   3.4036509   3.4119166
          433         434         435         436         437         438
    1   3.4209143   3.4335486   3.4341101   3.4619257   3.4649693   3.4672245
          439         440         441         442         443         444
    1   3.4702150   3.4925716   3.5109316   3.5111396   3.5113023   3.5182084
          445         446         447         448         449         450
    1   3.5174311   3.5290484   3.5545534   3.5577166   3.5659813   3.5748199
          451         452         453         454         455         456
    1   3.5791026   3.5869977   3.5880790   3.6043584   3.6066860   3.6281751
          457         458         459         460         461         462
    1   3.6306462   3.6398961   3.6417327   3.6593887   3.6663327   3.6685096
          463         464         465         466         467         468
    1   3.6728419   3.6686896   3.6739770   3.7016673   3.7041883   3.7135329
          469         470         471         472         473         474
    1   3.7197798   3.7189978   3.7292734   3.7357890   3.7579441   3.7622617
          475         476         477         478         479         480
    1   3.7801283   3.7811798   3.7938287   3.8056566   3.8033454   3.8049061
          481         482         483         484         485         486
    1   3.8118514   3.8265575   3.8280367   3.8395111   3.8396625   3.8552640
          487         488         489         490         491         492
    1   3.8555196   3.8848542   3.8823420   3.8874139   3.9012229   3.9035005
          493         494         495         496         497         498
    1   3.9107805   3.9144601   3.9245897   3.9286543   3.9444786   3.9607674
          499         500         501         502         503         504
    1   3.9752435   3.9999212   4.0097885   4.0284780   4.0314137   4.0383412
          505         506         507         508         509         510
    1   4.0410626   4.0670993   4.1049827   4.1219189   4.1253621   4.1451387
          511         512         513         514         515         516
    1   4.1566049   4.1790171   4.1983428   4.2298242   4.2364528   4.2519959
          517         518         519         520         521         522
    1   4.2535331   4.2603646   4.2745053   4.2921299   4.3024463   4.3149647
          523         524         525         526         527         528
    1   4.3288311   4.3629636   4.3636527   4.3662382   4.3706791   4.3976018
          529         530         531         532         533         534
    1   4.4073141   4.4383545   4.4392861   4.4425767   4.4464814   4.4511766
          535         536         537         538         539         540
    1   4.4835857   4.5059956   4.5349321   4.5351133   4.5397532   4.5420565
          541         542         543         544         545         546
    1   4.5434605   4.5447844   4.5454125   4.5696890   4.5762589   4.5957398
          547         548         549         550         551         552
    1   4.5983975   4.6121178   4.6157656   4.6403230   4.6520967   4.6799308
          553         554         555         556         557         558
    1   4.7084471   4.7290145   4.7366820   4.7431964   4.7488369   4.7666004
          559         560         561         562         563         564
    1   4.7819211   4.7845911   4.8233685   4.8316626   4.8467453   4.8712214
          565         566         567         568         569         570
    1   4.8869005   4.9065405   4.9296648   4.9649626   5.0095252   5.0132107
          571         572         573         574         575         576
    1   5.0431432   5.0687581   5.0862845   5.0898160   5.1041169   5.1638989
          577         578         579         580         581         582
    1   5.1774966   5.1789685   5.1988078   5.2187487   5.2323111   5.2467086
          583         584         585         586         587         588
    1   5.2556187   5.2881211   5.3061298   5.3216073   5.3377561   5.3833120
          589         590         591         592         593         594
    1   5.4003659   5.4839954   5.5107082   5.5142147   5.5488004   5.5734176
          595         596         597         598         599         600
    1   5.6005844   5.6147780   5.6770281   5.6910688   5.7259037   5.7889496
          601         602         603         604         605         606
    1   5.8740637   5.8748382   5.9087873   5.9346566   5.9650304   6.0129996
          607         608         609         610         611         612
    1   6.0639350   6.0732735   6.1554050   6.1685902   6.3307349   6.6147684
          613         614         615         616         617         618
    1  22.9519485  23.5064344  23.7040389  23.7281905  23.8150022  23.8189434
          619         620         621         622         623         624
    1  23.8197616  23.8944651  23.9629196  23.9705284  23.9743874  24.0065038
          625         626         627         628         629         630
    1  24.0615090  24.1232245  24.3610690  24.3917877  24.7226094  24.9939006
 SCF time:   CPU 3342.32s  wall 3347.00s 
<S^2> =          2.000000000
 SCF   energy in the final basis set =     -688.8139748074
 Total energy in the final basis set =     -688.8139748074
  
     ##========================================##
     ||                                        ||
     ||              R A S M A N 2             ||
     ||________________________________________||
     ||                                        ||
     ||  Author:                               ||
     ||                                        ||
     ||        David Casanova (2010)           ||
     ||                                        ||
     ##========================================##
  
Setting single-point xc-functionals (if necessary)

  ***************************************************
  *  RAS-CI Dimensions:                             *
  *                                                 *
  *  Active Elec.:  14 ( 7, 7)   Active Orb.:  12   *
  *  Doubly Occ. :  53           Doubly Vir.: 565   *
  *  Frozen Occ. :  43           Frozen Vir.: 555   *
  *                                                 *
  *  Total CI configurations:  23104224             * 
  *    Active configurations:    627264             * 
  *      Hole configurations:   7840800             * 
  *  Particle configurations:  14636160             * 
  *                                                 *
  *   Requested states:       20                    *
  *  Spin multiplicity: Any multiplicity            *
  *                                                 *
  ***************************************************
-----------------------------------------
    Memory requirements of RASCI

 Each CI-vector requires    176.27 MiB 
 Max. subspace vectors           3000      

 Reduced Lists                0.04 MiB 
 Excitation Lists             0.06 MiB 
 Excitation Lists Sign        0.06 MiB 
 CI-space (Max)          532407.83 MiB 
 Integrals                  813.83 MiB 
 Memory required (Max)   532407.99 MiB 
 Memory available          7811.55 MiB 

 Q-Chem warning in module rasman2/ras_mem_check.C, line 162:

 Static memory may be insufficient to store the subspace vectors


    Disk requirements of RASCI

 Fock matrix                  6.06 MiB 
 2-electron integrals         1.94 MiB 
 CI-space                1057627.44 MiB 
 Disk required           1057635.44 MiB 
-----------------------------------------
  
RAS1 HF-like energy:           -669.2584850753
 Computing integrals
 Computing J and K matrices
 Computing addressing
 Making amplitude guesses
 
Direct CI diagonalization
 ---------------------------------------------------
 Iter    Rts Conv    Rts Left    Ttl Dev     Max Dev
 ---------------------------------------------------
   1         0          20      0.001064    0.000056
   2         0          20      0.000581    0.000034
   3         0          20      0.000402    0.000027
   4         0          20      0.000345    0.000025
   5         0          20      0.000291    0.000022
   6         0          20      0.000266    0.000020
   7         0          20      0.000252    0.000019
   8         0          20      0.000239    0.000023
   9         1          19      0.000213    0.000020
  10         3          17      0.000201    0.000033
  11         3          17      0.000174    0.000027
  12         3          17      0.000146    0.000021
  13         4          16      0.000121    0.000017
  14         5          15      0.000099    0.000012
  15         5          15      0.000087    0.000013
  16         5          15      0.000071    0.000011
  17         6          14      0.000057    0.000009
  18         7          13      0.000046    0.000007
  19         7          13      0.000038    0.000005
  20         9          11      0.000031    0.000004
  21        11           9      0.000025    0.000003
  22        12           8      0.000020    0.000002
  23        16           4      0.000017    0.000002
  24        17           3      0.000016    0.000001
  25        18           2      0.000015    0.000001
  26        19           1      0.000014    0.000001
  27        20           0      0.000014    0.000001    Roots Converged
 ---------------------------------------------------
   
**************************************************
 RAS-CI total energy for state   1:   -688.941886466196
  Excitation energy (eV) =  0.000000000000
  State symmetry: A1  (C1       )
  <S^2>      :  0.0000
  Dipole Moment:    0.0000 X     0.0000 Y     0.0004 Z
 NATURAL OCCUPATION NUMBERS (higher than 1.0E-05)
            1           2           3           4           5           6
    1   2.0000000   2.0000000   2.0000000   2.0000000   2.0000000   2.0000000
            7           8           9          10          11          12
    1   2.0000000   2.0000000   2.0000000   2.0000000   2.0000000   2.0000000
           13          14          15          16          17          18
    1   2.0000000   2.0000000   2.0000000   2.0000000   2.0000000   2.0000000
           19          20          21          22          23          24
    1   2.0000000   2.0000000   2.0000000   2.0000000   2.0000000   2.0000000
           25          26          27          28          29          30
    1   2.0000000   2.0000000   2.0000000   2.0000000   2.0000000   2.0000000
           31          32          33          34          35          36
    1   2.0000000   2.0000000   2.0000000   2.0000000   2.0000000   2.0000000
           37          38          39          40          41          42
    1   2.0000000   2.0000000   2.0000000   2.0000000   2.0000000   2.0000000
           43          44          45          46          47          48
    1   2.0000000   2.0000000   2.0000000   2.0000000   2.0000000   2.0000000
           49          50          51          52          53          54
    1   2.0000000   2.0000000   2.0000000   1.9984440   1.9975562   1.9877833
           55          56          57          58          59          60
    1   1.9696144   1.9657385   1.9624885   1.9475501   1.9365673   1.7707424
           61          62          63          64          65          66
    1   0.2382147   0.0681630   0.0580478   0.0395405   0.0305562   0.0289928
Natural Orbitals stored in FCHK

  Amplitudes : 
  
 | HOLE  | ALPHA        | BETA         | PART  |    AMPLITUDE 
--------------------------------------------------
 |       | 111111100000 | 111111100000 |       |     8.6471184482328E-01
 |       | 111111010000 | 111111010000 |       |    -2.6591847419269E-01
--------------------------------------------------
*** Contributions RASCI wfn    Active:  94.79
                                 Hole:   0.55
                                 Part:   4.66

      Mulliken population analysis 
 ---------------------------------------------------
   Atom    Charge (a.u.)   Spin (a.u.)  
 ---------------------------------------------------
   1  C    0.232987       -0.000000 
   2  C   -0.369688       -0.000000 
   3  H    0.122297       -0.000000 
   4  C   -0.370268       -0.000000 
   5  H    0.122294       -0.000000 
   6  C    0.226821       -0.000000 
   7  C   -0.218665       -0.000000 
   8  H    0.123816       -0.000000 
   9  C   -0.124105       -0.000000 
  10  H    0.123593       -0.000000 
  11  C   -0.124373       -0.000000 
  12  H    0.123588       -0.000000 
  13  C   -0.218040       -0.000000 
  14  H    0.123873       -0.000000 
  15  C    0.225975       -0.000000 
  16  C    0.226769       -0.000000 
  17  C   -0.218749       -0.000000 
  18  H    0.123788       -0.000000 
  19  C   -0.123868       -0.000000 
  20  H    0.123603       -0.000000 
  21  C   -0.124419       -0.000000 
  22  H    0.123623       -0.000000 
  23  C   -0.218304       -0.000000 
  24  H    0.123841       -0.000000 
  25  C    0.226418       -0.000000 
  26  C   -0.369998       -0.000000 
  27  H    0.122255       -0.000000 
  28  C    0.232048       -0.000000 
  29  C   -0.369483       -0.000000 
  30  H    0.122371       -0.000000 
 ---------------------------------------------------
   Sum:    0.000000       -0.000000 
 ---------------------------------------------------
 
  
 NATURAL OCCUPATION NUMBERS (higher than 1.0E-05)
            1           2           3           4           5           6
    1   2.0000000   2.0000000   2.0000000   2.0000000   2.0000000   2.0000000
            7           8           9          10          11          12
    1   2.0000000   2.0000000   2.0000000   2.0000000   2.0000000   2.0000000
           13          14          15          16          17          18
    1   2.0000000   2.0000000   2.0000000   2.0000000   2.0000000   2.0000000
           19          20          21          22          23          24
    1   2.0000000   2.0000000   2.0000000   2.0000000   2.0000000   2.0000000
           25          26          27          28          29          30
    1   2.0000000   2.0000000   2.0000000   2.0000000   2.0000000   2.0000000
           31          32          33          34          35          36
    1   2.0000000   2.0000000   2.0000000   2.0000000   2.0000000   2.0000000
           37          38          39          40          41          42
    1   2.0000000   2.0000000   2.0000000   2.0000000   2.0000000   2.0000000
           43          44          45          46          47          48
    1   2.0000000   2.0000000   2.0000000   2.0000000   2.0000000   2.0000000
           49          50          51          52          53          54
    1   2.0000000   2.0000000   2.0000000   1.9984440   1.9975562   1.9877833
           55          56          57          58          59          60
    1   1.9696144   1.9657385   1.9624885   1.9475501   1.9365673   1.7707424
           61          62          63          64          65          66
    1   0.2382147   0.0681630   0.0580478   0.0395405   0.0305562   0.0289928
  
*** Unpaired Electrons
 Yamaguchi Nd:         1.72
 Head-Gordon Nu:       0.93
 Head-Gordon Nu_nl:    0.42
  
**************************************************
 RAS-CI total energy for state   2:   -688.902279498307
  Excitation energy (eV) =  1.077760430986
  State symmetry: A1  (C1       )
  <S^2>      :  2.0000
  Dipole Moment:    0.0000 X     0.0000 Y     0.0004 Z
  Trans. Moment:   -0.0000 X    -0.0000 Y     0.0000 Z
  Strength   :  0.000000
  Natural transition orbitals ( 1 -> 2 ):
   e-/hole pair  1:  ampl =  0.880627 ( 77.6%)   [12 : 13]
   e-/hole pair  2:  ampl =  0.288977 (  8.4%)   [11 : 14]
   Sum of square amplitudes: 0.93

 NATURAL OCCUPATION NUMBERS (higher than 1.0E-05)
            1           2           3           4           5           6
    1   2.0000000   2.0000000   2.0000000   2.0000000   2.0000000   2.0000000
            7           8           9          10          11          12
    1   2.0000000   2.0000000   2.0000000   2.0000000   2.0000000   2.0000000
           13          14          15          16          17          18
    1   2.0000000   2.0000000   2.0000000   2.0000000   2.0000000   2.0000000
           19          20          21          22          23          24
    1   2.0000000   2.0000000   2.0000000   2.0000000   2.0000000   2.0000000
           25          26          27          28          29          30
    1   2.0000000   2.0000000   2.0000000   2.0000000   2.0000000   2.0000000
           31          32          33          34          35          36
    1   2.0000000   2.0000000   2.0000000   2.0000000   2.0000000   2.0000000
           37          38          39          40          41          42
    1   2.0000000   2.0000000   2.0000000   2.0000000   2.0000000   2.0000000
           43          44          45          46          47          48
    1   2.0000000   2.0000000   2.0000000   2.0000000   2.0000000   2.0000000
           49          50          51          52          53          54
    1   2.0000000   2.0000000   2.0000000   1.9974218   1.9968670   1.9839438
           55          56          57          58          59          60
    1   1.9687294   1.9637846   1.9575696   1.9510532   1.9257106   1.0342990
           61          62          63          64          65          66
    1   0.9757754   0.0851045   0.0536024   0.0441516   0.0329585   0.0290283
Natural Orbitals stored in FCHK

  Amplitudes : 
  
 | HOLE  | ALPHA        | BETA         | PART  |    AMPLITUDE 
--------------------------------------------------
 |       | 111111100000 | 111111010000 |       |     6.4568222950441E-01
 |       | 111111010000 | 111111100000 |       |    -6.4568222950440E-01
--------------------------------------------------
*** Contributions RASCI wfn    Active:  96.14
                                 Hole:   0.81
                                 Part:   3.05

      Mulliken population analysis 
 ---------------------------------------------------
   Atom    Charge (a.u.)   Spin (a.u.)  
 ---------------------------------------------------
   1  C    0.233442       -0.000000 
   2  C   -0.366302       -0.000000 
   3  H    0.122193       -0.000000 
   4  C   -0.366877       -0.000000 
   5  H    0.122190       -0.000000 
   6  C    0.227264       -0.000000 
   7  C   -0.229162       -0.000000 
   8  H    0.123757       -0.000000 
   9  C   -0.117547       -0.000000 
  10  H    0.123637       -0.000000 
  11  C   -0.117819       -0.000000 
  12  H    0.123632       -0.000000 
  13  C   -0.228536       -0.000000 
  14  H    0.123815       -0.000000 
  15  C    0.226420       -0.000000 
  16  C    0.227214       -0.000000 
  17  C   -0.229246       -0.000000 
  18  H    0.123729       -0.000000 
  19  C   -0.117314       -0.000000 
  20  H    0.123648       -0.000000 
  21  C   -0.117863       -0.000000 
  22  H    0.123667       -0.000000 
  23  C   -0.228801       -0.000000 
  24  H    0.123782       -0.000000 
  25  C    0.226860       -0.000000 
  26  C   -0.366602       -0.000000 
  27  H    0.122151       -0.000000 
  28  C    0.232503       -0.000000 
  29  C   -0.366100       -0.000000 
  30  H    0.122267       -0.000000 
 ---------------------------------------------------
   Sum:    0.000000       -0.000000 
 ---------------------------------------------------
 
  
 NATURAL OCCUPATION NUMBERS (higher than 1.0E-05)
            1           2           3           4           5           6
    1   2.0000000   2.0000000   2.0000000   2.0000000   2.0000000   2.0000000
            7           8           9          10          11          12
    1   2.0000000   2.0000000   2.0000000   2.0000000   2.0000000   2.0000000
           13          14          15          16          17          18
    1   2.0000000   2.0000000   2.0000000   2.0000000   2.0000000   2.0000000
           19          20          21          22          23          24
    1   2.0000000   2.0000000   2.0000000   2.0000000   2.0000000   2.0000000
           25          26          27          28          29          30
    1   2.0000000   2.0000000   2.0000000   2.0000000   2.0000000   2.0000000
           31          32          33          34          35          36
    1   2.0000000   2.0000000   2.0000000   2.0000000   2.0000000   2.0000000
           37          38          39          40          41          42
    1   2.0000000   2.0000000   2.0000000   2.0000000   2.0000000   2.0000000
           43          44          45          46          47          48
    1   2.0000000   2.0000000   2.0000000   2.0000000   2.0000000   2.0000000
           49          50          51          52          53          54
    1   2.0000000   2.0000000   2.0000000   1.9974218   1.9968670   1.9839438
           55          56          57          58          59          60
    1   1.9687294   1.9637846   1.9575696   1.9510532   1.9257106   1.0342990
           61          62          63          64          65          66
    1   0.9757754   0.0851045   0.0536024   0.0441516   0.0329585   0.0290283
  
*** Unpaired Electrons
 Yamaguchi Nd:         2.97
 Head-Gordon Nu:       2.44
 Head-Gordon Nu_nl:    2.10
  
**************************************************
 RAS-CI total energy for state   3:   -688.828050693388
  Excitation energy (eV) =  3.097628980548
  State symmetry: A1  (C1       )
  <S^2>      :  2.0000
  Dipole Moment:   -0.0000 X     0.0000 Y     0.0004 Z
  Trans. Moment:   -0.0000 X    -0.0000 Y     0.0000 Z
  Strength   :  0.000000
  Natural transition orbitals ( 1 -> 3 ):
   e-/hole pair  1:  ampl =  0.640831 ( 41.1%)   [12 : 13]
   e-/hole pair  2:  ampl =  0.608849 ( 37.1%)   [11 : 14]
   Sum of square amplitudes: 0.84

 NATURAL OCCUPATION NUMBERS (higher than 1.0E-05)
            1           2           3           4           5           6
    1   2.0000000   2.0000000   2.0000000   2.0000000   2.0000000   2.0000000
            7           8           9          10          11          12
    1   2.0000000   2.0000000   2.0000000   2.0000000   2.0000000   2.0000000
           13          14          15          16          17          18
    1   2.0000000   2.0000000   2.0000000   2.0000000   2.0000000   2.0000000
           19          20          21          22          23          24
    1   2.0000000   2.0000000   2.0000000   2.0000000   2.0000000   2.0000000
           25          26          27          28          29          30
    1   2.0000000   2.0000000   2.0000000   2.0000000   2.0000000   2.0000000
           31          32          33          34          35          36
    1   2.0000000   2.0000000   2.0000000   2.0000000   2.0000000   2.0000000
           37          38          39          40          41          42
    1   2.0000000   2.0000000   2.0000000   2.0000000   2.0000000   2.0000000
           43          44          45          46          47          48
    1   2.0000000   2.0000000   2.0000000   2.0000000   2.0000000   2.0000000
           49          50          51          52          53          54
    1   2.0000000   2.0000000   2.0000000   1.9951321   1.9949793   1.9770505
           55          56          57          58          59          60
    1   1.9643858   1.9484237   1.9466989   1.9406874   1.4793585   1.4743520
           61          62          63          64          65          66
    1   0.5885252   0.4845450   0.0626357   0.0617020   0.0492269   0.0322967
Natural Orbitals stored in FCHK

  Amplitudes : 
  
 | HOLE  | ALPHA        | BETA         | PART  |    AMPLITUDE 
--------------------------------------------------
 |       | 111111100000 | 111111001000 |       |     3.9892357205899E-01
 |       | 111111100000 | 111111000001 |       |    -1.1419304871918E-01
 |       | 111111100000 | 111110110000 |       |    -4.2820537219195E-01
 |       | 111111100000 | 111110100010 |       |     1.2185351587886E-01
 |       | 111111100000 | 111011101000 |       |    -1.2631847244686E-01
 |       | 111111100000 | 101111110000 |       |    -1.0200390612466E-01
 |       | 111111001000 | 111111100000 |       |    -3.9892357205801E-01
 |       | 111111000001 | 111111100000 |       |     1.1419304871855E-01
 |       | 111110110000 | 111111100000 |       |     4.2820537219236E-01
 |       | 111110100010 | 111111100000 |       |    -1.2185351587908E-01
 |       | 111011101000 | 111111100000 |       |     1.2631847244686E-01
 |       | 101111110000 | 111111100000 |       |     1.0200390612472E-01
--------------------------------------------------
*** Contributions RASCI wfn    Active:  94.29
                                 Hole:   1.32
                                 Part:   4.40

      Mulliken population analysis 
 ---------------------------------------------------
   Atom    Charge (a.u.)   Spin (a.u.)  
 ---------------------------------------------------
   1  C    0.228074       -0.000000 
   2  C   -0.364999        0.000000 
   3  H    0.122090       -0.000000 
   4  C   -0.365574        0.000000 
   5  H    0.122087       -0.000000 
   6  C    0.224291       -0.000000 
   7  C   -0.215534       -0.000000 
   8  H    0.123625       -0.000000 
   9  C   -0.126438       -0.000000 
  10  H    0.123488       -0.000000 
  11  C   -0.126704       -0.000000 
  12  H    0.123483       -0.000000 
  13  C   -0.214910       -0.000000 
  14  H    0.123682       -0.000000 
  15  C    0.223444       -0.000000 
  16  C    0.224239       -0.000000 
  17  C   -0.215621       -0.000000 
  18  H    0.123597       -0.000000 
  19  C   -0.126199       -0.000000 
  20  H    0.123499       -0.000000 
  21  C   -0.126752       -0.000000 
  22  H    0.123518       -0.000000 
  23  C   -0.215173       -0.000000 
  24  H    0.123650       -0.000000 
  25  C    0.223889       -0.000000 
  26  C   -0.365304        0.000000 
  27  H    0.122048       -0.000000 
  28  C    0.227136       -0.000000 
  29  C   -0.364794        0.000000 
  30  H    0.122164       -0.000000 
 ---------------------------------------------------
   Sum:    0.000000       -0.000000 
 ---------------------------------------------------
 
  
 NATURAL OCCUPATION NUMBERS (higher than 1.0E-05)
            1           2           3           4           5           6
    1   2.0000000   2.0000000   2.0000000   2.0000000   2.0000000   2.0000000
            7           8           9          10          11          12
    1   2.0000000   2.0000000   2.0000000   2.0000000   2.0000000   2.0000000
           13          14          15          16          17          18
    1   2.0000000   2.0000000   2.0000000   2.0000000   2.0000000   2.0000000
           19          20          21          22          23          24
    1   2.0000000   2.0000000   2.0000000   2.0000000   2.0000000   2.0000000
           25          26          27          28          29          30
    1   2.0000000   2.0000000   2.0000000   2.0000000   2.0000000   2.0000000
           31          32          33          34          35          36
    1   2.0000000   2.0000000   2.0000000   2.0000000   2.0000000   2.0000000
           37          38          39          40          41          42
    1   2.0000000   2.0000000   2.0000000   2.0000000   2.0000000   2.0000000
           43          44          45          46          47          48
    1   2.0000000   2.0000000   2.0000000   2.0000000   2.0000000   2.0000000
           49          50          51          52          53          54
    1   2.0000000   2.0000000   2.0000000   1.9951321   1.9949793   1.9770505
           55          56          57          58          59          60
    1   1.9643858   1.9484237   1.9466989   1.9406874   1.4793585   1.4743520
           61          62          63          64          65          66
    1   0.5885252   0.4845450   0.0626357   0.0617020   0.0492269   0.0322967
  
*** Unpaired Electrons
 Yamaguchi Nd:         3.97
 Head-Gordon Nu:       2.56
 Head-Gordon Nu_nl:    2.51
  
**************************************************
 RAS-CI total energy for state   4:   -688.818740333883
  Excitation energy (eV) =  3.350976752600
  State symmetry: A1  (C1       )
  <S^2>      :  0.0000
  Dipole Moment:    0.0000 X     0.0002 Y     0.0003 Z
  Trans. Moment:   -0.0001 X    -1.1178 Y     0.0000 Z
  Strength   :  0.102581
  Natural transition orbitals ( 1 -> 4 ):
   e-/hole pair  1:  ampl =  0.853715 ( 72.9%)   [12 : 13]
   e-/hole pair  2:  ampl =  0.231395 (  5.4%)   [11 : 14]
   Sum of square amplitudes: 0.80

 NATURAL OCCUPATION NUMBERS (higher than 1.0E-05)
            1           2           3           4           5           6
    1   2.0000000   2.0000000   2.0000000   2.0000000   2.0000000   2.0000000
            7           8           9          10          11          12
    1   2.0000000   2.0000000   2.0000000   2.0000000   2.0000000   2.0000000
           13          14          15          16          17          18
    1   2.0000000   2.0000000   2.0000000   2.0000000   2.0000000   2.0000000
           19          20          21          22          23          24
    1   2.0000000   2.0000000   2.0000000   2.0000000   2.0000000   2.0000000
           25          26          27          28          29          30
    1   2.0000000   2.0000000   2.0000000   2.0000000   2.0000000   2.0000000
           31          32          33          34          35          36
    1   2.0000000   2.0000000   2.0000000   2.0000000   2.0000000   2.0000000
           37          38          39          40          41          42
    1   2.0000000   2.0000000   2.0000000   2.0000000   2.0000000   2.0000000
           43          44          45          46          47          48
    1   2.0000000   2.0000000   2.0000000   2.0000000   2.0000000   2.0000000
           49          50          51          52          53          54
    1   2.0000000   2.0000000   2.0000000   1.9957892   1.9957622   1.9814933
           55          56          57          58          59          60
    1   1.9690426   1.9668481   1.9607061   1.9334431   1.9187282   1.0323278
           61          62          63          64          65          66
    1   1.0013670   0.0768170   0.0671317   0.0414511   0.0302046   0.0288878
Natural Orbitals stored in FCHK

  Amplitudes : 
  
 | HOLE  | ALPHA        | BETA         | PART  |    AMPLITUDE 
--------------------------------------------------
 |       | 111111100000 | 111111010000 |       |     5.8026097481634E-01
 |       | 111111100000 | 111111000010 |       |    -1.4911895337263E-01
 |       | 111111100000 | 111011110000 |       |    -1.1040631662606E-01
 |       | 111111010000 | 111111100000 |       |     5.8026097481636E-01
 |       | 111111010000 | 110111110000 |       |    -1.4053242146881E-01
 |       | 111111000010 | 111111100000 |       |    -1.4911895337271E-01
 |       | 111011110000 | 111111100000 |       |    -1.1040631662608E-01
 |       | 110111110000 | 111111010000 |       |    -1.4053242146883E-01
 |       | 111111000000 | 111111010000 |  71   |    -1.2281080578722E-01
 |       | 111111010000 | 111111000000 |  71   |    -1.2281080578719E-01
--------------------------------------------------
*** Contributions RASCI wfn    Active:  92.25
                                 Hole:   1.55
                                 Part:   6.20

      Mulliken population analysis 
 ---------------------------------------------------
   Atom    Charge (a.u.)   Spin (a.u.)  
 ---------------------------------------------------
   1  C    0.249273       -0.000000 
   2  C   -0.372594       -0.000000 
   3  H    0.122356       -0.000000 
   4  C   -0.373171       -0.000000 
   5  H    0.122353       -0.000000 
   6  C    0.237495       -0.000000 
   7  C   -0.235026       -0.000000 
   8  H    0.123622       -0.000000 
   9  C   -0.123421       -0.000000 
  10  H    0.123500       -0.000000 
  11  C   -0.123669       -0.000000 
  12  H    0.123495       -0.000000 
  13  C   -0.234410       -0.000000 
  14  H    0.123680       -0.000000 
  15  C    0.236661       -0.000000 
  16  C    0.237445       -0.000000 
  17  C   -0.235108       -0.000000 
  18  H    0.123595       -0.000000 
  19  C   -0.123195       -0.000000 
  20  H    0.123510       -0.000000 
  21  C   -0.123705       -0.000000 
  22  H    0.123530       -0.000000 
  23  C   -0.234676       -0.000000 
  24  H    0.123648       -0.000000 
  25  C    0.237103       -0.000000 
  26  C   -0.372931       -0.000000 
  27  H    0.122313       -0.000000 
  28  C    0.248327       -0.000000 
  29  C   -0.372428       -0.000000 
  30  H    0.122429       -0.000000 
 ---------------------------------------------------
   Sum:    0.000000       -0.000000 
 ---------------------------------------------------
 
  
 NATURAL OCCUPATION NUMBERS (higher than 1.0E-05)
            1           2           3           4           5           6
    1   2.0000000   2.0000000   2.0000000   2.0000000   2.0000000   2.0000000
            7           8           9          10          11          12
    1   2.0000000   2.0000000   2.0000000   2.0000000   2.0000000   2.0000000
           13          14          15          16          17          18
    1   2.0000000   2.0000000   2.0000000   2.0000000   2.0000000   2.0000000
           19          20          21          22          23          24
    1   2.0000000   2.0000000   2.0000000   2.0000000   2.0000000   2.0000000
           25          26          27          28          29          30
    1   2.0000000   2.0000000   2.0000000   2.0000000   2.0000000   2.0000000
           31          32          33          34          35          36
    1   2.0000000   2.0000000   2.0000000   2.0000000   2.0000000   2.0000000
           37          38          39          40          41          42
    1   2.0000000   2.0000000   2.0000000   2.0000000   2.0000000   2.0000000
           43          44          45          46          47          48
    1   2.0000000   2.0000000   2.0000000   2.0000000   2.0000000   2.0000000
           49          50          51          52          53          54
    1   2.0000000   2.0000000   2.0000000   1.9957892   1.9957622   1.9814933
           55          56          57          58          59          60
    1   1.9690426   1.9668481   1.9607061   1.9334431   1.9187282   1.0323278
           61          62          63          64          65          66
    1   1.0013670   0.0768170   0.0671317   0.0414511   0.0302046   0.0288878
  
*** Unpaired Electrons
 Yamaguchi Nd:         3.02
 Head-Gordon Nu:       2.49
 Head-Gordon Nu_nl:    2.11
  
**************************************************
 RAS-CI total energy for state   5:   -688.812336100264
  Excitation energy (eV) =  3.525244815871
  State symmetry: A1  (C1       )
  <S^2>      :  0.0000
  Dipole Moment:    0.0000 X    -0.0001 Y     0.0004 Z
  Trans. Moment:    0.0000 X    -0.0001 Y    -0.0000 Z
  Strength   :  0.000000
  Natural transition orbitals ( 1 -> 5 ):
   e-/hole pair  1:  ampl =  0.375418 ( 14.1%)   [12 : 13]
   e-/hole pair  2:  ampl =  0.362370 ( 13.1%)   [11 : 14]
   Sum of square amplitudes: 0.30

 NATURAL OCCUPATION NUMBERS (higher than 1.0E-05)
            1           2           3           4           5           6
    1   2.0000000   2.0000000   2.0000000   2.0000000   2.0000000   2.0000000
            7           8           9          10          11          12
    1   2.0000000   2.0000000   2.0000000   2.0000000   2.0000000   2.0000000
           13          14          15          16          17          18
    1   2.0000000   2.0000000   2.0000000   2.0000000   2.0000000   2.0000000
           19          20          21          22          23          24
    1   2.0000000   2.0000000   2.0000000   2.0000000   2.0000000   2.0000000
           25          26          27          28          29          30
    1   2.0000000   2.0000000   2.0000000   2.0000000   2.0000000   2.0000000
           31          32          33          34          35          36
    1   2.0000000   2.0000000   2.0000000   2.0000000   2.0000000   2.0000000
           37          38          39          40          41          42
    1   2.0000000   2.0000000   2.0000000   2.0000000   2.0000000   2.0000000
           43          44          45          46          47          48
    1   2.0000000   2.0000000   2.0000000   2.0000000   2.0000000   2.0000000
           49          50          51          52          53          54
    1   2.0000000   2.0000000   2.0000000   1.9956395   1.9943602   1.9830028
           55          56          57          58          59          60
    1   1.9570429   1.9467558   1.9357358   1.8955804   1.8438397   1.5352046
           61          62          63          64          65          66
    1   0.5307493   0.1388947   0.0754017   0.0717172   0.0546487   0.0414264
Natural Orbitals stored in FCHK

  Amplitudes : 
  
 | HOLE  | ALPHA        | BETA         | PART  |    AMPLITUDE 
--------------------------------------------------
 |       | 111111100000 | 111111100000 |       |     1.3873491164245E-01
 |       | 111111100000 | 110111110000 |       |    -1.8724482904751E-01
 |       | 111111010000 | 111111010000 |       |     7.3874365730043E-01
 |       | 111111001000 | 111110110000 |       |    -1.1178394280504E-01
 |       | 111110110000 | 111111001000 |       |    -1.1178394280507E-01
 |       | 111110110000 | 111110110000 |       |    -1.3033890260578E-01
 |       | 110111110000 | 111111100000 |       |    -1.8724482904753E-01
 |       | 111111000000 | 111111100000 |  71   |    -1.6728551266967E-01
[...]
  0.4817   0.4868   0.4894   0.4961   0.5041   0.5082   0.5124   0.5182
  0.5281   0.5354   0.5373   0.5419   0.5438   0.5622   0.5665   0.5658
  0.5698   0.5853   0.5854   0.5936   0.5944   0.6076   0.6210   0.6269
  0.6329   0.6392   0.6473   0.6480   0.6489   0.6495   0.6502   0.6515
  0.6550   0.6580   0.6812   0.6814   0.6890   0.7142   0.7143   0.7229
  0.7376   0.7475   0.7549   0.7661   0.7944   0.8078   0.8166   0.8220
  0.8218   0.8233   0.8383   0.8391   0.8443   0.8455   0.8578   0.8808
  0.8886   0.8926   0.8953   0.8948   0.9092   0.9181   0.9181   0.9181
  0.9268   0.9313   0.9322   0.9384   0.9487   0.9488   0.9483   0.9639
  0.9751   0.9861   0.9871   0.9928   0.9916   0.9947   1.0100   1.0386
  1.0501   1.0550   1.0638   1.0664   1.0793   1.0889   1.1018   1.1017
  1.1053   1.1038   1.1075   1.1164   1.1322   1.1499   1.1737   1.1793
  1.1881   1.1892   1.2009   1.2116   1.2256   1.2316   1.2325   1.2484
  1.2683   1.3164   1.3219   1.3525   1.3547   1.3594   1.3653   1.3672
  1.3717   1.3774   1.3792   1.4139   1.4250   1.4297   1.4397   1.4380
  1.4530   1.4552   1.4678   1.4755   1.4907   1.4914   1.5003   1.5069
  1.5084   1.5291   1.5379   1.5483   1.5528   1.5620   1.5947   1.5953
  1.5928   1.6092   1.6446   1.6560   1.6610   1.6731   1.6736   1.6875
  1.7036   1.7101   1.7215   1.7260   1.7341   1.7492   1.7643   1.7640
  1.7683   1.7771   1.7818   1.7958   1.7993   1.8087   1.8152   1.8119
  1.8277   1.8456   1.8508   1.8655   1.8729   1.8787   1.8827   1.9081
  1.9358   1.9355   1.9427   1.9437   1.9451   1.9572   1.9671   1.9754
  1.9739   1.9841   1.9887   2.0044   2.0074   2.0342   2.0444   2.0454
  2.0530   2.0707   2.0852   2.1138   2.1341   2.1543   2.1561   2.1697
  2.1858   2.1857   2.1938   2.1988   2.2226   2.2284   2.2307   2.2364
  2.2695   2.2730   2.2856   2.2982   2.3017   2.3425   2.3497   2.3638
  2.3708   2.4206   2.4327   2.4342   2.4474   2.4660   2.4710   2.4744
  2.4959   2.4978   2.5038   2.5091   2.5112   2.5205   2.5283   2.5343
  2.5531   2.5556   2.6033   2.6109   2.6142   2.6310   2.6324   2.6426
  2.6501   2.6648   2.6982   2.7318   2.7340   2.7538   2.7625   2.7671
  2.7732   2.7830   2.8003   2.8377   2.8374   2.8380   2.8646   2.8676
  2.8705   2.8719   2.9107   2.9250   2.9286   2.9426   2.9615   2.9604
  2.9721   2.9753   2.9756   2.9798   2.9882   2.9933   2.9953   3.0446
  3.0502   3.0529   3.0559   3.0634   3.0678   3.0742   3.0747   3.1012
  3.1061   3.1052   3.1082   3.1092   3.1231   3.1256   3.1397   3.1443
  3.1586   3.1589   3.1715   3.1823   3.1807   3.1849   3.1913   3.1909
  3.1965   3.2083   3.2123   3.2189   3.2269   3.2474   3.2536   3.2589
  3.2615   3.2665   3.2671   3.2797   3.2923   3.2915   3.3043   3.3125
  3.3156   3.3184   3.3549   3.3556   3.3639   3.3677   3.3756   3.3831
  3.3841   3.3876   3.3959   3.3965   3.4063   3.4175   3.4275   3.4310
  3.4590   3.4575   3.4646   3.4673   3.4907   3.5067   3.5080   3.5087
  3.5133   3.5154   3.5248   3.5511   3.5531   3.5619   3.5712   3.5769
  3.5745   3.5848   3.5986   3.6049   3.6153   3.6210   3.6386   3.6403
  3.6519   3.6604   3.6654   3.6651   3.6673   3.6703   3.7007   3.7027
  3.7104   3.7142   3.7175   3.7220   3.7338   3.7551   3.7594   3.7766
  3.7788   3.7907   3.7967   3.8000   3.8006   3.8095   3.8217   3.8259
  3.8342   3.8379   3.8523   3.8538   3.8791   3.8805   3.8853   3.8976
  3.9001   3.9054   3.9129   3.9201   3.9239   3.9420   3.9593   3.9737
  3.9984   4.0057   4.0273   4.0261   4.0367   4.0363   4.0631   4.1033
  4.1155   4.1203   4.1422   4.1534   4.1780   4.1953   4.2282   4.2339
  4.2498   4.2510   4.2580   4.2701   4.2887   4.3016   4.3140   4.3269
  4.3598   4.3617   4.3624   4.3659   4.3943   4.4023   4.4317   4.4376
  4.4406   4.4409   4.4497   4.4814   4.5024   4.5312   4.5313   4.5382
  4.5387   4.5399   4.5431   4.5428   4.5681   4.5741   4.5938   4.5962
  4.6107   4.6125   4.6380   4.6485   4.6772   4.7076   4.7277   4.7342
  4.7379   4.7476   4.7605   4.7800   4.7796   4.8194   4.8260   4.8445
  4.8674   4.8854   4.9046   4.9265   4.9628   5.0066   5.0110   5.0407
  5.0660   5.0834   5.0873   5.1026   5.1617   5.1760   5.1780   5.1974
  5.2174   5.2305   5.2421   5.2512   5.2866   5.3045   5.3191   5.3365
  5.3815   5.3989   5.4807   5.5095   5.5121   5.5479   5.5723   5.5977
  5.6131   5.6754   5.6902   5.7249   5.7879   5.8730   5.8730   5.9073
  5.9329   5.9641   6.0117   6.0616   6.0715   6.1535   6.1661   6.3294
  6.6133  22.9509  23.5060  23.7021  23.7278  23.8143  23.8165  23.8190
 23.8918  23.9626  23.9699  23.9733  24.0038  24.0599  24.1216  24.3594
 24.3899  24.7220  24.9934
 --------------------------------------------------------------
 
          Ground-State Mulliken Net Atomic Charges

     Atom                 Charge (a.u.)
  ----------------------------------------
      1 C                     0.240134
      2 C                    -0.370347
      3 H                     0.122220
      4 C                    -0.370960
      5 H                     0.122217
      6 C                     0.227286
      7 C                    -0.229031
      8 H                     0.123868
      9 C                    -0.117222
     10 H                     0.123741
     11 C                    -0.117502
     12 H                     0.123736
     13 C                    -0.228400
     14 H                     0.123925
     15 C                     0.226439
     16 C                     0.227235
     17 C                    -0.229110
     18 H                     0.123840
     19 C                    -0.116997
     20 H                     0.123752
     21 C                    -0.117539
     22 H                     0.123771
     23 C                    -0.228669
     24 H                     0.123893
     25 C                     0.226884
     26 C                    -0.370674
     27 H                     0.122178
     28 C                     0.239195
     29 C                    -0.370156
     30 H                     0.122294
  ----------------------------------------
  Sum of atomic charges =     0.000000

  Do orbital-by-orbital Lowdin population analysis
 
 
 Partial Mulliken analysis unavailable for frozen orbitals
 
 -----------------------------------------------------------------
                    Cartesian Multipole Moments
 -----------------------------------------------------------------
    Charge (ESU x 10^10)
                 0.0000
    Dipole Moment (Debye)
         X      -0.0001      Y      -0.0000      Z      -0.0011
       Tot       0.0011
    Quadrupole Moments (Debye-Ang)
        XX     -92.5335     XY       0.0001     YY     -90.7394
        XZ      -0.0007     YZ       0.0001     ZZ    -114.9359
    Octopole Moments (Debye-Ang^2)
       XXX       0.0011    XXY      -0.0005    XYY      -0.0001
       YYY      -0.0001    XXZ      -0.0776    XYZ      -0.3150
       YYZ       0.0012    XZZ      -0.0001    YZZ      -0.0001
       ZZZ       0.0002
    Hexadecapole Moments (Debye-Ang^3)
      XXXX   -5934.2865   XXXY      -0.0045   XXYY   -1137.9448
      XYYY       0.0005   YYYY    -881.4921   XXXZ      -0.0364
      XXYZ       0.0076   XYYZ       0.0001   YYYZ      -0.0003
      XXZZ   -1278.9630   XYZZ       0.0008   YYZZ    -209.9486
      XZZZ      -0.0008   YZZZ       0.0001   ZZZZ    -138.6103
 -----------------------------------------------------------------
 Mayer SCF Bond Order, atomic valence on the diagonal:

            1           2           3           4           5           6
    1   3.8295784   1.3805993  -0.0194492   1.3816068  -0.0194266  -0.0341645
    2   1.3805993   3.6238193   0.9906943   0.1132747   0.0081833   0.0166553
    3  -0.0194492   0.9906943   0.9766133   0.0081760   0.0027904   0.0008988
    4   1.3816068   0.1132747   0.0081760   3.6246863   0.9907246   1.0813574
    5  -0.0194266   0.0081833   0.0027904   0.9907246   0.9766318  -0.0274173
    6  -0.0341645   0.0166553   0.0008988   1.0813574  -0.0274173   3.7763452
    7   0.0227233   0.0157959   0.0000663  -0.0127975   0.0031294   1.4001018
    8   0.0010229  -0.0000420   0.0000545   0.0085651   0.0022905  -0.0285893
    9  -0.0018623   0.0019834   0.0000353   0.0136952   0.0001604  -0.0053492
   10   0.0001138   0.0000501   0.0000005   0.0005225   0.0000082   0.0057394
   11   0.0124162   0.0110602   0.0000665   0.0038687  -0.0001515   0.0437790
   12   0.0000452   0.0000822   0.0000009   0.0003410   0.0000177   0.0007618
   13  -0.0051725   0.0070945   0.0000511   0.0149732   0.0006375  -0.0188044
   14  -0.0004287   0.0000920  -0.0000067   0.0008856   0.0002867   0.0060649
   15   0.0160986   0.0005521  -0.0000116  -0.0197029   0.0062956   1.3266599
   16  -0.0341283   1.0816968  -0.0273962   0.0166207   0.0009037  -0.0008129
   17   0.0226763  -0.0127081   0.0031517   0.0158068   0.0000641   0.0006844
   18   0.0010288   0.0085557   0.0022897  -0.0000399   0.0000547   0.0001423
   19  -0.0018268   0.0136279   0.0001565   0.0019757   0.0000362   0.0008022
   20   0.0001123   0.0005263   0.0000086   0.0000491   0.0000005   0.0000236
   21   0.0123890   0.0039009  -0.0001497   0.0110627   0.0000658  -0.0000258
   22   0.0000437   0.0003425   0.0000178   0.0000830   0.0000009   0.0000082
   23  -0.0051466   0.0149667   0.0006346   0.0070830   0.0000515   0.0012605
   24  -0.0004252   0.0008866   0.0002860   0.0000908  -0.0000067  -0.0000208
   25   0.0159599  -0.0195633   0.0063047   0.0005654  -0.0000125   0.0035519
   26  -0.0265539  -0.0226359   0.0000925   0.0341811   0.0006546   0.0006827
   27   0.0068291   0.0000897   0.0001041   0.0006538   0.0002722  -0.0000078
   28   1.1247922  -0.0267790   0.0068189  -0.0264961   0.0068233   0.0156327
   29  -0.0270943   0.0341797   0.0006548  -0.0225337   0.0000897  -0.0195526
   30   0.0067997   0.0006575   0.0002722   0.0000935   0.0001049   0.0062831
            7           8           9          10          11          12
    1   0.0227233   0.0010229  -0.0018623   0.0001138   0.0124162   0.0000452
    2   0.0157959  -0.0000420   0.0019834   0.0000501   0.0110602   0.0000822
    3   0.0000663   0.0000545   0.0000353   0.0000005   0.0000665   0.0000009
    4  -0.0127975   0.0085651   0.0136952   0.0005225   0.0038687   0.0003410
    5   0.0031294   0.0022905   0.0001604   0.0000082  -0.0001515   0.0000177
    6   1.4001018  -0.0285893  -0.0053492   0.0057394   0.0437790   0.0007618
    7   3.9303305   0.9834358   1.4265941  -0.0139783   0.0458284   0.0057092
    8   0.9834358   0.9717150  -0.0093039  -0.0003506   0.0062363   0.0006598
    9   1.4265941  -0.0093039   3.9278454   0.9845636   1.4027077  -0.0121079
   10  -0.0139783  -0.0003506   0.9845636   0.9720325  -0.0121094  -0.0002022
   11   0.0458284   0.0062363   1.4027077  -0.0121094   3.9283907   0.9845536
   12   0.0057092   0.0006598  -0.0121079  -0.0002022   0.9845536   0.9720392
   13   0.0474114   0.0006329   0.0456880   0.0057068   1.4267374  -0.0139698
   14   0.0006330   0.0000229   0.0062285   0.0006608  -0.0092547  -0.0003481
   15  -0.0184425   0.0060765   0.0436360   0.0007606  -0.0050952   0.0057434
   16   0.0006834   0.0001444   0.0008083   0.0000228  -0.0000284   0.0000083
   17   0.0018773  -0.0000005   0.0003446   0.0000029   0.0014636   0.0000137
   18  -0.0000003   0.0000046   0.0000077   0.0000001   0.0000086   0.0000003
   19   0.0003464   0.0000076   0.0009827   0.0000075   0.0002212   0.0000020
   20   0.0000032   0.0000001   0.0000074   0.0000002   0.0000021   0.0000002
   21   0.0014656   0.0000086   0.0002180   0.0000019   0.0009820   0.0000075
   22   0.0000135   0.0000003   0.0000021   0.0000002   0.0000074   0.0000002
   23   0.0009024   0.0000235   0.0014678   0.0000138   0.0003456   0.0000030
   24   0.0000237   0.0000013   0.0000086   0.0000003   0.0000077   0.0000001
   25   0.0012574  -0.0000213  -0.0000155   0.0000086   0.0007931   0.0000233
   26   0.0070255   0.0000865   0.0111015   0.0000831   0.0019283   0.0000491
   27   0.0000499  -0.0000067   0.0000656   0.0000009   0.0000370   0.0000005
   28  -0.0050021  -0.0004176   0.0122811   0.0000439  -0.0017969   0.0001167
   29   0.0148372   0.0008856   0.0040452   0.0003426   0.0136146   0.0005194
   30   0.0006372   0.0002869  -0.0001487   0.0000175   0.0001619   0.0000080
           13          14          15          16          17          18
    1  -0.0051725  -0.0004287   0.0160986  -0.0341283   0.0226763   0.0010288
    2   0.0070945   0.0000920   0.0005521   1.0816968  -0.0127081   0.0085557
    3   0.0000511  -0.0000067  -0.0000116  -0.0273962   0.0031517   0.0022897
    4   0.0149732   0.0008856  -0.0197029   0.0166207   0.0158068  -0.0000399
    5   0.0006375   0.0002867   0.0062956   0.0009037   0.0000641   0.0000547
    6  -0.0188044   0.0060649   1.3266599  -0.0008129   0.0006844   0.0001423
    7   0.0474114   0.0006330  -0.0184425   0.0006834   0.0018773  -0.0000003
    8   0.0006329   0.0000229   0.0060765   0.0001444  -0.0000005   0.0000046
    9   0.0456880   0.0062285   0.0436360   0.0008083   0.0003446   0.0000077
   10   0.0057068   0.0006608   0.0007606   0.0000228   0.0000029   0.0000001
   11   1.4267374  -0.0092547  -0.0050952  -0.0000284   0.0014636   0.0000086
   12  -0.0139698  -0.0003481   0.0057434   0.0000083   0.0000137   0.0000003
   13   3.9298673   0.9833162   1.3999863   0.0012678   0.0008993   0.0000227
   14   0.9833162   0.9716811  -0.0285327  -0.0000192   0.0000228   0.0000012
   15   1.3999863  -0.0285327   3.7775685   0.0035174   0.0012615  -0.0000194
   16   0.0012678  -0.0000192   0.0035174   3.7768647   1.3995831  -0.0285721
   17   0.0008993   0.0000228   0.0012615   1.3995831   3.9302244   0.9834488
   18   0.0000227   0.0000012  -0.0000194  -0.0285721   0.9834488   0.9717521
   19   0.0014692   0.0000090  -0.0000144  -0.0054416   1.4267899  -0.0092884
   20   0.0000137   0.0000003   0.0000080   0.0057349  -0.0139485  -0.0003490
   21   0.0003404   0.0000072   0.0007952   0.0436391   0.0460270   0.0062367
   22   0.0000031   0.0000001   0.0000235   0.0007582   0.0057069   0.0006606
   23   0.0018864   0.0000003   0.0006917  -0.0186112   0.0473211   0.0006332
   24  -0.0000008   0.0000046   0.0001426   0.0060653   0.0006318   0.0000229
   25   0.0006911   0.0001405  -0.0007999   1.3271992  -0.0184874   0.0060675
   26   0.0158564  -0.0000386   0.0165064  -0.0196280   0.0148820   0.0008862
   27   0.0000623   0.0000541   0.0008954   0.0063032   0.0006391   0.0002871
   28   0.0226728   0.0010254  -0.0338526   0.0158904  -0.0050386  -0.0004208
   29  -0.0127368   0.0085698   1.0817620   0.0006641   0.0070582   0.0000892
   30   0.0031309   0.0022839  -0.0273730  -0.0000085   0.0000504  -0.0000067
           19          20          21          22          23          24
    1  -0.0018268   0.0001123   0.0123890   0.0000437  -0.0051466  -0.0004252
    2   0.0136279   0.0005263   0.0039009   0.0003425   0.0149667   0.0008866
    3   0.0001565   0.0000086  -0.0001497   0.0000178   0.0006346   0.0002860
    4   0.0019757   0.0000491   0.0110627   0.0000830   0.0070830   0.0000908
    5   0.0000362   0.0000005   0.0000658   0.0000009   0.0000515  -0.0000067
    6   0.0008022   0.0000236  -0.0000258   0.0000082   0.0012605  -0.0000208
    7   0.0003464   0.0000032   0.0014656   0.0000135   0.0009024   0.0000237
    8   0.0000076   0.0000001   0.0000086   0.0000003   0.0000235   0.0000013
    9   0.0009827   0.0000074   0.0002180   0.0000021   0.0014678   0.0000086
   10   0.0000075   0.0000002   0.0000019   0.0000002   0.0000138   0.0000003
   11   0.0002212   0.0000021   0.0009820   0.0000074   0.0003456   0.0000077
   12   0.0000020   0.0000002   0.0000075   0.0000002   0.0000030   0.0000001
   13   0.0014692   0.0000137   0.0003404   0.0000031   0.0018864  -0.0000008
   14   0.0000090   0.0000003   0.0000072   0.0000001   0.0000003   0.0000046
   15  -0.0000144   0.0000080   0.0007952   0.0000235   0.0006917   0.0001426
   16  -0.0054416   0.0057349   0.0436391   0.0007582  -0.0186112   0.0060653
   17   1.4267899  -0.0139485   0.0460270   0.0057069   0.0473211   0.0006318
   18  -0.0092884  -0.0003490   0.0062367   0.0006606   0.0006332   0.0000229
   19   3.9282062   0.9845020   1.4029155  -0.0120571   0.0455730   0.0062272
   20   0.9845020   0.9720239  -0.0120882  -0.0001991   0.0057065   0.0006612
   21   1.4029155  -0.0120882   3.9284070   0.9844553   1.4266606  -0.0092661
   22  -0.0120571  -0.0001991   0.9844553   0.9720382  -0.0139194  -0.0003460
   23   0.0455730   0.0057065   1.4266606  -0.0139194   3.9301173   0.9833510
   24   0.0062272   0.0006612  -0.0092661  -0.0003460   0.9833510   0.9717123
   25   0.0438933   0.0007626  -0.0052432   0.0057382   1.4003517  -0.0285128
   26   0.0039911   0.0003392   0.0136677   0.0005187  -0.0128478   0.0085511
   27  -0.0001491   0.0000171   0.0001611   0.0000081   0.0031098   0.0022816
   28   0.0123034   0.0000453  -0.0018213   0.0001181   0.0227134   0.0010316
   29   0.0110781   0.0000836   0.0019568   0.0000489   0.0158281  -0.0000395
   30   0.0000658   0.0000009   0.0000367   0.0000005   0.0000634   0.0000542
           25          26          27          28          29          30
    1   0.0159599  -0.0265539   0.0068291   1.1247922  -0.0270943   0.0067997
    2  -0.0195633  -0.0226359   0.0000897  -0.0267790   0.0341797   0.0006575
    3   0.0063047   0.0000925   0.0001041   0.0068189   0.0006548   0.0002722
    4   0.0005654   0.0341811   0.0006538  -0.0264961  -0.0225337   0.0000935
    5  -0.0000125   0.0006546   0.0002722   0.0068233   0.0000897   0.0001049
    6   0.0035519   0.0006827  -0.0000078   0.0156327  -0.0195526   0.0062831
    7   0.0012574   0.0070255   0.0000499  -0.0050021   0.0148372   0.0006372
    8  -0.0000213   0.0000865  -0.0000067  -0.0004176   0.0008856   0.0002869
    9  -0.0000155   0.0111015   0.0000656   0.0122811   0.0040452  -0.0001487
   10   0.0000086   0.0000831   0.0000009   0.0000439   0.0003426   0.0000175
   11   0.0007931   0.0019283   0.0000370  -0.0017969   0.0136146   0.0001619
   12   0.0000233   0.0000491   0.0000005   0.0001167   0.0005194   0.0000080
   13   0.0006911   0.0158564   0.0000623   0.0226728  -0.0127368   0.0031309
   14   0.0001405  -0.0000386   0.0000541   0.0010254   0.0085698   0.0022839
   15  -0.0007999   0.0165064   0.0008954  -0.0338526   1.0817620  -0.0273730
   16   1.3271992  -0.0196280   0.0063032   0.0158904   0.0006641  -0.0000085
   17  -0.0184874   0.0148820   0.0006391  -0.0050386   0.0070582   0.0000504
   18   0.0060675   0.0008862   0.0002871  -0.0004208   0.0000892  -0.0000067
   19   0.0438933   0.0039911  -0.0001491   0.0123034   0.0110781   0.0000658
   20   0.0007626   0.0003392   0.0000171   0.0000453   0.0000836   0.0000009
   21  -0.0052432   0.0136677   0.0001611  -0.0018213   0.0019568   0.0000367
   22   0.0057382   0.0005187   0.0000081   0.0001181   0.0000489   0.0000005
   23   1.4003517  -0.0128478   0.0031098   0.0227134   0.0158281   0.0000634
   24  -0.0285128   0.0085511   0.0022816   0.0010316  -0.0000395   0.0000542
   25   3.7779854   1.0813943  -0.0274684  -0.0340653   0.0165658   0.0009066
   26   1.0813943   3.6237394   0.9908896   1.3807273   0.1131651   0.0081838
   27  -0.0274684   0.9908896   0.9766070  -0.0195447   0.0081842   0.0027881
   28  -0.0340653   1.3807273  -0.0195447   3.8297825   1.3813483  -0.0193674
   29   0.0165658   0.1131651   0.0081842   1.3813483   3.6242086   0.9905942
   30   0.0009066   0.0081838   0.0027881  -0.0193674   0.9905942   0.9765773


 Total job time:  576105.52s(wall), 508231.31s(cpu) 
 Tue Oct 10 02:22:17 2023

        *************************************************************
        *                                                           *
        *  Thank you very much for using Q-Chem.  Have a nice day.  *
        *                                                           *
        *************************************************************


