                  Welcome to Q-Chem
     A Quantum Leap Into The Future Of Chemistry


 Q-Chem 6.0 (devel), Q-Chem, Inc., Pleasanton, CA (2022)

 E. Epifanovsky,  A. T. B. Gilbert,  Xintian Feng,  Joonho Lee,  Yuezhi Mao,  
 N. Mardirossian,  P. Pokhilko,  A. White,  M. Wormit,  M. P. Coons,  
 A. L. Dempwolff,  Zhengting Gan,  D. Hait,  P. R. Horn,  L. D. Jacobson,  
 I. Kaliman,  J. Kussmann,  A. W. Lange,  Ka Un Lao,  D. S. Levine,  Jie Liu,  
 S. C. McKenzie,  A. F. Morrison,  K. Nanda,  F. Plasser,  D. R. Rehn,  
 M. L. Vidal,  Zhi-Qiang You,  Ying Zhu,  B. Alam,  B. Albrecht,  
 A. Aldossary,  E. Alguire,  J. H. Andersen,  V. Athavale,  D. Barton,  
 K. Begam,  A. Behn,  N. Bellonzi,  Y. A. Bernard,  E. J. Berquist,  
 H. Burton,  A. Carreras,  K. Carter-Fenk,  Romit Chakraborty,  
 Chandrima Chakravarty,  Junhan Chen,  A. D. Chien,  K. D. Closser,  
 V. Cofer-Shabica,  L. Cunha,  S. Dasgupta,  Jia Deng,  M. de Wergifosse,  
 M. Diedenhofen,  Hainam Do,  S. Ehlert,  Po-Tung Fang,  S. Fatehi,  
 Qingguo Feng,  T. Friedhoff,  B. Ganoe,  J. Gayvert,  Qinghui Ge,  
 G. Gidofalvi,  M. Goldey,  J. Gomes,  C. Gonzalez-Espinoza,  S. Gulania,  
 A. Gunina,  J. A. Gyamfi,  M. W. D. Hanson-Heine,  P. H. P. Harbach,  
 A. W. Hauser,  M. F. Herbst,  M. Hernandez Vera,  M. Hodecker,  
 Z. C. Holden,  S. Houck,  Xunkun Huang,  Kerwin Hui,  B. C. Huynh,  
 K. Ikeda,  M. Ivanov,  Hyunjun Ji,  Zuxin Jin,  Hanjie Jiang,  B. Kaduk,  
 S. Kaehler,  R. Kang,  K. Khistyaev,  Jaehoon Kim,  Yongbin Kim,  
 P. Klunzinger,  Z. Koczor-Benda,  Joong Hoon Koh,  D. Kosenkov,  
 Saikiran Kotaru,  L. Koulias,  T. Kowalczyk,  C. M. Krauter,  K. Kue,  
 A. Kunitsa,  T. Kus,  A. Landau,  K. V. Lawler,  D. Lefrancois,  S. Lehtola,  
 Rain Li,  Shaozhi Li,  Yi-Pei Li,  Jiashu Liang,  M. Liebenthal,  
 Hung-Hsuan Lin,  You-Sheng Lin,  Fenglai Liu,  Kuan-Yu Liu,  
 M. Loipersberger,  A. Luenser,  C. Malbon,  A. Manjanath,  P. Manohar,  
 E. Mansoor,  S. F. Manzer,  Shan-Ping Mao,  A. V. Marenich,  T. Markovich,  
 S. Mason,  F. Matz,  S. A. Maurer,  P. F. McLaughlin,  M. F. S. J. Menger,  
 J.-M. Mewes,  S. A. Mewes,  P. Morgante,  Mohammad Mostafanejad,  
 J. W. Mullinax,  K. J. Oosterbaan,  G. Paran,  V. Parravicini,  
 Alexander C. Paul,  Suranjan K. Paul,  F. Pavosevic,  Zheng Pei,  S. Prager,  
 E. I. Proynov,  E. Ramos,  B. Rana,  A. E. Rask,  A. Rettig,  R. M. Richard,  
 F. Rob,  E. Rossomme,  T. Scheele,  M. Scheurer,  M. Schneider,  
 P. E. Schneider,  N. Sergueev,  S. M. Sharada,  Hengyuan Shen,  
 W. Skomorowski,  D. W. Small,  C. J. Stein,  Yingli Su,  Yu-Chuan Su,  
 E. J. Sundstrom,  Zhen Tao,  J. Thirman,  Hung-Yi Tsai,  T. Tsuchimochi,  
 N. M. Tubman,  C. Utku,  S. P. Veccham,  O. Vydrov,  J. Wenzel,  
 Jonathan Wong,  J. Witte,  A. Yamada,  Chou-Hsun Yang,  Kun Yao,  
 S. Yeganeh,  S. R. Yost,  A. Zech,  F. Zeller,  Igor Ying Zhang,  
 Xing Zhang,  Yu Zhang,  D. Zuev,  A. Aspuru-Guzik,  A. T. Bell,  
 N. A. Besley,  K. B. Bravaya,  B. R. Brooks,  D. Casanova,  Jeng-Da Chai,  
 Hsing-Ta Chen,  S. Coriani,  C. J. Cramer,  A. E. DePrince, III,  
 R. A. DiStasio Jr.,  A. Dreuw,  B. D. Dunietz,  T. R. Furlani,  
 W. A. Goddard III,  S. Grimme,  S. Hammes-Schiffer,  T. Head-Gordon,  
 W. J. Hehre,  Chao-Ping Hsu,  T.-C. Jagau,  Yousung Jung,  A. Klamt,  
 Jing Kong,  D. S. Lambrecht,  Xiangyuan Li,  WanZhen Liang,  N. J. Mayhall,  
 C. W. McCurdy,  J. B. Neaton,  T. Neudecker,  C. Ochsenfeld,  
 J. A. Parkhill,  R. Peverati,  V. A. Rassolov,  Haisheng Ren,  Yihan Shao,  
 L. V. Slipchenko,  R. P. Steele,  J. E. Subotnik,  A. J. W. Thom,  
 A. Tkatchenko,  D. G. Truhlar,  T. Van Voorhis,  Fan Wang,  
 T. A. Wesolowski,  K. B. Whaley,  H. L. Woodcock III,  P. M. Zimmerman,  
 S. Faraji,  P. M. W. Gill,  M. Head-Gordon,  J. M. Herbert,  A. I. Krylov

 Contributors to earlier versions of Q-Chem not listed above: 
 R. D. Adamson,  B. Austin,  R. Baer,  J. Baker,  G. J. O. Beran,  
 K. Brandhorst,  S. T. Brown,  E. F. C. Byrd,  Arup K. Chakraborty,  
 G. K. L. Chan,  Chun-Min Chang,  Yunqing Chen,  C.-L. Cheng,  
 Siu Hung Chien,  D. M. Chipman,  D. L. Crittenden,  H. Dachsel,  
 R. J. Doerksen,  A. D. Dutoi,  R. G. Edgar,  J. Fosso-Tande,  
 L. Fusti-Molnar,  D. Ghosh,  A. Ghysels,  A. Golubeva-Zadorozhnaya,  
 J. Gonthier,  M. S. Gordon,  S. R. Gwaltney,  G. Hawkins,  J. E. Herr,  
 A. Heyden,  S. Hirata,  E. G. Hohenstein,  G. Kedziora,  F. J. Keil,  
 C. Kelley,  Jihan Kim,  R. A. King,  R. Z. Khaliullin,  P. P. Korambath,  
 W. Kurlancheek,  A. Laurent,  A. M. Lee,  M. S. Lee,  S. V. Levchenko,  
 Ching Yeh Lin,  D. Liotard,  E. Livshits,  R. C. Lochan,  I. Lotan,  
 L. A. Martinez-Martinez,  P. E. Maslen,  N. Nair,  D. P. O'Neill,  
 D. Neuhauser,  E. Neuscamman,  C. M. Oana,  R. Olivares-Amaya,  R. Olson,  
 T. M. Perrine,  B. Peters,  P. A. Pieniazek,  A. Prociuk,  Y. M. Rhee,  
 J. Ritchie,  M. A. Rohrdanz,  E. Rosta,  N. J. Russ,  H. F. Schaefer III,  
 M. W. Schmidt,  N. E. Schultz,  S. Sharma,  N. Shenvi,  C. D. Sherrill,  
 A. C. Simmonett,  A. Sodt,  T. Stein,  D. Stuck,  K. S. Thanthiriwatte,  
 V. Vanovschi,  L. Vogt,  Tao Wang,  A. Warshel,  M. A. Watson,  
 C. F. Williams,  Q. Wu,  X. Xu,  Jun Yang,  W. Zhang,  Yan Zhao

   Please cite Q-Chem as follows:
  "Software for the frontiers of quantum chemistry:
   An overview of developments in the Q-Chem 5 package"
   J. Chem. Phys. 155, 084801 (2021)
   https://doi.org/10.1063/5.0055522 (open access)

 Q-Chem 6.0.1 for Intel X86 EM64T Linux

 Parts of Q-Chem use Armadillo 9.900.5 (Nocturnal Misbehaviour).
 http://arma.sourceforge.net/

 Q-Chem begins on Thu Dec 22 19:38:29 2022  

 Host: atlas-149
0

     Scratch files written to ./qchem103006//
 Processing $rem in /scratch/abel/SOFTWARE/qchem/config/preferences:
 Processing $rem in /dipc/acebg/.qchemrc:

 Checking the input file for inconsistencies... 	...done.

--------------------------------------------------------------
User input:
--------------------------------------------------------------
$comment
 RAS-SF CALCULATION
$end

$molecule
 READ cr_cn5_3-_d0.molecule
$end

$rem
!**CALCULATION TYPE***     
JOBTYPE            sp    
EXCHANGE           HF
CORRELATION        RASCI    !RASCI=Casanova; RASCI2=Zimmerman
BASIS              def2-TZVP
BASIS2             STO-3G

!***SCF REFERENCE***
SKIP_SCFMAN        FALSE
UNRESTRICTED       FALSE
!SCF_GUESS          core
!SCF_GUESS_MIX      FALSE
SCF_GUESS_ALWAYS   FALSE
MAX_SCF_CYCLES     500
SCF_CONVERGENCE    8
!SCF_ALGORITHM      DIIS !DIIS,DM,DIIS_DM,GDM,DIIS_GDM,GD

SYMMETRY           TRUE !use of symmetry for calculating integrals
SYM_IGNORE         FALSE !turn off using symmetry
SYM_TOL            5 !tolerance for determining point group

THRESH             14
!SCF_FINAL_PRINT     1 !0,1,2,3

!****RAS-SF****
RAS_ROOTS          10       !number of RAS-CI roots to be computed
SET_ITER           100     !number of iterations in RASCI
RAS_ELEC           9       !number of electrons in RAS2
!RAS_ELEC_ALPHA            !spin-α electrons in RAS2 
!RAS_ELEC_BETA             !spin-β electrons in RAS2

RAS_ACT            8       !number of orbitals in RAS2 
RAS_ACT_ORB    [46, 47, 48, 49, 50, 51, 52, 54] !user-selected RAS2 orbitals
RAS_OCC            45       !number of orbitals in RAS1
N_FROZEN_CORE      25     !Number of frozen core orbitals
N_FROZEN_VIRTUAL   300      !Number of frozen virtual orbitals
RAS_NATORB         TRUE    !computation of the natural orbital occupancies
!RAS_NATORB_STATE  0      !Saves NO of i RAS computed state in .fchk ﬁle

RAS_DO_HOLE        TRUE   !presence of hole excitations in RAS-CI wave function
RAS_DO_PART        TRUE   !presence of particle excitations
RAS_AMPL_PRINT     10     !threshold (×10 2 ) for the CI amplitudes

RAS_GUESS_CS       0      !number of closed shell guess conﬁgurations
RAS_SPIN_MULT      0      !spin multiplicity: 0=any, 2n+1=defined 
RAS_SRDFT          FALSE  !short-range density functional RAS-CI
RAS_NFRAG          0     !fragments of excitation analysis in RASCI

RAS_PRINT          2      !level of information
RAS_NATORB         TRUE   !computation of the natural orbital occupancies
!RAS_NATORB_STATE  0      !Saves NO of i RAS computed state in .fchk ﬁle
RAS_FOD            TRUE

!****RAS-SOC****
CALC_SOC           TRUE   !calculate SOC for EOM-CC, RAS-CI, ADC, TDDFT/TDA and TDDFT
!RAS_SOC_2E        TRUE   !two-electron mean-ﬁeld contribution, default=true
RAS_SOC_SYM_DENS   TRUE   !averaging of α and β densities

!****MEMORY****
MEM_TOTAL          60000 !Default 2000 MB
MEM_STATIC         16000  !Default 64 MB

!**Molecular Properties and Analysis **                                                                                          
GUI                2
STATE_ANALYSIS     TRUE
MOLDEN_FORMAT      TRUE
PRINT_ORBITALS     20
$end                                           

--------------------------------------------------------------
 ----------------------------------------------------------------
             Standard Nuclear Orientation (Angstroms)
    I     Atom           X                Y                Z
 ----------------------------------------------------------------
    1      Cr      0.0000000000     0.0000000000     0.4826670823
    2      N       0.0000000000     0.0000000000     2.0539020823
    3      N       0.0000000000     0.0000000000    -3.0323640177
    4      C       0.0000000000     0.0000000000    -1.8566849177
    5      C       2.0268750606    -0.0000000000     0.1949742823
    6      N       3.1931429030    -0.0000000000     0.0616410823
    7      N       0.0000000000     3.1931429030     0.0616410823
    8      C       0.0000000000     2.0268750606     0.1949742823
    9      C      -2.0268750606     0.0000000000     0.1949742823
   10      N      -3.1931429030     0.0000000000     0.0616410823
   11      C      -0.0000000000    -2.0268750606     0.1949742823
   12      N      -0.0000000000    -3.1931429030     0.0616410823
 ----------------------------------------------------------------
 Molecular Point Group                 C2v   NOp =  4
 Largest Abelian Subgroup              C2v   NOp =  4
 Nuclear Repulsion Energy =         767.07148954 hartrees
 There are       49 alpha and       49 beta electrons
 Requested basis set is def2-TZVP
 There are 136 shells and 386 basis functions

 Q-Chem warning in module libmdc/get_mega.C, line 167:

 Allowed MEM_STATIC has been capped at MEM_STATIC=8191.
 Reduce the value of MEM_STATIC to silence this warning.


 Total QAlloc Memory Limit  60000 MB
 Mega-Array Size      8007 MB
 MEM_STATIC part      8191 MB


                       Distance Matrix (Angstroms)
             Cr(  1)   N (  2)   N (  3)   C (  4)   C (  5)   N (  6)
   N (  2)  1.571235
   N (  3)  3.515031  5.086266
   C (  4)  2.339352  3.910587  1.175679
   C (  5)  2.047191  2.750243  3.811028  2.884012
   N (  6)  3.220780  3.763677  4.446238  3.725069  1.173865
   N (  7)  3.220780  3.763677  4.446238  3.725069  3.784463  4.515786
   C (  8)  2.047191  2.750243  3.811028  2.884012  2.866434  3.784463
   C (  9)  2.047191  2.750243  3.811028  2.884012  4.053750  5.221721
   N ( 10)  3.220780  3.763677  4.446238  3.725069  5.221721  6.386286
   C ( 11)  2.047191  2.750243  3.811028  2.884012  2.866434  3.784463
   N ( 12)  3.220780  3.763677  4.446238  3.725069  3.784463  4.515786
             N (  7)   C (  8)   C (  9)   N ( 10)   C ( 11)
   C (  8)  1.173865
   C (  9)  3.784463  2.866434
   N ( 10)  4.515786  3.784463  1.173865
   C ( 11)  5.221721  4.053750  2.866434  3.784463
   N ( 12)  6.386286  5.221721  3.784463  4.515786  1.173865
 
 A cutoff of  1.0D-14 yielded   8049 shell pairs
 There are     67083 function pairs (     90100 Cartesian)
 Smallest overlap matrix eigenvalue = 2.05E-04

 Scale SEOQF with 1.000000e-01/1.000000e-01/1.000000e-01

 Standard Electronic Orientation quadrupole field applied
 Nucleus-field energy     =     0.0000000076 hartrees
 Requested basis set is STO-3G
 There are 27 shells and 73 basis functions
 A cutoff of  1.0D-14 yielded    303 shell pairs
 There are      2678 function pairs (      2757 Cartesian)
 Smallest overlap matrix eigenvalue = 1.54E-01
 Guess from superposition of atomic densities
 Warning:  Energy on first SCF cycle will be non-variational
 SAD guess density has 96.000000 electrons
 A restricted Hartree-Fock SCF calculation will be
 performed using Pulay DIIS extrapolation
 SCF converges when DIIS error is below 1.0E-04
 ---------------------------------------
  Cycle       Energy         DIIS Error
 ---------------------------------------
    1   -1539.6605292402      1.26E-01
    2   -1538.3317824561      6.07E-02
    3   -1524.3083430104      1.24E-01
    4   -1540.8587692550      3.16E-02
    5   -1541.1434174097      2.38E-02
    6   -1541.3666292435      1.37E-02
    7   -1541.4735790036      2.91E-03
    8   -1541.4788871658      7.20E-04
    9   -1541.4799605479      9.75E-04
   10   -1541.4808744088      4.67E-04
   11   -1541.4820253163      4.37E-04
   12   -1541.4821563336      7.47E-05 Convergence criterion met
 ---------------------------------------
 SCF time:  CPU 5.69 s  wall 6.55 s
 SCF   energy in the small basis set = -1541.48215633
 Total energy in the small basis set = -1541.48215633
 ----------------------------------------------------
  Cycle       Energy    
 ----------------------------------------------------
    1    -103.6698531018     -1.04E+02
 A restricted Hartree-Fock SCF calculation will be
 performed using Pulay DIIS extrapolation
 SCF converges when DIIS error is below 1.0E-08
 ---------------------------------------
  Cycle       Energy         DIIS Error
 ---------------------------------------
    1   -1549.1381338932      3.14E-02
    2   -1510.0244243645      3.97E-02
    3   -1537.4825771434      3.46E-02
    4   -1551.6003627026      2.54E-02
    5   -1547.8578963063      2.34E-02
    6   -1557.1205106223      1.02E-02
    7   -1557.2509169620      1.15E-02
    8   -1558.6533623863      6.42E-03
    9   -1558.9576725898      4.50E-03
   10   -1559.1681850407      2.11E-03
   11   -1559.2206189552      6.00E-04
   12   -1559.2254876233      1.60E-04
   13   -1559.2260649649      6.37E-05
   14   -1559.2262208177      3.55E-05
   15   -1559.2263444821      2.32E-05
   16   -1559.2264309470      1.06E-05
   17   -1559.2264450154      4.20E-06
   18   -1559.2264474144      3.44E-06
   19   -1559.2264484559      3.39E-06
   20   -1559.2264478923      3.33E-06
   21   -1559.2264492382      3.51E-06
   22   -1559.2264482880      3.68E-06
   23   -1559.2264438445      2.95E-06
   24   -1559.2264385345      2.09E-06
   25   -1559.2264365544      1.11E-06
   26   -1559.2264363476      7.28E-07
   27   -1559.2264363582      4.28E-07
   28   -1559.2264363682      2.46E-07
   29   -1559.2264363712      1.33E-07
   30   -1559.2264363722      4.59E-08
   31   -1559.2264363725      1.85E-08
   32   -1559.2264363725      1.00E-08
   33   -1559.2264363725      3.74E-09 Convergence criterion met
 ---------------------------------------
 SCF time:  CPU 1899.51 s  wall 1906.69 s
 SCF   energy in the final basis set = -1559.22643637
 Total energy in the final basis set = -1559.22643637
Setting RAS_srDFT_COR/EXC
  
     ##========================================##
     ||                                        ||
     ||              R A S M A N 2             ||
     ||________________________________________||
     ||                                        ||
     ||  Author:                               ||
     ||                                        ||
     ||        David Casanova (2010)           ||
     ||                                        ||
     ##========================================##
  
  ***************************************************
  *  RAS-CI Dimensions:                             *
  *                                                 *
  *  Active Elec.:   9 ( 5, 4)   Active Orb.:   8   *
  *  Doubly Occ. :  45           Doubly Vir.: 333   *
  *  Frozen Occ. :  25           Frozen Vir.: 300   *
  *                                                 *
  *  Total CI configurations:    371028             * 
  *    Active configurations:      3920             * 
  *      Hole configurations:    101920             * 
  *  Particle configurations:    265188             * 
  *                                                 *
  *   Requested states:       10                    *
  *  Spin multiplicity: Any multiplicity            *
  *                                                 *
  ***************************************************
-----------------------------------------
    Memory requirements of RASCI

 Each CI-vector requires      2.83 MiB 
 Max. subspace vectors           1000      

 Reduced Lists                0.00 MiB 
 Excitation Lists             0.00 MiB 
 Excitation Lists Sign        0.00 MiB 
 CI-space (Max)            2866.66 MiB 
 Integrals                  159.92 MiB 
 Memory required (Max)     2866.68 MiB 
 Memory available          7811.55 MiB 

    Disk requirements of RASCI

 Fock matrix                  2.27 MiB 
 2-electron integrals         4.03 MiB 
 CI-space                  5661.44 MiB 
 Disk required             5667.74 MiB 
-----------------------------------------
  
RAS1 HF-like energy:          -1550.6030787181
 Computing integrals
 Computing J and K matrices
 Computing addressing
 Making amplitude guesses
 
Direct CI diagonalization
 ---------------------------------------------------
 Iter    Rts Conv    Rts Left    Ttl Dev     Max Dev
 ---------------------------------------------------
   1         0          10      0.002084    0.000570
   2         0          10      0.000469    0.000122
   3         0          10      0.000385    0.000085
   4         0          10      0.000317    0.000076
   5         0          10      0.000598    0.000299
   6         0          10      0.000675    0.000275
   7         0          10      0.001121    0.000264
   8         0          10      0.001331    0.000290
   9         0          10      0.001110    0.000247
  10         0          10      0.001006    0.000239
  11         0          10      0.000812    0.000168
  12         0          10      0.000733    0.000134
  13         0          10      0.000621    0.000132
  14         2           8      0.000548    0.000130
  15         3           7      0.000432    0.000112
  16         3           7      0.000351    0.000097
  17         3           7      0.000306    0.000086
  18         4           6      0.000255    0.000080
  19         4           6      0.000221    0.000065
  20         4           6      0.000185    0.000056
  21         4           6      0.000166    0.000052
  22         5           5      0.000143    0.000045
  23         5           5      0.000129    0.000041
  24         5           5      0.000115    0.000035
  25         5           5      0.000095    0.000026
  26         5           5      0.000080    0.000023
  27         5           5      0.000068    0.000019
  28         5           5      0.000057    0.000017
  29         5           5      0.000049    0.000015
  30         5           5      0.000045    0.000015
  31         6           4      0.000039    0.000013
  32         6           4      0.000034    0.000012
  33         6           4      0.000034    0.000013
  34         6           4      0.000032    0.000012
  35         6           4      0.000032    0.000013
  36         6           4      0.000031    0.000013
  37         7           3      0.000028    0.000012
  38         8           2      0.000026    0.000011
  39         8           2      0.000022    0.000009
  40         8           2      0.000018    0.000007
  41         8           2      0.000015    0.000005
  42         8           2      0.000012    0.000004
  43         8           2      0.000011    0.000003
  44         8           2      0.000010    0.000003
  45         8           2      0.000009    0.000002
  46         8           2      0.000008    0.000002
  47         8           2      0.000008    0.000001
  48         8           2      0.000007    0.000001
  49         8           2      0.000007    0.000001
  50        10           0      0.000006    0.000001    Roots Converged
 ---------------------------------------------------
   
**************************************************
 RAS-CI total energy for state   1:  -1559.110457886726
  Excitation energy (eV) =  0.000000000000
  Warning: not all configurations have same symmetry
  State symmetry: *A2    (C2v      )
  <S^2>      :  0.7500
  Dipole Moment:   -0.0000 X     0.0000 Y    -1.0392 Z
 NATURAL OCCUPATION NUMBERS (higher than 1.0E-05)
            1           2           3           4           5           6
    1   2.0000000   2.0000000   2.0000000   2.0000000   2.0000000   2.0000000
            7           8           9          10          11          12
    1   2.0000000   2.0000000   2.0000000   2.0000000   2.0000000   2.0000000
           13          14          15          16          17          18
    1   2.0000000   2.0000000   2.0000000   2.0000000   2.0000000   2.0000000
           19          20          21          22          23          24
    1   2.0000000   2.0000000   2.0000000   2.0000000   2.0000000   2.0000000
           25          26          27          28          29          30
    1   2.0000000   2.0000000   1.9999999   1.9999999   1.9999999   1.9999998
           31          32          33          34          35          36
    1   1.9999989   1.9999988   1.9999987   1.9999987   1.9999970   1.9999970
           37          38          39          40          41          42
    1   1.9999935   1.9999730   1.9999333   1.9998964   1.9998964   1.9994807
           43          44          45          46          47          48
    1   1.9994807   1.9992627   1.9991296   1.9989763   1.9943187   1.9869299
           49          50          51          52          53          54
    1   1.9869299   0.9931784   0.0135561   0.0135561   0.0069772   0.0064190
           55          56          57          58          59          60
    1   0.0006001   0.0005620   0.0003841   0.0003841   0.0000735   0.0000221
           61          62          63          64
    1   0.0000221   0.0000166   0.0000152   0.0000152
Natural Orbitals stored in FCHK

  Amplitudes : 
  
 | HOLE  | ALPHA    | BETA     | PART  |    AMPLITUDE 
--------------------------------------------------
 |       | 11111000 | 11110000 |       |     8.9971261079665E-01
 |  33   | 11111100 | 11110000 |       |    -1.0482820947189E-01
 |  34   | 11111010 | 11110000 |       |    -1.0482821075926E-01
 |  33   | 11111000 | 11110100 |       |     1.5946385564619E-01
 |  34   | 11111000 | 11110010 |       |     1.5946386714574E-01
 |       | 11110000 | 11110000 |  66   |     2.1275919230967E-01
--------------------------------------------------
*** Contributions RASCI wfn    Active:  80.96
                                 Hole:  13.39
                                 Part:   5.66

      Mulliken population analysis 
 ---------------------------------------------------
   Atom    Charge (a.u.)   Spin (a.u.)  
 ---------------------------------------------------
   1 Cr    0.319572        0.988758 
   2  N   -0.607489       -0.093381 
   3  N   -0.426073       -0.000057 
   4  C   -0.126336        0.000461 
   5  C   -0.166595        0.010089 
   6  N   -0.373323        0.015966 
   7  N   -0.373324        0.015966 
   8  C   -0.166595        0.010089 
   9  C   -0.166595        0.010089 
  10  N   -0.373323        0.015966 
  11  C   -0.166595        0.010089 
  12  N   -0.373324        0.015966 
 ---------------------------------------------------
   Sum:   -3.000000        1.000000 
 ---------------------------------------------------
 
  
 NATURAL OCCUPATION NUMBERS (higher than 1.0E-05)
            1           2           3           4           5           6
    1   2.0000000   2.0000000   2.0000000   2.0000000   2.0000000   2.0000000
            7           8           9          10          11          12
    1   2.0000000   2.0000000   2.0000000   2.0000000   2.0000000   2.0000000
           13          14          15          16          17          18
    1   2.0000000   2.0000000   2.0000000   2.0000000   2.0000000   2.0000000
           19          20          21          22          23          24
    1   2.0000000   2.0000000   2.0000000   2.0000000   2.0000000   2.0000000
           25          26          27          28          29          30
    1   2.0000000   2.0000000   1.9999999   1.9999999   1.9999999   1.9999998
           31          32          33          34          35          36
    1   1.9999989   1.9999988   1.9999987   1.9999987   1.9999970   1.9999970
           37          38          39          40          41          42
    1   1.9999935   1.9999730   1.9999333   1.9998964   1.9998964   1.9994807
           43          44          45          46          47          48
    1   1.9994807   1.9992627   1.9991296   1.9989763   1.9943187   1.9869299
           49          50          51          52          53          54
    1   1.9869299   0.9931784   0.0135561   0.0135561   0.0069772   0.0064190
           55          56          57          58          59          60
    1   0.0006001   0.0005620   0.0003841   0.0003841   0.0000735   0.0000221
           61          62          63          64
    1   0.0000221   0.0000166   0.0000152   0.0000152
  
*** Unpaired Electrons
 Yamaguchi Nd:         1.16
 Head-Gordon Nu:       1.07
 Head-Gordon Nu_nl:    1.00
  
**************************************************
 RAS-CI total energy for state   2:  -1559.033424700048
  Excitation energy (eV) =  2.096179659803
  Warning: not all configurations have same symmetry
  State symmetry: *A1    (C2v      )
  <S^2>      :  0.7500
  Dipole Moment:    0.0000 X    -0.0000 Y    -0.9598 Z
  Trans. Moment:    0.0000 X     0.0000 Y    -0.0000 Z
  Strength   :  0.000000
  Natural transition orbitals ( 1 -> 2 ):
   e-/hole pair  1 alpha:  ampl =  0.983756 ( 96.8%)   [8 : 9]
   e-/hole pair  2 alpha:  ampl =  0.026697 (  0.1%)   [7 : 10]
   e-/hole pair  1 beta :  ampl =  0.012354 (  0.0%)   [8 : 9]
   e-/hole pair  2 beta :  ampl =  0.005082 (  0.0%)   [7 : 10]
   Sum of square amplitudes: 0.97

 NATURAL OCCUPATION NUMBERS (higher than 1.0E-05)
            1           2           3           4           5           6
    1   2.0000000   2.0000000   2.0000000   2.0000000   2.0000000   2.0000000
            7           8           9          10          11          12
    1   2.0000000   2.0000000   2.0000000   2.0000000   2.0000000   2.0000000
           13          14          15          16          17          18
    1   2.0000000   2.0000000   2.0000000   2.0000000   2.0000000   2.0000000
           19          20          21          22          23          24
    1   2.0000000   2.0000000   2.0000000   2.0000000   2.0000000   2.0000000
           25          26          27          28          29          30
    1   2.0000000   2.0000000   1.9999999   1.9999999   1.9999999   1.9999999
           31          32          33          34          35          36
    1   1.9999997   1.9999993   1.9999973   1.9999973   1.9999963   1.9999917
           37          38          39          40          41          42
    1   1.9999917   1.9999610   1.9998841   1.9997509   1.9997509   1.9995017
           43          44          45          46          47          48
    1   1.9995017   1.9990666   1.9990188   1.9980366   1.9964270   1.9865260
           49          50          51          52          53          54
    1   1.9865260   0.9962102   0.0142081   0.0142081   0.0052541   0.0037707
           55          56          57          58          59          60
    1   0.0005946   0.0005311   0.0003705   0.0003705   0.0002163   0.0001427
           61          62          63          64          65          66
    1   0.0000301   0.0000301   0.0000254   0.0000254   0.0000227   0.0000141
           67          68
    1   0.0000141   0.0000132
Natural Orbitals stored in FCHK

  Amplitudes : 
  
 | HOLE  | ALPHA    | BETA     | PART  |    AMPLITUDE 
--------------------------------------------------
 |       | 11110001 | 11110000 |       |     9.0777788115007E-01
 |  33   | 11110101 | 11110000 |       |     1.1869421199382E-01
 |  34   | 11110011 | 11110000 |       |     1.1869417655545E-01
 |  33   | 11110001 | 11110100 |       |     1.6868165232296E-01
 |  34   | 11110001 | 11110010 |       |     1.6868164541067E-01
 |  36   | 11110001 | 11110001 |       |     1.0122923681300E-01
 |       | 11110000 | 11110000 |  60   |     1.4713690232193E-01
--------------------------------------------------
*** Contributions RASCI wfn    Active:  82.44
                                 Hole:  14.18
                                 Part:   3.38

      Mulliken population analysis 
 ---------------------------------------------------
   Atom    Charge (a.u.)   Spin (a.u.)  
 ---------------------------------------------------
   1 Cr    0.574253        0.780545 
   2  N   -0.651245       -0.089920 
   3  N   -0.427616       -0.001451 
   4  C   -0.122932        0.003269 
   5  C   -0.243064        0.087374 
   6  N   -0.350051       -0.010485 
   7  N   -0.350051       -0.010485 
   8  C   -0.243064        0.087374 
   9  C   -0.243064        0.087374 
  10  N   -0.350051       -0.010485 
  11  C   -0.243064        0.087374 
  12  N   -0.350051       -0.010485 
 ---------------------------------------------------
   Sum:   -3.000000        1.000000 
 ---------------------------------------------------
 
  
 NATURAL OCCUPATION NUMBERS (higher than 1.0E-05)
            1           2           3           4           5           6
    1   2.0000000   2.0000000   2.0000000   2.0000000   2.0000000   2.0000000
            7           8           9          10          11          12
    1   2.0000000   2.0000000   2.0000000   2.0000000   2.0000000   2.0000000
           13          14          15          16          17          18
    1   2.0000000   2.0000000   2.0000000   2.0000000   2.0000000   2.0000000
           19          20          21          22          23          24
    1   2.0000000   2.0000000   2.0000000   2.0000000   2.0000000   2.0000000
           25          26          27          28          29          30
    1   2.0000000   2.0000000   1.9999999   1.9999999   1.9999999   1.9999999
           31          32          33          34          35          36
    1   1.9999997   1.9999993   1.9999973   1.9999973   1.9999963   1.9999917
           37          38          39          40          41          42
    1   1.9999917   1.9999610   1.9998841   1.9997509   1.9997509   1.9995017
           43          44          45          46          47          48
    1   1.9995017   1.9990666   1.9990188   1.9980366   1.9964270   1.9865260
           49          50          51          52          53          54
    1   1.9865260   0.9962102   0.0142081   0.0142081   0.0052541   0.0037707
           55          56          57          58          59          60
    1   0.0005946   0.0005311   0.0003705   0.0003705   0.0002163   0.0001427
           61          62          63          64          65          66
    1   0.0000301   0.0000301   0.0000254   0.0000254   0.0000227   0.0000141
           67          68
    1   0.0000141   0.0000132
  
*** Unpaired Electrons
 Yamaguchi Nd:         1.15
 Head-Gordon Nu:       1.07
 Head-Gordon Nu_nl:    1.00
  
**************************************************
 RAS-CI total energy for state   3:  -1559.032637065540
  Excitation energy (eV) =  2.117612285207
  Warning: not all configurations have same symmetry
  State symmetry: *A1    (C2v      )
  <S^2>      :  0.7500
  Dipole Moment:   -0.0000 X    -0.0000 Y    -0.9583 Z
  Trans. Moment:    0.0449 X     0.0000 Y     0.0000 Z
  Strength   :  0.000105
  Natural transition orbitals ( 1 -> 3 ):
   e-/hole pair  1 alpha:  ampl =  0.948507 ( 90.0%)   [8 : 9]
   e-/hole pair  2 alpha:  ampl =  0.025186 (  0.1%)   [7 : 10]
   e-/hole pair  1 beta :  ampl =  0.058555 (  0.3%)   [8 : 9]
   e-/hole pair  2 beta :  ampl =  0.034767 (  0.1%)   [7 : 10]
   Sum of square amplitudes: 0.91

 NATURAL OCCUPATION NUMBERS (higher than 1.0E-05)
            1           2           3           4           5           6
    1   2.0000000   2.0000000   2.0000000   2.0000000   2.0000000   2.0000000
            7           8           9          10          11          12
    1   2.0000000   2.0000000   2.0000000   2.0000000   2.0000000   2.0000000
           13          14          15          16          17          18
    1   2.0000000   2.0000000   2.0000000   2.0000000   2.0000000   2.0000000
           19          20          21          22          23          24
    1   2.0000000   2.0000000   2.0000000   2.0000000   2.0000000   2.0000000
           25          26          27          28          29          30
    1   2.0000000   2.0000000   1.9999999   1.9999998   1.9999997   1.9999997
           31          32          33          34          35          36
    1   1.9999986   1.9999982   1.9999980   1.9999974   1.9999973   1.9999961
           37          38          39          40          41          42
    1   1.9999876   1.9999405   1.9996676   1.9996433   1.9996261   1.9995785
           43          44          45          46          47          48
    1   1.9994561   1.9992914   1.9989552   1.9986019   1.9981566   1.9977968
           49          50          51          52          53          54
    1   1.9969643   0.9962183   0.0064026   0.0056189   0.0016969   0.0005986
           55          56          57          58          59          60
    1   0.0004455   0.0003027   0.0002893   0.0002353   0.0002115   0.0002014
           61          62          63          64
    1   0.0000324   0.0000315   0.0000163   0.0000106
Natural Orbitals stored in FCHK

  Amplitudes : 
  
 | HOLE  | ALPHA    | BETA     | PART  |    AMPLITUDE 
--------------------------------------------------
 |       | 11110010 | 11110000 |       |     9.5477146936330E-01
 |  28   | 11110011 | 11110000 |       |    -1.0091310185553E-01
 |  36   | 11110011 | 11110000 |       |    -1.0581453332542E-01
 |  28   | 11110010 | 11110001 |       |     1.0586105492560E-01
 |  36   | 11110010 | 11110001 |       |     1.1046016934644E-01
--------------------------------------------------
*** Contributions RASCI wfn    Active:  91.20
                                 Hole:   6.79
                                 Part:   2.01

      Mulliken population analysis 
 ---------------------------------------------------
   Atom    Charge (a.u.)   Spin (a.u.)  
 ---------------------------------------------------
   1 Cr    0.373049        0.417744 
   2  N   -0.629686        0.582257 
   3  N   -0.444141        0.000530 
   4  C   -0.115316        0.001555 
   5  C   -0.175665       -0.001930 
   6  N   -0.367795        0.000030 
   7  N   -0.371068        0.001531 
   8  C   -0.177425       -0.000675 
   9  C   -0.175665       -0.001930 
  10  N   -0.367795        0.000030 
  11  C   -0.177425       -0.000675 
  12  N   -0.371068        0.001531 
 ---------------------------------------------------
   Sum:   -3.000000        1.000000 
 ---------------------------------------------------
 
  
 NATURAL OCCUPATION NUMBERS (higher than 1.0E-05)
            1           2           3           4           5           6
    1   2.0000000   2.0000000   2.0000000   2.0000000   2.0000000   2.0000000
            7           8           9          10          11          12
    1   2.0000000   2.0000000   2.0000000   2.0000000   2.0000000   2.0000000
           13          14          15          16          17          18
    1   2.0000000   2.0000000   2.0000000   2.0000000   2.0000000   2.0000000
           19          20          21          22          23          24
    1   2.0000000   2.0000000   2.0000000   2.0000000   2.0000000   2.0000000
           25          26          27          28          29          30
    1   2.0000000   2.0000000   1.9999999   1.9999998   1.9999997   1.9999997
           31          32          33          34          35          36
    1   1.9999986   1.9999982   1.9999980   1.9999974   1.9999973   1.9999961
           37          38          39          40          41          42
    1   1.9999876   1.9999405   1.9996676   1.9996433   1.9996261   1.9995785
           43          44          45          46          47          48
    1   1.9994561   1.9992914   1.9989552   1.9986019   1.9981566   1.9977968
           49          50          51          52          53          54
    1   1.9969643   0.9962183   0.0064026   0.0056189   0.0016969   0.0005986
           55          56          57          58          59          60
    1   0.0004455   0.0003027   0.0002893   0.0002353   0.0002115   0.0002014
           61          62          63          64
    1   0.0000324   0.0000315   0.0000163   0.0000106
  
*** Unpaired Electrons
 Yamaguchi Nd:         1.06
 Head-Gordon Nu:       1.02
 Head-Gordon Nu_nl:    1.00
  
**************************************************
 RAS-CI total energy for state   4:  -1559.032637061386
  Excitation energy (eV) =  2.117612398242
  Warning: not all configurations have same symmetry
  State symmetry: *A1    (C2v      )
  <S^2>      :  0.7500
  Dipole Moment:   -0.0000 X     0.0000 Y    -0.9583 Z
  Trans. Moment:    0.0000 X    -0.0449 Y     0.0000 Z
  Strength   :  0.000105
  Natural transition orbitals ( 1 -> 4 ):
   e-/hole pair  1 alpha:  ampl =  0.948507 ( 90.0%)   [8 : 9]
   e-/hole pair  2 alpha:  ampl =  0.025186 (  0.1%)   [7 : 10]
   e-/hole pair  1 beta :  ampl =  0.058555 (  0.3%)   [8 : 9]
   e-/hole pair  2 beta :  ampl =  0.034767 (  0.1%)   [7 : 10]
   Sum of square amplitudes: 0.91

 NATURAL OCCUPATION NUMBERS (higher than 1.0E-05)
            1           2           3           4           5           6
    1   2.0000000   2.0000000   2.0000000   2.0000000   2.0000000   2.0000000
            7           8           9          10          11          12
    1   2.0000000   2.0000000   2.0000000   2.0000000   2.0000000   2.0000000
           13          14          15          16          17          18
    1   2.0000000   2.0000000   2.0000000   2.0000000   2.0000000   2.0000000
           19          20          21          22          23          24
    1   2.0000000   2.0000000   2.0000000   2.0000000   2.0000000   2.0000000
           25          26          27          28          29          30
    1   2.0000000   2.0000000   1.9999999   1.9999998   1.9999997   1.9999997
           31          32          33          34          35          36
    1   1.9999986   1.9999982   1.9999980   1.9999974   1.9999973   1.9999961
           37          38          39          40          41          42
    1   1.9999876   1.9999405   1.9996676   1.9996433   1.9996261   1.9995785
           43          44          45          46          47          48
    1   1.9994561   1.9992914   1.9989552   1.9986019   1.9981566   1.9977968
           49          50          51          52          53          54
    1   1.9969643   0.9962183   0.0064026   0.0056189   0.0016969   0.0005986
           55          56          57          58          59          60
    1   0.0004455   0.0003027   0.0002893   0.0002353   0.0002115   0.0002014
           61          62          63          64
    1   0.0000324   0.0000315   0.0000163   0.0000106
Natural Orbitals stored in FCHK

  Amplitudes : 
  
 | HOLE  | ALPHA    | BETA     | PART  |    AMPLITUDE 
--------------------------------------------------
 |       | 11110100 | 11110000 |       |     9.5477146806470E-01
 |  28   | 11110101 | 11110000 |       |    -1.0091311163864E-01
 |  36   | 11110101 | 11110000 |       |    -1.0581455556343E-01
 |  28   | 11110100 | 11110001 |       |     1.0586105914011E-01
 |  36   | 11110100 | 11110001 |       |     1.1046022325752E-01
--------------------------------------------------
*** Contributions RASCI wfn    Active:  91.20
                                 Hole:   6.79
                                 Part:   2.01

      Mulliken population analysis 
 ---------------------------------------------------
   Atom    Charge (a.u.)   Spin (a.u.)  
 ---------------------------------------------------
   1 Cr    0.373049        0.417745 
   2  N   -0.629686        0.582257 
   3  N   -0.444141        0.000530 
   4  C   -0.115316        0.001555 
   5  C   -0.177425       -0.000675 
   6  N   -0.371068        0.001531 
   7  N   -0.367795        0.000030 
   8  C   -0.175664       -0.001930 
   9  C   -0.177425       -0.000675 
  10  N   -0.371068        0.001531 
  11  C   -0.175664       -0.001930 
  12  N   -0.367795        0.000030 
 ---------------------------------------------------
   Sum:   -3.000000        1.000000 
 ---------------------------------------------------
 
  
 NATURAL OCCUPATION NUMBERS (higher than 1.0E-05)
            1           2           3           4           5           6
    1   2.0000000   2.0000000   2.0000000   2.0000000   2.0000000   2.0000000
            7           8           9          10          11          12
    1   2.0000000   2.0000000   2.0000000   2.0000000   2.0000000   2.0000000
           13          14          15          16          17          18
    1   2.0000000   2.0000000   2.0000000   2.0000000   2.0000000   2.0000000
           19          20          21          22          23          24
    1   2.0000000   2.0000000   2.0000000   2.0000000   2.0000000   2.0000000
           25          26          27          28          29          30
    1   2.0000000   2.0000000   1.9999999   1.9999998   1.9999997   1.9999997
           31          32          33          34          35          36
    1   1.9999986   1.9999982   1.9999980   1.9999974   1.9999973   1.9999961
           37          38          39          40          41          42
    1   1.9999876   1.9999405   1.9996676   1.9996433   1.9996261   1.9995785
           43          44          45          46          47          48
    1   1.9994561   1.9992914   1.9989552   1.9986019   1.9981566   1.9977968
           49          50          51          52          53          54
    1   1.9969643   0.9962183   0.0064026   0.0056189   0.0016969   0.0005986
           55          56          57          58          59          60
    1   0.0004455   0.0003027   0.0002893   0.0002353   0.0002115   0.0002014
           61          62          63          64
    1   0.0000324   0.0000315   0.0000163   0.0000106
  
*** Unpaired Electrons
 Yamaguchi Nd:         1.06
 Head-Gordon Nu:       1.02
 Head-Gordon Nu_nl:    1.00
  
**************************************************
 RAS-CI total energy for state   5:  -1558.954076490104
  Excitation energy (eV) =  4.255354307734
  Warning: not all configurations have same symmetry
  State symmetry: *B1    (C2v      )
  <S^2>      :  0.7500
  Dipole Moment:   -0.0000 X     0.0000 Y    -1.4844 Z
  Trans. Moment:    0.0000 X    -0.0000 Y    -0.0323 Z
  Strength   :  0.000109
  Natural transition orbitals ( 1 -> 5 ):
   e-/hole pair  1 alpha:  ampl =  0.271742 (  7.4%)   [8 : 9]
   e-/hole pair  2 alpha:  ampl =  0.271742 (  7.4%)   [7 : 10]
   e-/hole pair  1 beta :  ampl =  0.263818 (  7.0%)   [8 : 9]
   e-/hole pair  2 beta :  ampl =  0.263818 (  7.0%)   [7 : 10]
   Sum of square amplitudes: 0.30

 NATURAL OCCUPATION NUMBERS (higher than 1.0E-05)
            1           2           3           4           5           6
    1   2.0000000   2.0000000   2.0000000   2.0000000   2.0000000   2.0000000
            7           8           9          10          11          12
    1   2.0000000   2.0000000   2.0000000   2.0000000   2.0000000   2.0000000
           13          14          15          16          17          18
    1   2.0000000   2.0000000   2.0000000   2.0000000   2.0000000   2.0000000
           19          20          21          22          23          24
    1   2.0000000   2.0000000   2.0000000   2.0000000   2.0000000   2.0000000
           25          26          27          28          29          30
    1   2.0000000   2.0000000   2.0000000   1.9999999   1.9999998   1.9999998
           31          32          33          34          35          36
    1   1.9999996   1.9999989   1.9999981   1.9999981   1.9999979   1.9999958
           37          38          39          40          41          42
    1   1.9999949   1.9999949   1.9999908   1.9999844   1.9999844   1.9999124
           43          44          45          46          47          48
    1   1.9998928   1.9998808   1.9998808   1.9997797   1.9984282   1.5068901
           49          50          51          52          53          54
    1   1.5068898   0.9947559   0.4937894   0.4937891   0.0053376   0.0005061
           55          56          57          58          59          60
    1   0.0000666   0.0000666   0.0000648   0.0000513   0.0000230   0.0000230
           61
    1   0.0000119
Natural Orbitals stored in FCHK

  Amplitudes : 
  
 | HOLE  | ALPHA    | BETA     | PART  |    AMPLITUDE 
--------------------------------------------------
 |       | 11111000 | 11110000 |       |    -1.0567159290827E-01
 |  33   | 11111100 | 11110000 |       |     2.6512384759617E-01
 |  42   | 11111100 | 11110000 |       |    -1.2258515384019E-01
 |  34   | 11111010 | 11110000 |       |     2.6512393128550E-01
 |  43   | 11111010 | 11110000 |       |    -1.2258471810158E-01
 |  33   | 11111000 | 11110100 |       |     2.4114100945865E-01
 |  42   | 11111000 | 11110100 |       |    -1.1148318153242E-01
 |  34   | 11111000 | 11110010 |       |     2.4114112617204E-01
 |  43   | 11111000 | 11110010 |       |    -1.1148279368295E-01
 |  33   | 11110100 | 11111000 |       |     5.0626485705464E-01
 |  42   | 11110100 | 11111000 |       |    -2.3406833537253E-01
 |  45   | 11110100 | 11111000 |       |     1.2314726407496E-01
 |  34   | 11110010 | 11111000 |       |     5.0626505745768E-01
 |  43   | 11110010 | 11111000 |       |    -2.3406751178459E-01
 |  44   | 11110010 | 11111000 |       |    -1.2314885081561E-01
--------------------------------------------------
*** Contributions RASCI wfn    Active:   1.21
                                 Hole:  98.70
                                 Part:   0.08

      Mulliken population analysis 
 ---------------------------------------------------
   Atom    Charge (a.u.)   Spin (a.u.)  
 ---------------------------------------------------
   1 Cr   -0.030155        0.355075 
   2  N   -0.291203        0.707120 
   3  N   -0.332144        0.001716 
   4  C   -0.228347       -0.000875 
   5  C   -0.169410       -0.006108 
   6  N   -0.360128       -0.009651 
   7  N   -0.360128       -0.009651 
   8  C   -0.169410       -0.006108 
   9  C   -0.169410       -0.006108 
  10  N   -0.360128       -0.009651 
  11  C   -0.169410       -0.006108 
  12  N   -0.360128       -0.009651 
 ---------------------------------------------------
   Sum:   -3.000000        1.000000 
 ---------------------------------------------------
 
  
 NATURAL OCCUPATION NUMBERS (higher than 1.0E-05)
            1           2           3           4           5           6
    1   2.0000000   2.0000000   2.0000000   2.0000000   2.0000000   2.0000000
            7           8           9          10          11          12
    1   2.0000000   2.0000000   2.0000000   2.0000000   2.0000000   2.0000000
           13          14          15          16          17          18
    1   2.0000000   2.0000000   2.0000000   2.0000000   2.0000000   2.0000000
           19          20          21          22          23          24
    1   2.0000000   2.0000000   2.0000000   2.0000000   2.0000000   2.0000000
           25          26          27          28          29          30
    1   2.0000000   2.0000000   2.0000000   1.9999999   1.9999998   1.9999998
           31          32          33          34          35          36
    1   1.9999996   1.9999989   1.9999981   1.9999981   1.9999979   1.9999958
           37          38          39          40          41          42
    1   1.9999949   1.9999949   1.9999908   1.9999844   1.9999844   1.9999124
           43          44          45          46          47          48
    1   1.9998928   1.9998808   1.9998808   1.9997797   1.9984282   1.5068901
           49          50          51          52          53          54
    1   1.5068898   0.9947559   0.4937894   0.4937891   0.0053376   0.0005061
           55          56          57          58          59          60
    1   0.0000666   0.0000666   0.0000648   0.0000513   0.0000230   0.0000230
           61
    1   0.0000119
  
*** Unpaired Electrons
 Yamaguchi Nd:         3.99
 Head-Gordon Nu:       2.98
 Head-Gordon Nu_nl:    3.21
  
**************************************************
 RAS-CI total energy for state   6:  -1558.927205584697
  Excitation energy (eV) =  4.986548845877
  Warning: not all configurations have same symmetry
  State symmetry: *B2    (C2v      )
  <S^2>      :  0.7500
  Dipole Moment:    0.0000 X    -0.0000 Y    -1.4764 Z
  Trans. Moment:    0.0000 X     0.0000 Y     0.0000 Z
  Strength   :  0.000000
  Natural transition orbitals ( 1 -> 6 ):
   e-/hole pair  1 alpha:  ampl =  0.229717 (  5.3%)   [8 : 9]
   e-/hole pair  2 alpha:  ampl =  0.229717 (  5.3%)   [7 : 10]
   e-/hole pair  1 beta :  ampl =  0.307154 (  9.4%)   [8 : 9]
   e-/hole pair  2 beta :  ampl =  0.307154 (  9.4%)   [7 : 10]
   Sum of square amplitudes: 0.30

 NATURAL OCCUPATION NUMBERS (higher than 1.0E-05)
            1           2           3           4           5           6
    1   2.0000000   2.0000000   2.0000000   2.0000000   2.0000000   2.0000000
            7           8           9          10          11          12
    1   2.0000000   2.0000000   2.0000000   2.0000000   2.0000000   2.0000000
           13          14          15          16          17          18
    1   2.0000000   2.0000000   2.0000000   2.0000000   2.0000000   2.0000000
           19          20          21          22          23          24
    1   2.0000000   2.0000000   2.0000000   2.0000000   2.0000000   2.0000000
           25          26          27          28          29          30
    1   2.0000000   2.0000000   2.0000000   1.9999999   1.9999999   1.9999999
           31          32          33          34          35          36
    1   1.9999998   1.9999993   1.9999984   1.9999984   1.9999984   1.9999954
           37          38          39          40          41          42
    1   1.9999940   1.9999940   1.9999862   1.9999862   1.9999685   1.9999524
           43          44          45          46          47          48
    1   1.9998988   1.9998988   1.9998401   1.9997436   1.9996698   1.5019893
           49          50          51          52          53          54
    1   1.5019890   0.9910691   0.4985662   0.4985658   0.0055830   0.0031443
           55          56          57          58          59
    1   0.0000448   0.0000448   0.0000243   0.0000243   0.0000102
Natural Orbitals stored in FCHK

  Amplitudes : 
  
 | HOLE  | ALPHA    | BETA     | PART  |    AMPLITUDE 
--------------------------------------------------
 |  34   | 11111100 | 11110000 |       |    -2.2333139651719E-01
 |  43   | 11111100 | 11110000 |       |     1.0475874758534E-01
 |  33   | 11111010 | 11110000 |       |    -2.2333150382142E-01
 |  42   | 11111010 | 11110000 |       |     1.0475921014854E-01
 |  34   | 11111000 | 11110100 |       |    -2.8322457527301E-01
 |  43   | 11111000 | 11110100 |       |     1.3161076568211E-01
 |  33   | 11111000 | 11110010 |       |    -2.8322462572978E-01
 |  42   | 11111000 | 11110010 |       |     1.3161129556331E-01
 |  34   | 11110100 | 11111000 |       |    -5.0655597179025E-01
 |  43   | 11110100 | 11111000 |       |     2.3636951326749E-01
 |  44   | 11110100 | 11111000 |       |     1.2341457576657E-01
 |  33   | 11110010 | 11111000 |       |    -5.0655612955130E-01
 |  42   | 11110010 | 11111000 |       |     2.3637050571190E-01
 |  45   | 11110010 | 11111000 |       |    -1.2341306218316E-01
--------------------------------------------------
*** Contributions RASCI wfn    Active:   0.11
                                 Hole:  99.56
                                 Part:   0.33

      Mulliken population analysis 
 ---------------------------------------------------
   Atom    Charge (a.u.)   Spin (a.u.)  
 ---------------------------------------------------
   1 Cr   -0.038787        0.473486 
   2  N   -0.288443        0.586573 
   3  N   -0.330771        0.002749 
   4  C   -0.229485       -0.000872 
   5  C   -0.168833       -0.005468 
   6  N   -0.359295       -0.010015 
   7  N   -0.359295       -0.010015 
   8  C   -0.168833       -0.005468 
   9  C   -0.168833       -0.005468 
  10  N   -0.359295       -0.010015 
  11  C   -0.168833       -0.005468 
  12  N   -0.359295       -0.010015 
 ---------------------------------------------------
   Sum:   -3.000000        1.000000 
 ---------------------------------------------------
 
  
 NATURAL OCCUPATION NUMBERS (higher than 1.0E-05)
            1           2           3           4           5           6
    1   2.0000000   2.0000000   2.0000000   2.0000000   2.0000000   2.0000000
            7           8           9          10          11          12
    1   2.0000000   2.0000000   2.0000000   2.0000000   2.0000000   2.0000000
           13          14          15          16          17          18
    1   2.0000000   2.0000000   2.0000000   2.0000000   2.0000000   2.0000000
           19          20          21          22          23          24
    1   2.0000000   2.0000000   2.0000000   2.0000000   2.0000000   2.0000000
           25          26          27          28          29          30
    1   2.0000000   2.0000000   2.0000000   1.9999999   1.9999999   1.9999999
           31          32          33          34          35          36
    1   1.9999998   1.9999993   1.9999984   1.9999984   1.9999984   1.9999954
           37          38          39          40          41          42
    1   1.9999940   1.9999940   1.9999862   1.9999862   1.9999685   1.9999524
           43          44          45          46          47          48
    1   1.9998988   1.9998988   1.9998401   1.9997436   1.9996698   1.5019893
           49          50          51          52          53          54
    1   1.5019890   0.9910691   0.4985662   0.4985658   0.0055830   0.0031443
           55          56          57          58          59
    1   0.0000448   0.0000448   0.0000243   0.0000243   0.0000102
  
*** Unpaired Electrons
 Yamaguchi Nd:         4.01
 Head-Gordon Nu:       2.99
 Head-Gordon Nu_nl:    3.24
  
**************************************************
 RAS-CI total energy for state   7:  -1558.923074105939
  Excitation energy (eV) =  5.098972102802
  Warning: not all configurations have same symmetry
  State symmetry: *B1    (C2v      )
  <S^2>      :  0.7500
  Dipole Moment:    0.0000 X     0.0000 Y     0.3684 Z
  Trans. Moment:   -0.0096 X    -0.0002 Y    -0.0000 Z
  Strength   :  0.000012
  Natural transition orbitals ( 1 -> 7 ):
   e-/hole pair  1 alpha:  ampl =  0.081508 (  0.7%)   [8 : 9]
   e-/hole pair  2 alpha:  ampl =  0.033378 (  0.1%)   [7 : 10]
   e-/hole pair  1 beta :  ampl =  0.070034 (  0.5%)   [8 : 9]
   e-/hole pair  2 beta :  ampl =  0.020129 (  0.0%)   [7 : 10]
   Sum of square amplitudes: 0.01

 NATURAL OCCUPATION NUMBERS (higher than 1.0E-05)
            1           2           3           4           5           6
    1   2.0000000   2.0000000   2.0000000   2.0000000   2.0000000   2.0000000
            7           8           9          10          11          12
    1   2.0000000   2.0000000   2.0000000   2.0000000   2.0000000   2.0000000
           13          14          15          16          17          18
    1   2.0000000   2.0000000   2.0000000   2.0000000   2.0000000   2.0000000
           19          20          21          22          23          24
    1   2.0000000   2.0000000   2.0000000   2.0000000   2.0000000   2.0000000
           25          26          27          28          29          30
    1   2.0000000   2.0000000   2.0000000   2.0000000   2.0000000   1.9999999
           31          32          33          34          35          36
    1   1.9999997   1.9999996   1.9999986   1.9999968   1.9999955   1.9999940
           37          38          39          40          41          42
    1   1.9999902   1.9999879   1.9999844   1.9999824   1.9999745   1.9999513
           43          44          45          46          47          48
    1   1.9999238   1.9998120   1.9996557   1.9991914   1.9968806   1.6948187
           49          50          51          52          53          54
    1   1.3130771   1.2233828   0.7638948   0.0044716   0.0025549   0.0023813
           55          56          57          58
    1   0.0000222   0.0000213   0.0000191   0.0000106
Natural Orbitals stored in FCHK

  Amplitudes : 
  
 | HOLE  | ALPHA    | BETA     | PART  |    AMPLITUDE 
--------------------------------------------------
 |  33   | 11110110 | 11110000 |       |     4.7611438322720E-01
 |  42   | 11110110 | 11110000 |       |    -2.1180079338907E-01
 |  45   | 11110110 | 11110000 |       |     1.2617182595773E-01
 |  34   | 11110100 | 11110100 |       |     1.7184180185203E-01
 |  33   | 11110100 | 11110010 |       |    -5.5522621549385E-01
 |  42   | 11110100 | 11110010 |       |     2.4569238225654E-01
 |  45   | 11110100 | 11110010 |       |    -1.4585774516728E-01
 |  34   | 11110010 | 11110010 |       |    -4.6001674692309E-01
 |  43   | 11110010 | 11110010 |       |     2.0285143109129E-01
 |  44   | 11110010 | 11110010 |       |     1.1929495289852E-01
--------------------------------------------------
*** Contributions RASCI wfn    Active:   0.12
                                 Hole:  99.62
                                 Part:   0.27

      Mulliken population analysis 
 ---------------------------------------------------
   Atom    Charge (a.u.)   Spin (a.u.)  
 ---------------------------------------------------
   1 Cr    0.229458        0.543782 
   2  N   -0.781344        0.438860 
   3  N   -0.332624        0.002080 
   4  C   -0.229645       -0.000572 
   5  C   -0.152354        0.001520 
   6  N   -0.317289        0.004853 
   7  N   -0.321767        0.001394 
   8  C   -0.151513        0.000158 
   9  C   -0.152354        0.001520 
  10  N   -0.317289        0.004853 
  11  C   -0.151513        0.000158 
  12  N   -0.321767        0.001394 
 ---------------------------------------------------
   Sum:   -3.000000        1.000000 
 ---------------------------------------------------
 
  
 NATURAL OCCUPATION NUMBERS (higher than 1.0E-05)
            1           2           3           4           5           6
    1   2.0000000   2.0000000   2.0000000   2.0000000   2.0000000   2.0000000
            7           8           9          10          11          12
    1   2.0000000   2.0000000   2.0000000   2.0000000   2.0000000   2.0000000
           13          14          15          16          17          18
    1   2.0000000   2.0000000   2.0000000   2.0000000   2.0000000   2.0000000
           19          20          21          22          23          24
    1   2.0000000   2.0000000   2.0000000   2.0000000   2.0000000   2.0000000
           25          26          27          28          29          30
    1   2.0000000   2.0000000   2.0000000   2.0000000   2.0000000   1.9999999
           31          32          33          34          35          36
    1   1.9999997   1.9999996   1.9999986   1.9999968   1.9999955   1.9999940
           37          38          39          40          41          42
    1   1.9999902   1.9999879   1.9999844   1.9999824   1.9999745   1.9999513
           43          44          45          46          47          48
    1   1.9999238   1.9998120   1.9996557   1.9991914   1.9968806   1.6948187
           49          50          51          52          53          54
    1   1.3130771   1.2233828   0.7638948   0.0044716   0.0025549   0.0023813
           55          56          57          58
    1   0.0000222   0.0000213   0.0000191   0.0000106
  
*** Unpaired Electrons
 Yamaguchi Nd:         3.34
 Head-Gordon Nu:       2.55
 Head-Gordon Nu_nl:    2.88
  
**************************************************
 RAS-CI total energy for state   8:  -1558.923074102917
  Excitation energy (eV) =  5.098972185039
  Warning: not all configurations have same symmetry
  State symmetry: *B1    (C2v      )
  <S^2>      :  0.7500
  Dipole Moment:    0.0000 X    -0.0000 Y     0.3684 Z
  Trans. Moment:    0.0002 X    -0.0096 Y     0.0000 Z
  Strength   :  0.000012
  Natural transition orbitals ( 1 -> 8 ):
   e-/hole pair  1 alpha:  ampl =  0.081509 (  0.7%)   [8 : 9]
   e-/hole pair  2 alpha:  ampl =  0.033380 (  0.1%)   [7 : 10]
   e-/hole pair  1 beta :  ampl =  0.070034 (  0.5%)   [8 : 9]
   e-/hole pair  2 beta :  ampl =  0.020131 (  0.0%)   [7 : 10]
   Sum of square amplitudes: 0.01

 NATURAL OCCUPATION NUMBERS (higher than 1.0E-05)
            1           2           3           4           5           6
    1   2.0000000   2.0000000   2.0000000   2.0000000   2.0000000   2.0000000
            7           8           9          10          11          12
    1   2.0000000   2.0000000   2.0000000   2.0000000   2.0000000   2.0000000
           13          14          15          16          17          18
    1   2.0000000   2.0000000   2.0000000   2.0000000   2.0000000   2.0000000
           19          20          21          22          23          24
    1   2.0000000   2.0000000   2.0000000   2.0000000   2.0000000   2.0000000
           25          26          27          28          29          30
    1   2.0000000   2.0000000   2.0000000   2.0000000   2.0000000   1.9999999
           31          32          33          34          35          36
    1   1.9999997   1.9999996   1.9999986   1.9999968   1.9999955   1.9999940
           37          38          39          40          41          42
    1   1.9999902   1.9999879   1.9999844   1.9999824   1.9999745   1.9999513
           43          44          45          46          47          48
    1   1.9999238   1.9998120   1.9996557   1.9991914   1.9968805   1.6948179
           49          50          51          52          53          54
    1   1.3130783   1.2233819   0.7638949   0.0044720   0.0025550   0.0023813
           55          56          57          58
    1   0.0000222   0.0000213   0.0000191   0.0000106
Natural Orbitals stored in FCHK

  Amplitudes : 
  
 | HOLE  | ALPHA    | BETA     | PART  |    AMPLITUDE 
--------------------------------------------------
 |  34   | 11110110 | 11110000 |       |     4.7611399448547E-01
 |  43   | 11110110 | 11110000 |       |    -2.1179981291369E-01
 |  44   | 11110110 | 11110000 |       |    -1.2617289851965E-01
 |  33   | 11110100 | 11110100 |       |     4.6001692448221E-01
 |  42   | 11110100 | 11110100 |       |    -2.0285233549118E-01
 |  45   | 11110100 | 11110100 |       |     1.1929348270521E-01
 |  34   | 11110010 | 11110100 |       |     5.5522578706677E-01
 |  43   | 11110010 | 11110100 |       |    -2.4569117559662E-01
 |  44   | 11110010 | 11110100 |       |    -1.4585901728235E-01
 |  33   | 11110010 | 11110010 |       |    -1.7184310955928E-01
--------------------------------------------------
*** Contributions RASCI wfn    Active:   0.12
                                 Hole:  99.62
                                 Part:   0.27

      Mulliken population analysis 
 ---------------------------------------------------
   Atom    Charge (a.u.)   Spin (a.u.)  
 ---------------------------------------------------
   1 Cr    0.229457        0.543782 
   2  N   -0.781344        0.438860 
   3  N   -0.332624        0.002080 
   4  C   -0.229645       -0.000572 
   5  C   -0.151513        0.000158 
   6  N   -0.321767        0.001394 
   7  N   -0.317289        0.004853 
   8  C   -0.152354        0.001520 
   9  C   -0.151513        0.000158 
  10  N   -0.321767        0.001394 
  11  C   -0.152354        0.001520 
  12  N   -0.317289        0.004853 
 ---------------------------------------------------
   Sum:   -3.000000        1.000000 
 ---------------------------------------------------
 
  
 NATURAL OCCUPATION NUMBERS (higher than 1.0E-05)
            1           2           3           4           5           6
    1   2.0000000   2.0000000   2.0000000   2.0000000   2.0000000   2.0000000
            7           8           9          10          11          12
    1   2.0000000   2.0000000   2.0000000   2.0000000   2.0000000   2.0000000
           13          14          15          16          17          18
    1   2.0000000   2.0000000   2.0000000   2.0000000   2.0000000   2.0000000
           19          20          21          22          23          24
    1   2.0000000   2.0000000   2.0000000   2.0000000   2.0000000   2.0000000
           25          26          27          28          29          30
    1   2.0000000   2.0000000   2.0000000   2.0000000   2.0000000   1.9999999
           31          32          33          34          35          36
    1   1.9999997   1.9999996   1.9999986   1.9999968   1.9999955   1.9999940
           37          38          39          40          41          42
    1   1.9999902   1.9999879   1.9999844   1.9999824   1.9999745   1.9999513
           43          44          45          46          47          48
    1   1.9999238   1.9998120   1.9996557   1.9991914   1.9968805   1.6948179
           49          50          51          52          53          54
    1   1.3130783   1.2233819   0.7638949   0.0044720   0.0025550   0.0023813
           55          56          57          58
    1   0.0000222   0.0000213   0.0000191   0.0000106
  
*** Unpaired Electrons
 Yamaguchi Nd:         3.34
 Head-Gordon Nu:       2.55
 Head-Gordon Nu_nl:    2.88
  
**************************************************
 RAS-CI total energy for state   9:  -1558.921121570127
  Excitation energy (eV) =  5.152103305466
  State symmetry: A1    (C2v      )
  <S^2>      :  0.7500
  Dipole Moment:   -0.0000 X     0.0000 Y     1.1905 Z
  Trans. Moment:    0.0000 X    -0.0000 Y     0.0000 Z
  Strength   :  0.000000
  Natural transition orbitals ( 1 -> 9 ):
   e-/hole pair  1 alpha:  ampl =  0.922078 ( 85.0%)   [8 : 9]
   e-/hole pair  2 alpha:  ampl =  0.041353 (  0.2%)   [7 : 10]
   e-/hole pair  1 beta :  ampl =  0.018785 (  0.0%)   [8 : 9]
   e-/hole pair  2 beta :  ampl =  0.018785 (  0.0%)   [7 : 10]
   Sum of square amplitudes: 0.85

 NATURAL OCCUPATION NUMBERS (higher than 1.0E-05)
            1           2           3           4           5           6
    1   2.0000000   2.0000000   2.0000000   2.0000000   2.0000000   2.0000000
            7           8           9          10          11          12
    1   2.0000000   2.0000000   2.0000000   2.0000000   2.0000000   2.0000000
           13          14          15          16          17          18
    1   2.0000000   2.0000000   2.0000000   2.0000000   2.0000000   2.0000000
           19          20          21          22          23          24
    1   2.0000000   2.0000000   2.0000000   2.0000000   2.0000000   2.0000000
           25          26          27          28          29          30
    1   2.0000000   2.0000000   2.0000000   2.0000000   2.0000000   2.0000000
           31          32          33          34          35          36
    1   2.0000000   2.0000000   1.9999999   1.9999999   1.9999996   1.9999996
           37          38          39          40          41          42
    1   1.9999995   1.9999992   1.9999889   1.9999847   1.9999739   1.9999739
           43          44          45          46          47          48
    1   1.9999464   1.9999464   1.9999093   1.9997256   1.9991592   1.9968816
           49          50          51          52          53          54
    1   1.9968816   0.9929416   0.0070517   0.0034300   0.0034300   0.0003955
           55          56          57          58          59
    1   0.0001157   0.0000892   0.0000892   0.0000471   0.0000115
Natural Orbitals stored in FCHK

  Amplitudes : 
  
 | HOLE  | ALPHA    | BETA     | PART  |    AMPLITUDE 
--------------------------------------------------
 |       | 11110000 | 11110000 |  54   |     9.9626119439023E-01
--------------------------------------------------
*** Contributions RASCI wfn    Active:   0.02
                                 Hole:   0.65
                                 Part:  99.34

      Mulliken population analysis 
 ---------------------------------------------------
   Atom    Charge (a.u.)   Spin (a.u.)  
 ---------------------------------------------------
   1 Cr   -1.621143        2.199180 
   2  N    0.052154       -0.217431 
   3  N   -0.362114        0.031669 
   4  C   -0.131771       -0.097223 
   5  C    0.193990       -0.342004 
   6  N   -0.428271        0.112955 
   7  N   -0.428272        0.112955 
   8  C    0.193990       -0.342004 
   9  C    0.193990       -0.342004 
  10  N   -0.428271        0.112955 
  11  C    0.193990       -0.342004 
  12  N   -0.428272        0.112955 
 ---------------------------------------------------
   Sum:   -3.000000        1.000000 
 ---------------------------------------------------
 
  
 NATURAL OCCUPATION NUMBERS (higher than 1.0E-05)
            1           2           3           4           5           6
    1   2.0000000   2.0000000   2.0000000   2.0000000   2.0000000   2.0000000
            7           8           9          10          11          12
    1   2.0000000   2.0000000   2.0000000   2.0000000   2.0000000   2.0000000
           13          14          15          16          17          18
    1   2.0000000   2.0000000   2.0000000   2.0000000   2.0000000   2.0000000
           19          20          21          22          23          24
    1   2.0000000   2.0000000   2.0000000   2.0000000   2.0000000   2.0000000
           25          26          27          28          29          30
    1   2.0000000   2.0000000   2.0000000   2.0000000   2.0000000   2.0000000
           31          32          33          34          35          36
    1   2.0000000   2.0000000   1.9999999   1.9999999   1.9999996   1.9999996
           37          38          39          40          41          42
    1   1.9999995   1.9999992   1.9999889   1.9999847   1.9999739   1.9999739
           43          44          45          46          47          48
    1   1.9999464   1.9999464   1.9999093   1.9997256   1.9991592   1.9968816
           49          50          51          52          53          54
    1   1.9968816   0.9929416   0.0070517   0.0034300   0.0034300   0.0003955
           55          56          57          58          59
    1   0.0001157   0.0000892   0.0000892   0.0000471   0.0000115
  
*** Unpaired Electrons
 Yamaguchi Nd:         1.04
 Head-Gordon Nu:       1.02
 Head-Gordon Nu_nl:    1.00
  
**************************************************
 RAS-CI total energy for state  10:  -1558.898425665122
  Excitation energy (eV) =  5.769690302519
  Warning: not all configurations have same symmetry
  State symmetry: *A1    (C2v      )
  <S^2>      :  0.7500
  Dipole Moment:    0.0000 X    -0.0000 Y    -1.4578 Z
  Trans. Moment:   -0.0000 X    -0.0000 Y    -0.0000 Z
  Strength   :  0.000000
  Natural transition orbitals ( 1 -> 10 ):
   e-/hole pair  1 alpha:  ampl =  0.461376 ( 21.3%)   [8 : 9]
   e-/hole pair  2 alpha:  ampl =  0.461375 ( 21.3%)   [7 : 10]
   e-/hole pair  1 beta :  ampl =  0.442897 ( 19.6%)   [8 : 9]
   e-/hole pair  2 beta :  ampl =  0.442897 ( 19.6%)   [7 : 10]
   Sum of square amplitudes: 0.84

 NATURAL OCCUPATION NUMBERS (higher than 1.0E-05)
            1           2           3           4           5           6
    1   2.0000000   2.0000000   2.0000000   2.0000000   2.0000000   2.0000000
            7           8           9          10          11          12
    1   2.0000000   2.0000000   2.0000000   2.0000000   2.0000000   2.0000000
           13          14          15          16          17          18
    1   2.0000000   2.0000000   2.0000000   2.0000000   2.0000000   2.0000000
           19          20          21          22          23          24
    1   2.0000000   2.0000000   2.0000000   2.0000000   2.0000000   2.0000000
           25          26          27          28          29          30
    1   2.0000000   2.0000000   2.0000000   1.9999999   1.9999999   1.9999999
           31          32          33          34          35          36
    1   1.9999997   1.9999994   1.9999986   1.9999986   1.9999963   1.9999934
           37          38          39          40          41          42
    1   1.9999934   1.9999869   1.9999790   1.9999790   1.9999318   1.9999242
           43          44          45          46          47          48
    1   1.9999132   1.9998537   1.9998537   1.9994944   1.9981554   1.5120183
           49          50          51          52          53          54
    1   1.5120175   0.9642275   0.4895907   0.4895899   0.0215737   0.0137010
           55          56          57          58          59
    1   0.0000532   0.0000532   0.0000361   0.0000361   0.0000101
Natural Orbitals stored in FCHK

  Amplitudes : 
  
 | HOLE  | ALPHA    | BETA     | PART  |    AMPLITUDE 
--------------------------------------------------
 |  34   | 11111100 | 11110000 |       |    -4.4401236263140E-01
 |  43   | 11111100 | 11110000 |       |     2.1139332415126E-01
 |  44   | 11111100 | 11110000 |       |     1.0805469750499E-01
 |  33   | 11111010 | 11110000 |       |    -4.4401176045950E-01
 |  42   | 11111010 | 11110000 |       |     2.1139384092219E-01
 |  45   | 11111010 | 11110000 |       |    -1.0805316123903E-01
 |  34   | 11111000 | 11110100 |       |     4.1836948788753E-01
 |  43   | 11111000 | 11110100 |       |    -1.9869160453292E-01
 |  44   | 11111000 | 11110100 |       |    -1.0055443838314E-01
 |  33   | 11111000 | 11110010 |       |     4.1836932586314E-01
 |  42   | 11111000 | 11110010 |       |    -1.9869227580371E-01
 |  45   | 11111000 | 11110010 |       |     1.0055309440577E-01
 |       | 11110000 | 11110000 |  55   |     1.0703184961667E-01
--------------------------------------------------
*** Contributions RASCI wfn    Active:   0.17
                                 Hole:  97.65
                                 Part:   2.18

      Mulliken population analysis 
 ---------------------------------------------------
   Atom    Charge (a.u.)   Spin (a.u.)  
 ---------------------------------------------------
   1 Cr   -0.047824        0.731236 
   2  N   -0.291132        0.021381 
   3  N   -0.331090        0.000501 
   4  C   -0.229139        0.000075 
   5  C   -0.167356        0.019040 
   6  N   -0.357848        0.042661 
   7  N   -0.357848        0.042661 
   8  C   -0.167356        0.019040 
   9  C   -0.167356        0.019040 
  10  N   -0.357848        0.042661 
  11  C   -0.167356        0.019040 
  12  N   -0.357848        0.042661 
 ---------------------------------------------------
   Sum:   -3.000000        1.000000 
 ---------------------------------------------------
 
  
 NATURAL OCCUPATION NUMBERS (higher than 1.0E-05)
            1           2           3           4           5           6
    1   2.0000000   2.0000000   2.0000000   2.0000000   2.0000000   2.0000000
            7           8           9          10          11          12
    1   2.0000000   2.0000000   2.0000000   2.0000000   2.0000000   2.0000000
           13          14          15          16          17          18
    1   2.0000000   2.0000000   2.0000000   2.0000000   2.0000000   2.0000000
           19          20          21          22          23          24
    1   2.0000000   2.0000000   2.0000000   2.0000000   2.0000000   2.0000000
           25          26          27          28          29          30
    1   2.0000000   2.0000000   2.0000000   1.9999999   1.9999999   1.9999999
           31          32          33          34          35          36
    1   1.9999997   1.9999994   1.9999986   1.9999986   1.9999963   1.9999934
           37          38          39          40          41          42
    1   1.9999934   1.9999869   1.9999790   1.9999790   1.9999318   1.9999242
           43          44          45          46          47          48
    1   1.9999132   1.9998537   1.9998537   1.9994944   1.9981554   1.5120183
           49          50          51          52          53          54
    1   1.5120175   0.9642275   0.4895907   0.4895899   0.0215737   0.0137010
           55          56          57          58          59
    1   0.0000532   0.0000532   0.0000361   0.0000361   0.0000101
  
*** Unpaired Electrons
 Yamaguchi Nd:         4.03
 Head-Gordon Nu:       2.96
 Head-Gordon Nu_nl:    3.18
  
--------------------------------------------------
 Interstate Transition Properties
--------------------------------------------------
State A: Root  1
State B: Root  2
  
Angular momentum components
< B | Lx | A > =     0.000000000i
< B | Ly | A > =    -0.000000003i
< B | Lz | A > =    -1.083366908i
  
Norm of one-particle transition density matrix
||gamma^AB||_total       =  0.985058
||gamma^AB||_symmetrized =  0.695532
||gamma^AB||_anti-symm   =  0.697550
  
Spin-orbit couplings
 Using HF (reference) density for the 2-elec mean-field SOC contribution
KET: S',Sz' (Root   1) =  0.500 0.500
BRA: S ,Sz  (Root   2) =  0.500 0.500
Clebsh-Gordan coefficient: < 0.500, 0.500; 1.000, 0.000| 0.500, 0.500> = -0.577
 Computing 1e-SO integrals
 1e Reduced matrix elements (cm-1)
<S|| Hso(L-) ||S'> =     0.0000010142    -0.0000000452
<S|| Hso(L0) ||S'> =     0.0000000000   616.1474151841
<S|| Hso(L+) ||S'> =     0.0000010142     0.0000000452
 1-elec SOC matrix (cm-1): < B(S,Sz) | Hso(1e) | A(S',Sz') >
                     |Sz'=-0.50>              |Sz'= 0.50>
 <Sz=-0.50|    0.000000  355.732876i    -0.000001   -0.000000i
 <Sz= 0.50|    0.000001   -0.000000i     0.000000 -355.732876i
1-elec SOCC =   503.082257845 cm-1
 Computing 2e-SOMF integrals
 Averagin spin alpha/beta reference densities
 2e-SOMF Reduced matrix elements (cm-1)
<S|| Hso(L-) ||S'> =    -0.0000004996     0.0000000222
<S|| Hso(L0) ||S'> =     0.0000000000  -302.0879998028
<S|| Hso(L+) ||S'> =    -0.0000004996    -0.0000000222
 2-elec mean-field SOC matrix (cm-1): < B(S,Sz) | Hso(2e-mf) | A(S',Sz') >
                     |Sz'=-0.50>              |Sz'= 0.50>
 <Sz=-0.50|    0.000000 -174.410588i     0.000000    0.000000i
 <Sz= 0.50|   -0.000000    0.000000i    -0.000000  174.410588i
 Total mean-field SOC matrix (cm-1): < B(S,Sz) | Hsomf | A(S',Sz') >
                     |Sz'=-0.50>              |Sz'= 0.50>
 <Sz=-0.50|    0.000000  181.322288i    -0.000000   -0.000000i
 <Sz= 0.50|    0.000000   -0.000000i     0.000000 -181.322288i
Mean-Field SOCC =   256.428438867 cm-1
   
**************************************************
State A: Root  1
State B: Root  3
  
Angular momentum components
< B | Lx | A > =    -0.000001283i
< B | Ly | A > =     0.500417655i
< B | Lz | A > =    -0.000000003i
  
Norm of one-particle transition density matrix
||gamma^AB||_total       =  0.952063
||gamma^AB||_symmetrized =  0.677099
||gamma^AB||_anti-symm   =  0.669299
  
Spin-orbit couplings
 Using HF (reference) density for the 2-elec mean-field SOC contribution
KET: S',Sz' (Root   1) =  0.500 0.500
BRA: S ,Sz  (Root   3) =  0.500 0.500
Clebsh-Gordan coefficient: < 0.500, 0.500; 1.000, 0.000| 0.500, 0.500> = -0.577
 Reading 1e-SO integrals
[...]
    99   -3.278344148658e-13
   100   -1.305806462365e-14
   101   -5.068936467145e-14
   102    2.078931709726e-03
   103    6.810195788708e-14
   104   -3.609646030189e-14
   105    5.604201871975e-16
   106    8.548465033831e-05
   107   -6.281687302924e-16
   108   -2.561534163783e-13
   109   -5.720833977835e-13
   110    9.895892717982e-12
   111   -5.692950468421e-11
   112    2.836236887581e-11
   113   -8.350586017009e-03
   114   -7.617145733074e-13
   115    1.474027608668e-12
   116   -2.243279246749e-02
   117   -1.523472770611e-12
   118    4.431231257935e-11
   119    1.632599167095e-01
   120    1.702930283402e-12
   121   -6.392277164276e-11
   122    9.803092317155e-13
   123   -8.939583053696e-04
   124   -5.940485772476e-14
   125   -1.991266471826e-13
   126   -2.738919333603e-15
   127   -3.373861747169e-11
   128    4.185075322413e-02
   129    1.184741493390e-12
   130    2.053292590824e-12
   131   -1.034824380741e-13
   132    2.019024680867e-12
   133   -6.798579351495e-03
   134   -2.100526247615e-13
   135    1.768699852994e-13
   136   -1.375066731361e-15
   137    1.015741248426e-03
   138   -1.772291427429e-14
   139   -7.686545958880e-03
   140   -1.544452226198e-02
   141   -4.998780765016e-02
   142    9.613516396198e-01
   143    1.460867384205e+00
   144   -1.864215360456e-02
   145   -3.154920876439e-12
   146    4.541836816006e-03
   147    1.692257577644e-01
   148   -5.002933019219e-12
   149   -4.729257419318e-02
   150    2.904669062315e+00
   151   -3.535927703953e-12
   152   -1.165535437674e-01
   153   -1.405608734491e-03
   154    9.659747987493e-04
   155   -4.711938644685e-14
   156    3.691062425832e-03
   157    1.925418981375e-13
   158    7.618716507341e-03
   159   -1.357414478363e-02
   160    4.975448663606e-14
   161    2.710788180151e-02
   162   -5.081028491788e-13
   163    7.734681130133e-04
   164   -1.966999391817e-03
   165    3.312050831933e-14
   166   -3.135887355688e-04
   167    2.646144303229e-14
   168   -5.578520366440e-04
   169   -1.589372728636e-13
   170    1.363496931330e-02
   171    3.554135838363e-02
   172   -9.511199773512e-02
   173    1.812314989115e-01
   174   -3.810295192207e+00
   175   -1.605531406017e-02
   176    1.910079414361e-12
   177    1.241905880793e-02
   178    7.249047797411e-02
   179    1.531154269100e-12
   180    1.372939809411e-02
   181    9.753060744195e-01
   182    6.708288773206e-12
   183   -1.395511618010e-01
   184   -1.980669040580e-03
   185   -1.074546865100e-03
   186   -2.363448179319e-14
   187    4.233637929304e-03
   188    1.371402868679e-13
   189    3.582239047635e-02
   190    9.888002757881e-03
   191   -1.979363808950e-14
   192   -5.883369149712e-02
   193   -2.219422933688e-13
   194    1.330877016494e-04
   195   -2.574616578615e-03
   196   -1.684652754045e-14
   197   -1.195533430802e-04
   198   -5.433529089563e-15
   199    2.916855951838e-03
   200    5.056272133512e-14
   201    1.175532003792e-12
   202    3.393830921745e-12
   203   -1.531977632601e-11
   204    7.474860231231e-11
   205   -4.922110851023e-10
   206    1.366375634523e-01
   207   -3.318303750851e-12
   208   -1.351551122084e-11
   209    9.963972329442e-02
   210   -1.098432679466e-11
   211   -1.076976886778e-11
   212    4.121727374664e-01
   213    1.154565317143e-10
   214   -5.458383334035e-11
   215   -2.148844066998e-13
   216   -1.104526223060e-03
   217   -7.628474928536e-13
   218   -5.314532286462e-13
   219    6.320811432284e-03
   220    2.663784306027e-12
   221   -5.180398362056e-04
   222    1.553613207459e-12
   223    4.157038082170e-12
   224   -2.371843059073e-04
   225    1.202082176645e-13
   226   -5.350032863374e-04
   227   -3.113308434689e-13
   228    1.470937500668e-13
   229   -3.045935296525e-04
   230   -1.543685379436e-03
   231   -3.756609421981e-13
   232    2.877473927250e-13
   233    5.532548190700e-13
   234    1.242782590104e-12
   235    4.098989333466e-11
   236    2.078920220312e-10
   237   -1.762576640483e-01
   238    3.273430364141e-12
   239    1.671389960541e-11
   240   -2.644853659859e-01
   241    2.488826338370e-12
   242    1.363366242075e-11
   243   -2.605448010359e-01
   244    3.747619621687e-10
   245   -2.774100743562e-12
   246    5.402083318927e-13
   247   -1.273276831693e-03
   248   -1.672472490788e-12
   249   -5.346059502460e-13
   250    1.142238765558e-02
   251    3.224960844081e-12
   252   -1.268558647941e-02
   253    6.680292811877e-12
   254    1.305525902551e-11
   255    9.083858824298e-03
   256   -2.625642494179e-13
   257    1.010238739349e-03
   258    5.377762688212e-13
   259   -5.121239299528e-13
   260    1.692011512243e-03
   261    6.678507855816e-03
   262    1.587198572810e-13
   263    7.686545957256e-03
   264    1.544452225824e-02
   265    4.998780768495e-02
   266   -9.613516397947e-01
   267   -1.460867384087e+00
   268   -1.864215359692e-02
   269   -1.028130199046e-12
   270   -4.541836812624e-03
   271    1.692257579431e-01
   272   -2.944031694582e-12
   273    4.729257420553e-02
   274    2.904669061864e+00
   275    6.560942536415e-12
   276    1.165535436787e-01
   277    1.405608735431e-03
   278    9.659747999219e-04
   279   -3.926584012006e-14
   280   -3.691062426565e-03
   281   -4.164716650030e-14
   282   -7.618716467727e-03
   283   -1.357414482062e-02
   284    2.473446489672e-14
   285   -2.710788188755e-02
   286    4.696949934786e-13
   287   -7.734681150051e-04
   288   -1.966999397224e-03
   289    3.889457581772e-14
   290    3.135887380479e-04
   291   -4.141346838300e-14
   292   -5.578520306043e-04
   293   -1.987193567829e-13
   294   -1.363496931366e-02
   295   -3.554135838339e-02
   296    9.511199770560e-02
   297   -1.812314986199e-01
   298    3.810295191852e+00
   299   -1.605531406708e-02
   300   -1.885763123702e-13
   301   -1.241905880442e-02
   302    7.249047808047e-02
   303   -6.377274097477e-14
   304   -1.372939808389e-02
   305    9.753060743934e-01
   306   -2.528874165807e-14
   307    1.395511618078e-01
   308    1.980669040229e-03
   309   -1.074546864643e-03
   310   -1.347919572782e-14
   311   -4.233637928596e-03
   312   -4.530932473050e-14
   313   -3.582239048895e-02
   314    9.888002758740e-03
   315   -4.372458694186e-14
   316    5.883369151739e-02
   317    2.482701307868e-13
   318   -1.330877016363e-04
   319   -2.574616579224e-03
   320   -1.999473796681e-14
   321    1.195533430004e-04
   322    5.646492150094e-15
   323    2.916855952418e-03
   324    6.410565300914e-14
   325    2.307265523313e-13
   326    3.314784377819e-13
   327    8.658231241596e-12
   328   -3.311873343827e-11
   329    1.164509291896e-10
   330   -1.762576640467e-01
   331   -2.035105820246e-12
   332    1.401028590153e-11
   333   -2.644853659842e-01
   334    2.909335858184e-11
   335    1.621322293425e-11
   336   -2.605448010305e-01
   337   -2.220152668750e-10
   338   -1.238052487933e-11
   339    8.185969249242e-13
   340   -1.273276831693e-03
   341    1.489171943830e-12
   342   -1.029645692303e-13
   343   -1.142238765543e-02
   344    7.636907640701e-12
   345   -1.268558647942e-02
   346   -9.129122819038e-12
   347    2.212216731843e-11
   348   -9.083858824348e-03
   349   -4.637379215937e-13
   350    1.010238739340e-03
   351   -1.296256691278e-12
   352   -7.725045585503e-13
   353   -1.692011512262e-03
   354    6.678507855863e-03
   355   -1.103385102760e-12
   356    3.640514937503e-13
   357    1.362846014460e-12
   358   -1.264514553024e-11
   359    9.185944131646e-11
   360   -2.779974988172e-10
   361    1.366375634506e-01
   362    1.401754728710e-12
   363   -1.232942502773e-11
   364    9.963972329275e-02
   365    2.681454458667e-11
   366   -8.912428139019e-12
   367    4.121727374628e-01
   368   -5.527739246391e-11
   369   -3.764808407531e-11
   370   -1.634713384060e-13
   371   -1.104526223055e-03
   372    5.920462170625e-13
   373   -3.917974572724e-13
   374   -6.320811432236e-03
   375   -7.411849170213e-13
   376   -5.180398362283e-04
   377   -3.063852568937e-13
   378   -1.968772236648e-12
   379    2.371843059969e-04
   380    8.309196591319e-14
   381   -5.350032863434e-04
   382    6.131054715303e-14
   383    1.000626147938e-13
   384    3.045935296497e-04
   385   -1.543685379446e-03
   386    4.395751414834e-14
Sym=X
Ene= 0.483342
Spin=Alpha
Occup=0
     1    1.232194838415e-08
     2   -2.047237966352e-08
     3    1.366879764816e-07
     4   -1.209572485557e-07
     5    4.864344029450e-06
     6   -4.499157672997e-06
     7   -9.565914396667e-13
     8   -3.006778192990e-13
     9    2.893584263585e-09
    10    3.040627318840e-12
    11    1.110009924688e-12
    12   -1.844420762481e-08
    13   -1.517725966100e-12
    14   -1.663319492990e-12
    15    7.775434119931e-08
    16    9.509654131977e-11
    17    1.301252150736e-11
    18   -1.818220510186e-06
    19    2.608491474748e-07
    20   -2.731890746255e-12
    21   -1.043873172038e-12
    22   -7.203525466867e-02
    23    1.409615641236e-13
    24    1.314442947693e-07
    25   -9.536391611209e-13
    26   -3.191258563830e-13
    27   -4.142879096727e-02
    28    9.691000177083e-14
    29    6.728648829075e-07
    30   -1.182528130938e-11
    31   -1.706686170427e-12
    32   -9.681448830214e-02
    33    2.734945607498e-14
    34    1.683003252774e-06
    35   -3.942512117013e-11
    36   -1.494789112367e-11
    37   -7.649913289005e-01
    38    4.309118154211e-13
    39   -9.033741751410e-10
    40   -3.601144390859e-14
    41    8.151574372645e-14
    42    1.378844192623e-02
    43    1.679261693322e-15
    44    4.712722099302e-13
    45    6.075647899010e-14
    46    6.803659160937e-09
    47    1.339760758261e-08
    48    3.807463429596e-08
    49   -4.135050418793e-07
    50    2.293000054651e-07
    51    1.342471995907e-12
    52    4.874326514788e-13
    53    7.641917937541e-08
    54   -2.185215992261e-12
    55   -6.079931209099e-13
    56    2.016081189720e-07
    57    2.178974267566e-11
    58    6.904049733173e-12
    59   -1.986813812458e-07
    60    3.823413250100e-09
    61    1.891816498074e-13
    62    4.978305365600e-14
    63    1.384876337813e-03
    64    5.374677131607e-16
    65    3.069464091671e-09
    66   -6.071085794026e-13
    67   -1.805551828925e-13
    68    2.629723988062e-02
    69    2.361464477489e-15
    70   -1.072776718719e-09
    71   -3.787405903689e-14
    72    6.014089779568e-15
    73   -2.281800201126e-03
    74   -7.563966717417e-16
    75    7.480900352718e-14
    76   -2.984493484596e-15
    77    3.196174289531e-08
    78    8.627800556998e-08
    79   -3.016488348758e-07
    80    1.073184797425e-06
    81   -9.846495227628e-06
    82   -2.227796827875e-12
    83   -6.528080959372e-13
    84    6.281824759056e-08
    85   -9.713069766451e-13
    86   -4.759605524377e-14
    87    1.035044037232e-07
    88   -6.011919447700e-12
    89   -8.780588222116e-13
    90   -2.366972468784e-06
    91    1.123344432763e-08
    92   -4.543254686390e-14
    93   -4.032054367036e-14
    94   -7.028086441979e-04
    95    2.734044333043e-17
    96   -1.125690906854e-07
    97    5.917180888756e-13
    98    4.151023092153e-13
    99   -4.326756176191e-03
   100    1.239437906540e-16
   101   -5.509475038753e-09
   102    1.388087217323e-13
   103    6.633043181554e-14
   104   -6.055442319947e-04
   105    3.542974393790e-17
   106    6.178995680680e-16
   107    3.244536411052e-16
   108    1.814843931752e-08
   109    4.993738215634e-08
   110   -2.360419786039e-07
   111    1.681111700633e-06
   112    4.074781736528e-06
   113   -1.040330470964e-12
   114   -4.199538666035e-13
   115   -7.834108273924e-08
   116   -3.449720737188e-12
   117   -1.321576637188e-12
   118   -7.810039914049e-08
   119    1.459588593199e-11
   120    1.640770866070e-12
   121   -7.456665037254e-06
   122    5.236781467789e-11
   123   -6.330628014067e-14
   124   -4.651028436627e-14
   125   -2.697304286814e-03
   126    2.520213211370e-16
   127   -1.286002378588e-07
   128    2.358840734528e-12
   129    1.084312679792e-12
   130   -1.929717869401e-02
   131   -4.865753364631e-15
   132    6.517739437020e-09
   133   -4.472382289465e-13
   134   -1.743558842768e-13
   135   -3.209852803438e-03
   136   -3.093937235249e-16
   137    8.862373175125e-14
   138   -6.944608835202e-15
   139   -2.755002145804e-05
   140   -1.536067704525e-03
   141    3.609704961745e-02
   142   -2.724659140147e-01
   143    7.086197281435e-01
   144    1.313301483846e-02
   145   -1.119304482440e-12
   146    1.509513177298e-01
   147    3.751273076709e-03
   148   -2.471037416162e-12
   149    1.993089132993e-01
   150   -2.814799241562e-01
   151    2.017952997627e-12
   152    5.259109929660e-01
   153    3.671088976419e-03
   154   -7.079190417860e-03
   155   -3.291536829339e-14
   156   -4.063667214804e-03
   157    7.901789777511e-14
   158    8.232571506342e-03
   159   -2.471524902275e-02
   160    6.788893855718e-14
   161   -8.197378050956e-03
   162   -6.303524291895e-13
   163   -4.042102810934e-04
   164   -1.658983106054e-04
   165    3.358039397731e-14
   166    1.953600795033e-03
   167    2.707323806057e-14
   168    1.021993606234e-04
   169   -1.292924863445e-13
   170   -1.655389482599e-03
   171   -3.901107436012e-03
   172    2.976871458445e-03
   173    2.938091681345e-02
   174    2.441889458585e-01
   175   -3.411833411400e-03
   176    2.988062313924e-13
   177   -1.301029325841e-01
   178   -2.131594245546e-02
   179    5.047405597694e-13
   180   -8.496657277913e-02
   181   -8.346189199584e-02
   182    1.305901865594e-12
   183   -4.117135074640e-01
   184    1.178290107305e-03
   185   -5.553113664407e-03
   186   -1.229675337792e-14
   187   -1.070666081387e-03
   188    5.729074733641e-14
   189   -3.506661798644e-03
   190   -8.184663465446e-03
   191   -2.014519126059e-14
   192    6.829388960409e-03
   193   -2.773738270317e-13
   194   -4.992682621666e-05
   195    1.967174825795e-04
   196   -1.536758948363e-14
   197    2.342384636716e-04
   198   -4.849159437978e-15
   199   -3.234183960743e-04
   200    5.160580587805e-14
   201    1.655404482986e-03
   202    3.901148817566e-03
   203   -2.977069079979e-03
   204   -2.937984620351e-02
   205   -2.441938319140e-01
   206    3.836002511934e-12
   207    3.411899477114e-03
   208    1.301029385669e-01
   209    2.882432910578e-12
   210    2.131566015328e-02
   211    8.496662651858e-02
   212    1.128860003833e-11
   213    8.346311715104e-02
   214    4.117131783257e-01
   215   -1.178288241766e-03
   216   -4.826062111726e-14
   217    5.553103358861e-03
   218   -1.070669241458e-03
   219    2.426396845386e-13
   220    3.506637477009e-03
   221   -7.206318513796e-14
   222    8.184688448203e-03
   223    6.829359874005e-03
   224   -1.756455843399e-13
   225    4.993029291615e-05
   226   -3.661997609217e-14
   227   -1.967136524239e-04
   228    2.342428829386e-04
   229   -1.786685745375e-14
   230   -1.206232353030e-13
   231   -3.234174106699e-04
   232    2.754139578725e-05
   233    1.536046276670e-03
   234   -3.609689976112e-02
   235    2.724651507467e-01
   236   -7.086123397466e-01
   237   -6.691721630601e-12
   238   -1.313304806855e-02
   239   -1.509511161109e-01
   240   -1.247410103168e-11
   241   -3.751707704285e-03
   242   -1.993084848589e-01
   243    3.147044257922e-12
   244    2.814828858428e-01
   245   -5.259116161006e-01
   246   -3.671080016850e-03
   247   -7.179473719113e-14
   248    7.079188738426e-03
   249   -4.063638529020e-03
   250    3.686105086843e-13
   251   -8.232416740216e-03
   252   -3.252020695339e-13
   253    2.471539544133e-02
   254   -8.197195334907e-03
   255   -2.500291303697e-13
   256    4.041899758824e-04
   257    4.398505381789e-14
   258    1.659025174772e-04
   259    1.953580797577e-03
   260    8.165088500413e-14
   261    4.312856835816e-13
   262    1.022147732923e-04
   263   -2.755002134973e-05
   264   -1.536067704507e-03
   265    3.609704962099e-02
   266   -2.724659140748e-01
   267    7.086197280247e-01
   268   -1.313301483800e-02
   269   -1.035553712686e-12
   270    1.509513177246e-01
   271   -3.751273082742e-03
   272   -2.364923130916e-12
   273    1.993089132976e-01
   274    2.814799245187e-01
   275    2.140656623045e-12
   276    5.259109929506e-01
   277    3.671088976352e-03
   278    7.079190417894e-03
   279   -3.342417759667e-14
   280   -4.063667214605e-03
   281   -7.393543751137e-14
   282    8.232571499097e-03
   283    2.471524902324e-02
   284    6.720117490906e-14
   285   -8.197378042059e-03
   286    6.588073321471e-13
   287   -4.042102809133e-04
   288    1.658983111335e-04
   289    3.299498896691e-14
   290    1.953600794783e-03
   291   -2.950329427108e-14
   292   -1.021993616014e-04
   293   -1.406886759869e-13
   294   -1.655389484382e-03
   295   -3.901107440530e-03
   296    2.976871471146e-03
   297    2.938091677066e-02
   298    2.441889462653e-01
   299    3.411833408957e-03
   300    2.419593041211e-13
   301   -1.301029325822e-01
   302    2.131594244530e-02
   303    4.639513358287e-13
   304   -8.496657278149e-02
   305    8.346189208437e-02
   306    1.248064924520e-12
   307   -4.117135074337e-01
   308    1.178290107417e-03
   309    5.553113664079e-03
   310   -1.227123820445e-14
   311   -1.070666081718e-03
   312   -5.588858953607e-14
   313   -3.506661800013e-03
   314    8.184663465434e-03
   315   -1.896787983841e-14
   316    6.829388962835e-03
   317    3.062615113093e-13
   318   -4.992682616526e-05
   319   -1.967174827193e-04
   320   -1.646507313273e-14
   321    2.342384635941e-04
   322    5.219550216912e-15
   323    3.234183962375e-04
   324    5.617492690631e-14
   325    2.754139574051e-05
   326    1.536046276526e-03
   327   -3.609689975115e-02
   328    2.724651506534e-01
   329   -7.086123398143e-01
   330   -6.569599056882e-12
   331    1.313304807019e-02
   332   -1.509511161126e-01
   333   -1.242031024674e-11
   334    3.751707753601e-03
   335   -1.993084848542e-01
   336    3.963700333730e-12
   337   -2.814828857500e-01
   338   -5.259116161082e-01
   339   -3.671080016338e-03
   340   -7.144684392118e-14
   341   -7.079188738693e-03
   342   -4.063638528138e-03
   343   -3.602245089277e-13
   344   -8.232416730863e-03
   345   -3.291550425277e-13
   346   -2.471539544538e-02
   347   -8.197195317635e-03
   348    2.517548735036e-13
   349    4.041899754476e-04
   350    4.414519750091e-14
   351   -1.659025188394e-04
   352    1.953580797016e-03
   353   -8.387141547864e-14
   354    4.403146424008e-13
   355   -1.022147751334e-04
   356    1.655404482408e-03
   357    3.901148816243e-03
   358   -2.977069082320e-03
   359   -2.937984615348e-02
   360   -2.441938317648e-01
   361    3.751449140545e-12
   362   -3.411899479049e-03
   363    1.301029385674e-01
   364    2.850217287538e-12
   365   -2.131566012444e-02
   366    8.496662652159e-02
   367    1.088172626174e-11
   368   -8.346311709983e-02
   369    4.117131783383e-01
   370   -1.178288241762e-03
   371   -4.763500629574e-14
   372   -5.553103358980e-03
   373   -1.070669241421e-03
   374   -2.367649944959e-13
   375    3.506637472343e-03
   376   -7.095183702604e-14
   377   -8.184688446420e-03
   378    6.829359865635e-03
   379    1.865982956157e-13
   380    4.993029285377e-05
   381   -3.760286895273e-14
   382    1.967136520579e-04
   383    2.342428828526e-04
   384    1.874353955296e-14
   385   -1.249904496905e-13
   386    3.234174101694e-04
[5D7F]

======= END OF MOLDEN-FORMATTED INPUT FILE =======


        *************************************************************
        *                                                           *
        *  Thank you very much for using Q-Chem.  Have a nice day.  *
        *                                                           *
        *************************************************************


