                  Welcome to Q-Chem
     A Quantum Leap Into The Future Of Chemistry


 Q-Chem 6.0 (devel), Q-Chem, Inc., Pleasanton, CA (2022)

 E. Epifanovsky,  A. T. B. Gilbert,  Xintian Feng,  Joonho Lee,  Yuezhi Mao,  
 N. Mardirossian,  P. Pokhilko,  A. White,  M. Wormit,  M. P. Coons,  
 A. L. Dempwolff,  Zhengting Gan,  D. Hait,  P. R. Horn,  L. D. Jacobson,  
 I. Kaliman,  J. Kussmann,  A. W. Lange,  Ka Un Lao,  D. S. Levine,  Jie Liu,  
 S. C. McKenzie,  A. F. Morrison,  K. Nanda,  F. Plasser,  D. R. Rehn,  
 M. L. Vidal,  Zhi-Qiang You,  Ying Zhu,  B. Alam,  B. Albrecht,  
 A. Aldossary,  E. Alguire,  J. H. Andersen,  V. Athavale,  D. Barton,  
 K. Begam,  A. Behn,  N. Bellonzi,  Y. A. Bernard,  E. J. Berquist,  
 H. Burton,  A. Carreras,  K. Carter-Fenk,  Romit Chakraborty,  
 Chandrima Chakravarty,  Junhan Chen,  A. D. Chien,  K. D. Closser,  
 V. Cofer-Shabica,  L. Cunha,  S. Dasgupta,  Jia Deng,  M. de Wergifosse,  
 M. Diedenhofen,  Hainam Do,  S. Ehlert,  Po-Tung Fang,  S. Fatehi,  
 Qingguo Feng,  T. Friedhoff,  B. Ganoe,  J. Gayvert,  Qinghui Ge,  
 G. Gidofalvi,  M. Goldey,  J. Gomes,  C. Gonzalez-Espinoza,  S. Gulania,  
 A. Gunina,  J. A. Gyamfi,  M. W. D. Hanson-Heine,  P. H. P. Harbach,  
 A. W. Hauser,  M. F. Herbst,  M. Hernandez Vera,  M. Hodecker,  
 Z. C. Holden,  S. Houck,  Xunkun Huang,  Kerwin Hui,  B. C. Huynh,  
 K. Ikeda,  M. Ivanov,  Hyunjun Ji,  Zuxin Jin,  Hanjie Jiang,  B. Kaduk,  
 S. Kaehler,  R. Kang,  K. Khistyaev,  Jaehoon Kim,  Yongbin Kim,  
 P. Klunzinger,  Z. Koczor-Benda,  Joong Hoon Koh,  D. Kosenkov,  
 Saikiran Kotaru,  L. Koulias,  T. Kowalczyk,  C. M. Krauter,  K. Kue,  
 A. Kunitsa,  T. Kus,  A. Landau,  K. V. Lawler,  D. Lefrancois,  S. Lehtola,  
 Rain Li,  Shaozhi Li,  Yi-Pei Li,  Jiashu Liang,  M. Liebenthal,  
 Hung-Hsuan Lin,  You-Sheng Lin,  Fenglai Liu,  Kuan-Yu Liu,  
 M. Loipersberger,  A. Luenser,  C. Malbon,  A. Manjanath,  P. Manohar,  
 E. Mansoor,  S. F. Manzer,  Shan-Ping Mao,  A. V. Marenich,  T. Markovich,  
 S. Mason,  F. Matz,  S. A. Maurer,  P. F. McLaughlin,  M. F. S. J. Menger,  
 J.-M. Mewes,  S. A. Mewes,  P. Morgante,  Mohammad Mostafanejad,  
 J. W. Mullinax,  K. J. Oosterbaan,  G. Paran,  V. Parravicini,  
 Alexander C. Paul,  Suranjan K. Paul,  F. Pavosevic,  Zheng Pei,  S. Prager,  
 E. I. Proynov,  E. Ramos,  B. Rana,  A. E. Rask,  A. Rettig,  R. M. Richard,  
 F. Rob,  E. Rossomme,  T. Scheele,  M. Scheurer,  M. Schneider,  
 P. E. Schneider,  N. Sergueev,  S. M. Sharada,  Hengyuan Shen,  
 W. Skomorowski,  D. W. Small,  C. J. Stein,  Yingli Su,  Yu-Chuan Su,  
 E. J. Sundstrom,  Zhen Tao,  J. Thirman,  Hung-Yi Tsai,  T. Tsuchimochi,  
 N. M. Tubman,  C. Utku,  S. P. Veccham,  O. Vydrov,  J. Wenzel,  
 Jonathan Wong,  J. Witte,  A. Yamada,  Chou-Hsun Yang,  Kun Yao,  
 S. Yeganeh,  S. R. Yost,  A. Zech,  F. Zeller,  Igor Ying Zhang,  
 Xing Zhang,  Yu Zhang,  D. Zuev,  A. Aspuru-Guzik,  A. T. Bell,  
 N. A. Besley,  K. B. Bravaya,  B. R. Brooks,  D. Casanova,  Jeng-Da Chai,  
 Hsing-Ta Chen,  S. Coriani,  C. J. Cramer,  A. E. DePrince, III,  
 R. A. DiStasio Jr.,  A. Dreuw,  B. D. Dunietz,  T. R. Furlani,  
 W. A. Goddard III,  S. Grimme,  S. Hammes-Schiffer,  T. Head-Gordon,  
 W. J. Hehre,  Chao-Ping Hsu,  T.-C. Jagau,  Yousung Jung,  A. Klamt,  
 Jing Kong,  D. S. Lambrecht,  Xiangyuan Li,  WanZhen Liang,  N. J. Mayhall,  
 C. W. McCurdy,  J. B. Neaton,  T. Neudecker,  C. Ochsenfeld,  
 J. A. Parkhill,  R. Peverati,  V. A. Rassolov,  Haisheng Ren,  Yihan Shao,  
 L. V. Slipchenko,  R. P. Steele,  J. E. Subotnik,  A. J. W. Thom,  
 A. Tkatchenko,  D. G. Truhlar,  T. Van Voorhis,  Fan Wang,  
 T. A. Wesolowski,  K. B. Whaley,  H. L. Woodcock III,  P. M. Zimmerman,  
 S. Faraji,  P. M. W. Gill,  M. Head-Gordon,  J. M. Herbert,  A. I. Krylov

 Contributors to earlier versions of Q-Chem not listed above: 
 R. D. Adamson,  B. Austin,  R. Baer,  J. Baker,  G. J. O. Beran,  
 K. Brandhorst,  S. T. Brown,  E. F. C. Byrd,  Arup K. Chakraborty,  
 G. K. L. Chan,  Chun-Min Chang,  Yunqing Chen,  C.-L. Cheng,  
 Siu Hung Chien,  D. M. Chipman,  D. L. Crittenden,  H. Dachsel,  
 R. J. Doerksen,  A. D. Dutoi,  R. G. Edgar,  J. Fosso-Tande,  
 L. Fusti-Molnar,  D. Ghosh,  A. Ghysels,  A. Golubeva-Zadorozhnaya,  
 J. Gonthier,  M. S. Gordon,  S. R. Gwaltney,  G. Hawkins,  J. E. Herr,  
 A. Heyden,  S. Hirata,  E. G. Hohenstein,  G. Kedziora,  F. J. Keil,  
 C. Kelley,  Jihan Kim,  R. A. King,  R. Z. Khaliullin,  P. P. Korambath,  
 W. Kurlancheek,  A. Laurent,  A. M. Lee,  M. S. Lee,  S. V. Levchenko,  
 Ching Yeh Lin,  D. Liotard,  E. Livshits,  R. C. Lochan,  I. Lotan,  
 L. A. Martinez-Martinez,  P. E. Maslen,  N. Nair,  D. P. O'Neill,  
 D. Neuhauser,  E. Neuscamman,  C. M. Oana,  R. Olivares-Amaya,  R. Olson,  
 T. M. Perrine,  B. Peters,  P. A. Pieniazek,  A. Prociuk,  Y. M. Rhee,  
 J. Ritchie,  M. A. Rohrdanz,  E. Rosta,  N. J. Russ,  H. F. Schaefer III,  
 M. W. Schmidt,  N. E. Schultz,  S. Sharma,  N. Shenvi,  C. D. Sherrill,  
 A. C. Simmonett,  A. Sodt,  T. Stein,  D. Stuck,  K. S. Thanthiriwatte,  
 V. Vanovschi,  L. Vogt,  Tao Wang,  A. Warshel,  M. A. Watson,  
 C. F. Williams,  Q. Wu,  X. Xu,  Jun Yang,  W. Zhang,  Yan Zhao

   Please cite Q-Chem as follows:
  "Software for the frontiers of quantum chemistry:
   An overview of developments in the Q-Chem 5 package"
   J. Chem. Phys. 155, 084801 (2021)
   https://doi.org/10.1063/5.0055522 (open access)

 Q-Chem 6.0.1 for Intel X86 EM64T Linux

 Parts of Q-Chem use Armadillo 9.900.5 (Nocturnal Misbehaviour).
 http://arma.sourceforge.net/

 Q-Chem begins on Mon Dec 19 11:01:04 2022  

 Host: atlas-169
0

     Scratch files written to ./qchem143943//
 Processing $rem in /scratch/abel/SOFTWARE/qchem/config/preferences:
 Processing $rem in /dipc/acebg/.qchemrc:

 Checking the input file for inconsistencies... 	...done.

--------------------------------------------------------------
User input:
--------------------------------------------------------------
$comment
 RAS-SF CALCULATION
$end

$molecule
 READ cr_cn5_3-_d0.molecule
$end

$rem
!**CALCULATION TYPE***     
JOBTYPE            sp    
EXCHANGE           HF
CORRELATION        RASCI    !RASCI=Casanova; RASCI2=Zimmerman
BASIS              def2-TZVP
BASIS2             STO-3G

!***SCF REFERENCE***
SKIP_SCFMAN        FALSE
UNRESTRICTED       FALSE
!SCF_GUESS          core
!SCF_GUESS_MIX      FALSE
SCF_GUESS_ALWAYS   FALSE
MAX_SCF_CYCLES     500
SCF_CONVERGENCE    8
!SCF_ALGORITHM      DIIS !DIIS,DM,DIIS_DM,GDM,DIIS_GDM,GD

SYMMETRY           TRUE !use of symmetry for calculating integrals
SYM_IGNORE         FALSE !turn off using symmetry
SYM_TOL            5 !tolerance for determining point group

THRESH             14
!SCF_FINAL_PRINT     1 !0,1,2,3

!****RAS-SF****
RAS_ROOTS          10       !number of RAS-CI roots to be computed
SET_ITER           100     !number of iterations in RASCI
RAS_ELEC           1       !number of electrons in RAS2
!RAS_ELEC_ALPHA            !spin-α electrons in RAS2 
!RAS_ELEC_BETA             !spin-β electrons in RAS2

RAS_ACT            5       !number of orbitals in RAS2 
RAS_ACT_ORB       [50,51,52,54,55] !user-selected RAS2 orbitals
RAS_OCC            49       !number of orbitals in RAS1
N_FROZEN_CORE      FC     !Number of frozen core orbitals
!N_FROZEN_VIRTUAL   306      !Number of frozen virtual orbitals
RAS_NATORB         TRUE    !computation of the natural orbital occupancies
!RAS_NATORB_STATE  0      !Saves NO of i RAS computed state in .fchk ﬁle

RAS_DO_HOLE        TRUE   !presence of hole excitations in RAS-CI wave function
RAS_DO_PART        TRUE   !presence of particle excitations
RAS_AMPL_PRINT     10     !threshold (×10 2 ) for the CI amplitudes

RAS_GUESS_CS       0      !number of closed shell guess conﬁgurations
RAS_SPIN_MULT      0      !spin multiplicity: 0=any, 2n+1=defined 
RAS_SRDFT          FALSE  !short-range density functional RAS-CI
RAS_NFRAG          0     !fragments of excitation analysis in RASCI

RAS_PRINT          2      !level of information
RAS_NATORB         TRUE   !computation of the natural orbital occupancies
!RAS_NATORB_STATE  0      !Saves NO of i RAS computed state in .fchk ﬁle
RAS_FOD            TRUE

!****RAS-SOC****
CALC_SOC           TRUE   !calculate SOC for EOM-CC, RAS-CI, ADC, TDDFT/TDA and TDDFT
!RAS_SOC_2E        TRUE   !two-electron mean-ﬁeld contribution, default=true
RAS_SOC_SYM_DENS   TRUE   !averaging of α and β densities

!****MEMORY****
MEM_TOTAL          10000 !Default 2000 MB
MEM_STATIC         2000  !Default 64 MB

!**Molecular Properties and Analysis **                                                                                          
GUI                2
STATE_ANALYSIS     TRUE
MOLDEN_FORMAT      TRUE
PRINT_ORBITALS     20
$end                                           

--------------------------------------------------------------
 ----------------------------------------------------------------
             Standard Nuclear Orientation (Angstroms)
    I     Atom           X                Y                Z
 ----------------------------------------------------------------
    1      Cr      0.0000000000     0.0000000000     0.4826670823
    2      N       0.0000000000     0.0000000000     2.0539020823
    3      N       0.0000000000     0.0000000000    -3.0323640177
    4      C       0.0000000000     0.0000000000    -1.8566849177
    5      C       2.0268750606    -0.0000000000     0.1949742823
    6      N       3.1931429030    -0.0000000000     0.0616410823
    7      N       0.0000000000     3.1931429030     0.0616410823
    8      C       0.0000000000     2.0268750606     0.1949742823
    9      C      -2.0268750606     0.0000000000     0.1949742823
   10      N      -3.1931429030     0.0000000000     0.0616410823
   11      C      -0.0000000000    -2.0268750606     0.1949742823
   12      N      -0.0000000000    -3.1931429030     0.0616410823
 ----------------------------------------------------------------
 Molecular Point Group                 C2v   NOp =  4
 Largest Abelian Subgroup              C2v   NOp =  4
 Nuclear Repulsion Energy =         767.07148954 hartrees
 There are       49 alpha and       49 beta electrons
 Requested basis set is def2-TZVP
 There are 136 shells and 386 basis functions

 Total QAlloc Memory Limit  10000 MB
 Mega-Array Size      1956 MB
 MEM_STATIC part      2000 MB


                       Distance Matrix (Angstroms)
             Cr(  1)   N (  2)   N (  3)   C (  4)   C (  5)   N (  6)
   N (  2)  1.571235
   N (  3)  3.515031  5.086266
   C (  4)  2.339352  3.910587  1.175679
   C (  5)  2.047191  2.750243  3.811028  2.884012
   N (  6)  3.220780  3.763677  4.446238  3.725069  1.173865
   N (  7)  3.220780  3.763677  4.446238  3.725069  3.784463  4.515786
   C (  8)  2.047191  2.750243  3.811028  2.884012  2.866434  3.784463
   C (  9)  2.047191  2.750243  3.811028  2.884012  4.053750  5.221721
   N ( 10)  3.220780  3.763677  4.446238  3.725069  5.221721  6.386286
   C ( 11)  2.047191  2.750243  3.811028  2.884012  2.866434  3.784463
   N ( 12)  3.220780  3.763677  4.446238  3.725069  3.784463  4.515786
             N (  7)   C (  8)   C (  9)   N ( 10)   C ( 11)
   C (  8)  1.173865
   C (  9)  3.784463  2.866434
   N ( 10)  4.515786  3.784463  1.173865
   C ( 11)  5.221721  4.053750  2.866434  3.784463
   N ( 12)  6.386286  5.221721  3.784463  4.515786  1.173865
 
 A cutoff of  1.0D-14 yielded   8049 shell pairs
 There are     67083 function pairs (     90100 Cartesian)
 Smallest overlap matrix eigenvalue = 2.05E-04

 Scale SEOQF with 1.000000e-01/1.000000e-01/1.000000e-01

 Standard Electronic Orientation quadrupole field applied
 Nucleus-field energy     =     0.0000000076 hartrees
 Requested basis set is STO-3G
 There are 27 shells and 73 basis functions
 A cutoff of  1.0D-14 yielded    303 shell pairs
 There are      2678 function pairs (      2757 Cartesian)
 Smallest overlap matrix eigenvalue = 1.54E-01
 Guess from superposition of atomic densities
 Warning:  Energy on first SCF cycle will be non-variational
 SAD guess density has 96.000000 electrons
 A restricted Hartree-Fock SCF calculation will be
 performed using Pulay DIIS extrapolation
 SCF converges when DIIS error is below 1.0E-04
 ---------------------------------------
  Cycle       Energy         DIIS Error
 ---------------------------------------
    1   -1539.6605292402      1.26E-01
    2   -1538.3317824561      6.07E-02
    3   -1524.3083430104      1.24E-01
    4   -1540.8587692550      3.16E-02
    5   -1541.1434174097      2.38E-02
    6   -1541.3666292435      1.37E-02
    7   -1541.4735790036      2.91E-03
    8   -1541.4788871658      7.20E-04
    9   -1541.4799605479      9.75E-04
   10   -1541.4808744088      4.67E-04
   11   -1541.4820253163      4.37E-04
   12   -1541.4821563336      7.47E-05 Convergence criterion met
 ---------------------------------------
 SCF time:  CPU 5.86 s  wall 6.82 s
 SCF   energy in the small basis set = -1541.48215633
 Total energy in the small basis set = -1541.48215633
 ----------------------------------------------------
  Cycle       Energy    
 ----------------------------------------------------
    1    -103.6698531018     -1.04E+02
 A restricted Hartree-Fock SCF calculation will be
 performed using Pulay DIIS extrapolation
 SCF converges when DIIS error is below 1.0E-08
 ---------------------------------------
  Cycle       Energy         DIIS Error
 ---------------------------------------
    1   -1549.1381338932      3.14E-02
    2   -1510.0244243645      3.97E-02
    3   -1537.4825771433      3.46E-02
    4   -1551.6003627025      2.54E-02
    5   -1547.8578963069      2.34E-02
    6   -1557.1205106225      1.02E-02
    7   -1557.2509169622      1.15E-02
    8   -1558.6533623864      6.42E-03
    9   -1558.9576725898      4.50E-03
   10   -1559.1681850407      2.11E-03
   11   -1559.2206189552      6.00E-04
   12   -1559.2254876233      1.60E-04
   13   -1559.2260649649      6.37E-05
   14   -1559.2262208177      3.55E-05
   15   -1559.2263444821      2.32E-05
   16   -1559.2264309470      1.06E-05
   17   -1559.2264450154      4.20E-06
   18   -1559.2264474144      3.44E-06
   19   -1559.2264484559      3.39E-06
   20   -1559.2264478923      3.33E-06
   21   -1559.2264492382      3.51E-06
   22   -1559.2264482880      3.68E-06
   23   -1559.2264438445      2.95E-06
   24   -1559.2264385345      2.09E-06
   25   -1559.2264365544      1.11E-06
   26   -1559.2264363476      7.28E-07
   27   -1559.2264363582      4.28E-07
   28   -1559.2264363682      2.46E-07
   29   -1559.2264363712      1.33E-07
   30   -1559.2264363722      4.59E-08
   31   -1559.2264363725      1.85E-08
   32   -1559.2264363725      1.00E-08
   33   -1559.2264363725      3.74E-09 Convergence criterion met
 ---------------------------------------
 SCF time:  CPU 2172.11 s  wall 2177.34 s
 SCF   energy in the final basis set = -1559.22643637
 Total energy in the final basis set = -1559.22643637
Setting RAS_srDFT_COR/EXC
  
     ##========================================##
     ||                                        ||
     ||              R A S M A N 2             ||
     ||________________________________________||
     ||                                        ||
     ||  Author:                               ||
     ||                                        ||
     ||        David Casanova (2010)           ||
     ||                                        ||
     ##========================================##
  
  ***************************************************
  *  RAS-CI Dimensions:                             *
  *                                                 *
  *  Active Elec.:   1 ( 1, 0)   Active Orb.:   5   *
  *  Doubly Occ. :  49           Doubly Vir.: 332   *
  *  Frozen Occ. :  20           Frozen Vir.:   0   *
  *                                                 *
  *  Total CI configurations:      1352             * 
  *    Active configurations:         5             * 
  *      Hole configurations:      1015             * 
  *  Particle configurations:       332             * 
  *                                                 *
  *   Requested states:       10                    *
  *  Spin multiplicity: Any multiplicity            *
  *                                                 *
  ***************************************************
-----------------------------------------
    Memory requirements of RASCI

 Each CI-vector requires      0.01 MiB 
 Max. subspace vectors           1000      

 Reduced Lists                0.00 MiB 
 Excitation Lists             0.00 MiB 
 Excitation Lists Sign        0.00 MiB 
 CI-space (Max)              18.06 MiB 
 Integrals                   67.64 MiB 
 Memory required (Max)       67.64 MiB 
 Memory available          1907.35 MiB 

    Disk requirements of RASCI

 Fock matrix                  2.27 MiB 
 2-electron integrals        89.11 MiB 
 CI-space                    20.63 MiB 
 Disk required              112.01 MiB 
-----------------------------------------
  
RAS1 HF-like energy:          -1559.2264363725
 Computing integrals
 Computing J and K matrices
 Computing addressing
 Making amplitude guesses
 
Direct CI diagonalization
 ---------------------------------------------------
 Iter    Rts Conv    Rts Left    Ttl Dev     Max Dev
 ---------------------------------------------------
   1         0          10      0.040668    0.009583
   2         0          10      0.009721    0.002481
   3         0          10      0.002873    0.000441
   4         0          10      0.014343    0.004087
   5         0          10      0.008257    0.001877
   6         0          10      0.006358    0.001881
   7         0          10      0.003859    0.000855
   8         0          10      0.001865    0.000494
   9         1           9      0.001014    0.000330
  10         3           7      0.000490    0.000157
  11         4           6      0.001351    0.001153
  12         5           5      0.000473    0.000375
  13         6           4      0.000296    0.000258
  14         6           4      0.000229    0.000208
  15         7           3      0.000181    0.000170
  16         7           3      0.000245    0.000240
  17         9           1      0.000129    0.000125
  18         9           1      0.000057    0.000054
  19         9           1      0.000043    0.000040
  20         9           1      0.000047    0.000043
  21         9           1      0.000017    0.000014
  22         9           1      0.000006    0.000003
  23        10           0      0.000004    0.000001    Roots Converged
 ---------------------------------------------------
   
**************************************************
 RAS-CI total energy for state   1:  -1559.110586413947
  Excitation energy (eV) =  0.000000000000
  Warning: not all configurations have same symmetry
  State symmetry: *A2    (C2v      )
  <S^2>      :  0.7500
  Dipole Moment:    0.0000 X    -0.0000 Y    -0.8539 Z
 NATURAL OCCUPATION NUMBERS (higher than 1.0E-05)
            1           2           3           4           5           6
    1   2.0000000   2.0000000   2.0000000   2.0000000   2.0000000   2.0000000
            7           8           9          10          11          12
    1   2.0000000   2.0000000   2.0000000   2.0000000   2.0000000   2.0000000
           13          14          15          16          17          18
    1   2.0000000   2.0000000   2.0000000   2.0000000   2.0000000   2.0000000
           19          20          21          22          23          24
    1   2.0000000   2.0000000   2.0000000   2.0000000   2.0000000   2.0000000
           25          26          27          28          29          30
    1   2.0000000   2.0000000   2.0000000   2.0000000   2.0000000   2.0000000
           31          32          33          34          35          36
    1   2.0000000   2.0000000   2.0000000   2.0000000   1.9999999   1.9999999
           37          38          39          40          41          42
    1   1.9999997   1.9999985   1.9999985   1.9999975   1.9999975   1.9998950
           43          44          45          46          47          48
    1   1.9998950   1.9998698   1.9991913   1.9982621   1.9940449   1.9860180
           49          50          51          52          53          54
    1   1.9860180   0.9916700   0.0142441   0.0142441   0.0077680   0.0066134
           55
    1   0.0022748
Natural Orbitals stored in FCHK

  Amplitudes : 
  
 | HOLE  | ALPHA | BETA  | PART  |    AMPLITUDE 
--------------------------------------------------
 |       | 10000 | 00000 |       |     8.9584114207446E-01
 |  33   | 11000 | 00000 |       |    -1.0448292672574E-01
 |  34   | 10100 | 00000 |       |    -1.0448292730387E-01
 |  33   | 10000 | 01000 |       |     1.6102618511362E-01
 |  34   | 10000 | 00100 |       |     1.6102619534899E-01
 |       | 00000 | 00000 |  66   |     2.2111640200653E-01
--------------------------------------------------
*** Contributions RASCI wfn    Active:  80.25
                                 Hole:  14.43
                                 Part:   5.32

      Mulliken population analysis 
 ---------------------------------------------------
   Atom    Charge (a.u.)   Spin (a.u.)  
 ---------------------------------------------------
   1 Cr    0.311621        0.986561 
   2  N   -0.614929       -0.100379 
   3  N   -0.329675        0.000276 
   4  C   -0.246587       -0.000334 
   5  C   -0.177610        0.013645 
   6  N   -0.352498        0.014824 
   7  N   -0.352498        0.014824 
   8  C   -0.177610        0.013645 
   9  C   -0.177610        0.013645 
  10  N   -0.352498        0.014824 
  11  C   -0.177610        0.013645 
  12  N   -0.352498        0.014824 
 ---------------------------------------------------
   Sum:   -3.000000        1.000000 
 ---------------------------------------------------
 
  
 NATURAL OCCUPATION NUMBERS (higher than 1.0E-05)
            1           2           3           4           5           6
    1   2.0000000   2.0000000   2.0000000   2.0000000   2.0000000   2.0000000
            7           8           9          10          11          12
    1   2.0000000   2.0000000   2.0000000   2.0000000   2.0000000   2.0000000
           13          14          15          16          17          18
    1   2.0000000   2.0000000   2.0000000   2.0000000   2.0000000   2.0000000
           19          20          21          22          23          24
    1   2.0000000   2.0000000   2.0000000   2.0000000   2.0000000   2.0000000
           25          26          27          28          29          30
    1   2.0000000   2.0000000   2.0000000   2.0000000   2.0000000   2.0000000
           31          32          33          34          35          36
    1   2.0000000   2.0000000   2.0000000   2.0000000   1.9999999   1.9999999
           37          38          39          40          41          42
    1   1.9999997   1.9999985   1.9999985   1.9999975   1.9999975   1.9998950
           43          44          45          46          47          48
    1   1.9998950   1.9998698   1.9991913   1.9982621   1.9940449   1.9860180
           49          50          51          52          53          54
    1   1.9860180   0.9916700   0.0142441   0.0142441   0.0077680   0.0066134
           55
    1   0.0022748
  
*** Unpaired Electrons
 Yamaguchi Nd:         1.16
 Head-Gordon Nu:       1.07
 Head-Gordon Nu_nl:    1.00
  
**************************************************
 RAS-CI total energy for state   2:  -1559.034499466384
  Excitation energy (eV) =  2.070431183433
  Warning: not all configurations have same symmetry
  State symmetry: *A1    (C2v      )
  <S^2>      :  0.7500
  Dipole Moment:    0.0000 X    -0.0000 Y    -0.7693 Z
  Trans. Moment:    0.0000 X     0.0000 Y    -0.0000 Z
  Strength   :  0.000000
  Natural transition orbitals ( 1 -> 2 ):
   e-/hole pair  1 alpha:  ampl =  0.982094 ( 96.5%)   [5 : 6]
   e-/hole pair  2 alpha:  ampl =  0.026224 (  0.1%)   [4 : 7]
   e-/hole pair  1 beta :  ampl =  0.013177 (  0.0%)   [5 : 6]
   e-/hole pair  2 beta :  ampl =  0.004898 (  0.0%)   [4 : 7]
   Sum of square amplitudes: 0.97

 NATURAL OCCUPATION NUMBERS (higher than 1.0E-05)
            1           2           3           4           5           6
    1   2.0000000   2.0000000   2.0000000   2.0000000   2.0000000   2.0000000
            7           8           9          10          11          12
    1   2.0000000   2.0000000   2.0000000   2.0000000   2.0000000   2.0000000
           13          14          15          16          17          18
    1   2.0000000   2.0000000   2.0000000   2.0000000   2.0000000   2.0000000
           19          20          21          22          23          24
    1   2.0000000   2.0000000   2.0000000   2.0000000   2.0000000   2.0000000
           25          26          27          28          29          30
    1   2.0000000   2.0000000   2.0000000   2.0000000   2.0000000   2.0000000
           31          32          33          34          35          36
    1   1.9999999   1.9999999   1.9999995   1.9999995   1.9999977   1.9999977
           37          38          39          40          41          42
    1   1.9999967   1.9999944   1.9999937   1.9999937   1.9999781   1.9998241
           43          44          45          46          47          48
    1   1.9997284   1.9997284   1.9988979   1.9983726   1.9961788   1.9856334
           49          50          51          52          53          54
    1   1.9856334   0.9949583   0.0148544   0.0148544   0.0044899   0.0041480
           55
    1   0.0027474
Natural Orbitals stored in FCHK

  Amplitudes : 
  
 | HOLE  | ALPHA | BETA  | PART  |    AMPLITUDE 
--------------------------------------------------
 |       | 00010 | 00000 |       |     9.0474392169351E-01
 |  33   | 01010 | 00000 |       |     1.1884543137409E-01
 |  34   | 00110 | 00000 |       |     1.1884540602224E-01
 |  33   | 00010 | 01000 |       |     1.6978889406193E-01
 |  34   | 00010 | 00100 |       |     1.6978889099998E-01
 |  36   | 00010 | 00010 |       |     1.0281306872968E-01
 |       | 00000 | 00000 |  60   |     1.4936627239588E-01
--------------------------------------------------
*** Contributions RASCI wfn    Active:  81.86
                                 Hole:  15.35
                                 Part:   2.79

      Mulliken population analysis 
 ---------------------------------------------------
   Atom    Charge (a.u.)   Spin (a.u.)  
 ---------------------------------------------------
   1 Cr    0.495080        0.858578 
   2  N   -0.662030       -0.096932 
   3  N   -0.329509        0.000254 
   4  C   -0.246601       -0.000306 
   5  C   -0.237862        0.069649 
   6  N   -0.326373       -0.010048 
   7  N   -0.326373       -0.010048 
   8  C   -0.237862        0.069649 
   9  C   -0.237862        0.069649 
  10  N   -0.326373       -0.010048 
  11  C   -0.237862        0.069649 
  12  N   -0.326373       -0.010048 
 ---------------------------------------------------
   Sum:   -3.000000        1.000000 
 ---------------------------------------------------
 
  
 NATURAL OCCUPATION NUMBERS (higher than 1.0E-05)
            1           2           3           4           5           6
    1   2.0000000   2.0000000   2.0000000   2.0000000   2.0000000   2.0000000
            7           8           9          10          11          12
    1   2.0000000   2.0000000   2.0000000   2.0000000   2.0000000   2.0000000
           13          14          15          16          17          18
    1   2.0000000   2.0000000   2.0000000   2.0000000   2.0000000   2.0000000
           19          20          21          22          23          24
    1   2.0000000   2.0000000   2.0000000   2.0000000   2.0000000   2.0000000
           25          26          27          28          29          30
    1   2.0000000   2.0000000   2.0000000   2.0000000   2.0000000   2.0000000
           31          32          33          34          35          36
    1   1.9999999   1.9999999   1.9999995   1.9999995   1.9999977   1.9999977
           37          38          39          40          41          42
    1   1.9999967   1.9999944   1.9999937   1.9999937   1.9999781   1.9998241
           43          44          45          46          47          48
    1   1.9997284   1.9997284   1.9988979   1.9983726   1.9961788   1.9856334
           49          50          51          52          53          54
    1   1.9856334   0.9949583   0.0148544   0.0148544   0.0044899   0.0041480
           55
    1   0.0027474
  
*** Unpaired Electrons
 Yamaguchi Nd:         1.15
 Head-Gordon Nu:       1.07
 Head-Gordon Nu_nl:    1.00
  
**************************************************
 RAS-CI total energy for state   3:  -1559.031223018883
  Excitation energy (eV) =  2.159587856065
  Warning: not all configurations have same symmetry
  State symmetry: *B1    (C2v      )
  <S^2>      :  0.7500
  Dipole Moment:   -0.0000 X     0.0000 Y    -0.8098 Z
  Trans. Moment:    0.0343 X    -0.0000 Y    -0.0000 Z
  Strength   :  0.000062
  Natural transition orbitals ( 1 -> 3 ):
   e-/hole pair  1 alpha:  ampl =  0.948051 ( 89.9%)   [5 : 6]
   e-/hole pair  2 alpha:  ampl =  0.026102 (  0.1%)   [4 : 7]
   e-/hole pair  1 beta :  ampl =  0.060538 (  0.4%)   [5 : 6]
   e-/hole pair  2 beta :  ampl =  0.034673 (  0.1%)   [4 : 7]
   Sum of square amplitudes: 0.91

 NATURAL OCCUPATION NUMBERS (higher than 1.0E-05)
            1           2           3           4           5           6
    1   2.0000000   2.0000000   2.0000000   2.0000000   2.0000000   2.0000000
            7           8           9          10          11          12
    1   2.0000000   2.0000000   2.0000000   2.0000000   2.0000000   2.0000000
           13          14          15          16          17          18
    1   2.0000000   2.0000000   2.0000000   2.0000000   2.0000000   2.0000000
           19          20          21          22          23          24
    1   2.0000000   2.0000000   2.0000000   2.0000000   2.0000000   2.0000000
           25          26          27          28          29          30
    1   2.0000000   2.0000000   2.0000000   2.0000000   2.0000000   2.0000000
           31          32          33          34          35          36
    1   2.0000000   1.9999999   1.9999999   1.9999995   1.9999994   1.9999993
           37          38          39          40          41          42
    1   1.9999982   1.9999978   1.9999974   1.9999966   1.9999864   1.9996957
           43          44          45          46          47          48
    1   1.9996277   1.9994780   1.9992250   1.9985879   1.9985534   1.9977666
           49          50          51          52          53          54
    1   1.9969403   0.9959372   0.0056223   0.0052735   0.0015068   0.0013213
           55
    1   0.0004899
Natural Orbitals stored in FCHK

  Amplitudes : 
  
 | HOLE  | ALPHA | BETA  | PART  |    AMPLITUDE 
--------------------------------------------------
 |       | 00100 | 00000 |       |     9.5427381298569E-01
 |  36   | 00110 | 00000 |       |    -1.0507896116671E-01
 |  28   | 00100 | 00010 |       |     1.0432208006229E-01
 |  36   | 00100 | 00010 |       |     1.0998112066833E-01
--------------------------------------------------
*** Contributions RASCI wfn    Active:  91.06
                                 Hole:   8.34
                                 Part:   0.60

      Mulliken population analysis 
 ---------------------------------------------------
   Atom    Charge (a.u.)   Spin (a.u.)  
 ---------------------------------------------------
   1 Cr    0.286101        0.435273 
   2  N   -0.596899        0.567013 
   3  N   -0.331172        0.000732 
   4  C   -0.259056        0.000531 
   5  C   -0.180353       -0.001448 
   6  N   -0.342807        0.000099 
   7  N   -0.345735        0.001416 
   8  C   -0.180592       -0.001842 
   9  C   -0.180353       -0.001448 
  10  N   -0.342807        0.000099 
  11  C   -0.180592       -0.001842 
  12  N   -0.345735        0.001416 
 ---------------------------------------------------
   Sum:   -3.000000        1.000000 
 ---------------------------------------------------
 
  
 NATURAL OCCUPATION NUMBERS (higher than 1.0E-05)
            1           2           3           4           5           6
    1   2.0000000   2.0000000   2.0000000   2.0000000   2.0000000   2.0000000
            7           8           9          10          11          12
    1   2.0000000   2.0000000   2.0000000   2.0000000   2.0000000   2.0000000
           13          14          15          16          17          18
    1   2.0000000   2.0000000   2.0000000   2.0000000   2.0000000   2.0000000
           19          20          21          22          23          24
    1   2.0000000   2.0000000   2.0000000   2.0000000   2.0000000   2.0000000
           25          26          27          28          29          30
    1   2.0000000   2.0000000   2.0000000   2.0000000   2.0000000   2.0000000
           31          32          33          34          35          36
    1   2.0000000   1.9999999   1.9999999   1.9999995   1.9999994   1.9999993
           37          38          39          40          41          42
    1   1.9999982   1.9999978   1.9999974   1.9999966   1.9999864   1.9996957
           43          44          45          46          47          48
    1   1.9996277   1.9994780   1.9992250   1.9985879   1.9985534   1.9977666
           49          50          51          52          53          54
    1   1.9969403   0.9959372   0.0056223   0.0052735   0.0015068   0.0013213
           55
    1   0.0004899
  
*** Unpaired Electrons
 Yamaguchi Nd:         1.05
 Head-Gordon Nu:       1.02
 Head-Gordon Nu_nl:    1.00
  
**************************************************
 RAS-CI total energy for state   4:  -1559.031223015075
  Excitation energy (eV) =  2.159587959687
  Warning: not all configurations have same symmetry
  State symmetry: *B1    (C2v      )
  <S^2>      :  0.7500
  Dipole Moment:   -0.0000 X     0.0000 Y    -0.8098 Z
  Trans. Moment:   -0.0000 X    -0.0343 Y     0.0000 Z
  Strength   :  0.000062
  Natural transition orbitals ( 1 -> 4 ):
   e-/hole pair  1 alpha:  ampl =  0.948051 ( 89.9%)   [5 : 6]
   e-/hole pair  2 alpha:  ampl =  0.026102 (  0.1%)   [4 : 7]
   e-/hole pair  1 beta :  ampl =  0.060538 (  0.4%)   [5 : 6]
   e-/hole pair  2 beta :  ampl =  0.034673 (  0.1%)   [4 : 7]
   Sum of square amplitudes: 0.91

 NATURAL OCCUPATION NUMBERS (higher than 1.0E-05)
            1           2           3           4           5           6
    1   2.0000000   2.0000000   2.0000000   2.0000000   2.0000000   2.0000000
            7           8           9          10          11          12
    1   2.0000000   2.0000000   2.0000000   2.0000000   2.0000000   2.0000000
           13          14          15          16          17          18
    1   2.0000000   2.0000000   2.0000000   2.0000000   2.0000000   2.0000000
           19          20          21          22          23          24
    1   2.0000000   2.0000000   2.0000000   2.0000000   2.0000000   2.0000000
           25          26          27          28          29          30
    1   2.0000000   2.0000000   2.0000000   2.0000000   2.0000000   2.0000000
           31          32          33          34          35          36
    1   2.0000000   1.9999999   1.9999999   1.9999995   1.9999994   1.9999993
           37          38          39          40          41          42
    1   1.9999982   1.9999978   1.9999974   1.9999966   1.9999864   1.9996957
           43          44          45          46          47          48
    1   1.9996277   1.9994780   1.9992250   1.9985879   1.9985534   1.9977666
           49          50          51          52          53          54
    1   1.9969403   0.9959372   0.0056223   0.0052735   0.0015068   0.0013213
           55
    1   0.0004899
Natural Orbitals stored in FCHK

  Amplitudes : 
  
 | HOLE  | ALPHA | BETA  | PART  |    AMPLITUDE 
--------------------------------------------------
 |       | 01000 | 00000 |       |     9.5427381116080E-01
 |  36   | 01010 | 00000 |       |    -1.0507898588985E-01
 |  28   | 01000 | 00010 |       |     1.0432208598435E-01
 |  36   | 01000 | 00010 |       |     1.0998117843697E-01
--------------------------------------------------
*** Contributions RASCI wfn    Active:  91.06
                                 Hole:   8.34
                                 Part:   0.60

      Mulliken population analysis 
 ---------------------------------------------------
   Atom    Charge (a.u.)   Spin (a.u.)  
 ---------------------------------------------------
   1 Cr    0.286101        0.435273 
   2  N   -0.596899        0.567013 
   3  N   -0.331172        0.000732 
   4  C   -0.259056        0.000531 
   5  C   -0.180592       -0.001842 
   6  N   -0.345734        0.001416 
   7  N   -0.342807        0.000099 
   8  C   -0.180352       -0.001448 
   9  C   -0.180592       -0.001842 
  10  N   -0.345734        0.001416 
  11  C   -0.180352       -0.001448 
  12  N   -0.342807        0.000099 
 ---------------------------------------------------
   Sum:   -3.000000        1.000000 
 ---------------------------------------------------
 
  
 NATURAL OCCUPATION NUMBERS (higher than 1.0E-05)
            1           2           3           4           5           6
    1   2.0000000   2.0000000   2.0000000   2.0000000   2.0000000   2.0000000
            7           8           9          10          11          12
    1   2.0000000   2.0000000   2.0000000   2.0000000   2.0000000   2.0000000
           13          14          15          16          17          18
    1   2.0000000   2.0000000   2.0000000   2.0000000   2.0000000   2.0000000
           19          20          21          22          23          24
    1   2.0000000   2.0000000   2.0000000   2.0000000   2.0000000   2.0000000
           25          26          27          28          29          30
    1   2.0000000   2.0000000   2.0000000   2.0000000   2.0000000   2.0000000
           31          32          33          34          35          36
    1   2.0000000   1.9999999   1.9999999   1.9999995   1.9999994   1.9999993
           37          38          39          40          41          42
    1   1.9999982   1.9999978   1.9999974   1.9999966   1.9999864   1.9996957
           43          44          45          46          47          48
    1   1.9996277   1.9994780   1.9992250   1.9985879   1.9985534   1.9977666
           49          50          51          52          53          54
    1   1.9969403   0.9959372   0.0056223   0.0052735   0.0015068   0.0013213
           55
    1   0.0004899
  
*** Unpaired Electrons
 Yamaguchi Nd:         1.05
 Head-Gordon Nu:       1.02
 Head-Gordon Nu_nl:    1.00
  
**************************************************
 RAS-CI total energy for state   5:  -1558.954083630588
  Excitation energy (eV) =  4.258657408909
  Warning: not all configurations have same symmetry
  State symmetry: *B2    (C2v      )
  <S^2>      :  0.7500
  Dipole Moment:    0.0000 X    -0.0000 Y    -1.4862 Z
  Trans. Moment:   -0.0000 X     0.0000 Y    -0.0617 Z
  Strength   :  0.000397
  Natural transition orbitals ( 1 -> 5 ):
   e-/hole pair  1 alpha:  ampl =  0.270744 (  7.3%)   [5 : 6]
   e-/hole pair  2 alpha:  ampl =  0.270744 (  7.3%)   [4 : 7]
   e-/hole pair  1 beta :  ampl =  0.262982 (  6.9%)   [5 : 6]
   e-/hole pair  2 beta :  ampl =  0.262982 (  6.9%)   [4 : 7]
   Sum of square amplitudes: 0.30

 NATURAL OCCUPATION NUMBERS (higher than 1.0E-05)
            1           2           3           4           5           6
    1   2.0000000   2.0000000   2.0000000   2.0000000   2.0000000   2.0000000
            7           8           9          10          11          12
    1   2.0000000   2.0000000   2.0000000   2.0000000   2.0000000   2.0000000
           13          14          15          16          17          18
    1   2.0000000   2.0000000   2.0000000   2.0000000   2.0000000   2.0000000
           19          20          21          22          23          24
    1   2.0000000   2.0000000   2.0000000   2.0000000   2.0000000   2.0000000
           25          26          27          28          29          30
    1   2.0000000   2.0000000   2.0000000   2.0000000   2.0000000   2.0000000
           31          32          33          34          35          36
    1   2.0000000   2.0000000   2.0000000   2.0000000   2.0000000   1.9999996
           37          38          39          40          41          42
    1   1.9999996   1.9999980   1.9999980   1.9999975   1.9999935   1.9999902
           43          44          45          46          47          48
    1   1.9999477   1.9999477   1.9998888   1.9995594   1.9984043   1.5074715
           49          50          51          52          53          54
    1   1.5074712   0.9947744   0.4931089   0.4931085   0.0052230   0.0006413
           55
    1   0.0004769
Natural Orbitals stored in FCHK

  Amplitudes : 
  
 | HOLE  | ALPHA | BETA  | PART  |    AMPLITUDE 
--------------------------------------------------
 |       | 10000 | 00000 |       |    -1.1027040265552E-01
 |  33   | 11000 | 00000 |       |     2.6565269977956E-01
 |  42   | 11000 | 00000 |       |     1.2219808685691E-01
 |  34   | 10100 | 00000 |       |     2.6565280198351E-01
 |  43   | 10100 | 00000 |       |    -1.2219766079095E-01
 |  33   | 10000 | 01000 |       |     2.4079532429641E-01
 |  42   | 10000 | 01000 |       |     1.1114751205023E-01
 |  34   | 10000 | 00100 |       |     2.4079545579869E-01
 |  43   | 10000 | 00100 |       |    -1.1114713145567E-01
 |  33   | 01000 | 10000 |       |     5.0644802407597E-01
 |  42   | 01000 | 10000 |       |     2.3334559890714E-01
 |  45   | 01000 | 10000 |       |     1.2272291680828E-01
 |  34   | 00100 | 10000 |       |     5.0644825778220E-01
 |  43   | 00100 | 10000 |       |    -2.3334479224662E-01
 |  44   | 00100 | 10000 |       |    -1.2272450457284E-01
--------------------------------------------------
*** Contributions RASCI wfn    Active:   1.22
                                 Hole:  98.74
                                 Part:   0.05

      Mulliken population analysis 
 ---------------------------------------------------
   Atom    Charge (a.u.)   Spin (a.u.)  
 ---------------------------------------------------
   1 Cr   -0.030669        0.350153 
   2  N   -0.291328        0.712219 
   3  N   -0.331044        0.001701 
   4  C   -0.230224       -0.001164 
   5  C   -0.169429       -0.006071 
   6  N   -0.359755       -0.009656 
   7  N   -0.359755       -0.009656 
   8  C   -0.169429       -0.006071 
   9  C   -0.169429       -0.006071 
  10  N   -0.359755       -0.009656 
  11  C   -0.169429       -0.006071 
  12  N   -0.359755       -0.009656 
 ---------------------------------------------------
   Sum:   -3.000000        1.000000 
 ---------------------------------------------------
 
  
 NATURAL OCCUPATION NUMBERS (higher than 1.0E-05)
            1           2           3           4           5           6
    1   2.0000000   2.0000000   2.0000000   2.0000000   2.0000000   2.0000000
            7           8           9          10          11          12
    1   2.0000000   2.0000000   2.0000000   2.0000000   2.0000000   2.0000000
           13          14          15          16          17          18
    1   2.0000000   2.0000000   2.0000000   2.0000000   2.0000000   2.0000000
           19          20          21          22          23          24
    1   2.0000000   2.0000000   2.0000000   2.0000000   2.0000000   2.0000000
           25          26          27          28          29          30
    1   2.0000000   2.0000000   2.0000000   2.0000000   2.0000000   2.0000000
           31          32          33          34          35          36
    1   2.0000000   2.0000000   2.0000000   2.0000000   2.0000000   1.9999996
           37          38          39          40          41          42
    1   1.9999996   1.9999980   1.9999980   1.9999975   1.9999935   1.9999902
           43          44          45          46          47          48
    1   1.9999477   1.9999477   1.9998888   1.9995594   1.9984043   1.5074715
           49          50          51          52          53          54
    1   1.5074712   0.9947744   0.4931089   0.4931085   0.0052230   0.0006413
           55
    1   0.0004769
  
*** Unpaired Electrons
 Yamaguchi Nd:         3.99
 Head-Gordon Nu:       2.97
 Head-Gordon Nu_nl:    3.21
  
**************************************************
 RAS-CI total energy for state   6:  -1558.927699560202
  Excitation energy (eV) =  4.976604492112
  Warning: not all configurations have same symmetry
  State symmetry: *A1    (C2v      )
  <S^2>      :  0.7500
  Dipole Moment:    0.0000 X     0.0000 Y    -0.8067 Z
  Trans. Moment:   -0.0000 X    -0.0000 Y     0.0000 Z
  Strength   :  0.000000
  Natural transition orbitals ( 1 -> 6 ):
   e-/hole pair  1 alpha:  ampl =  0.513513 ( 26.4%)   [5 : 6]
   e-/hole pair  2 alpha:  ampl =  0.231787 (  5.4%)   [4 : 7]
   e-/hole pair  1 beta :  ampl =  0.216557 (  4.7%)   [5 : 6]
   e-/hole pair  2 beta :  ampl =  0.216557 (  4.7%)   [4 : 7]
   Sum of square amplitudes: 0.47

 NATURAL OCCUPATION NUMBERS (higher than 1.0E-05)
            1           2           3           4           5           6
    1   2.0000000   2.0000000   2.0000000   2.0000000   2.0000000   2.0000000
            7           8           9          10          11          12
    1   2.0000000   2.0000000   2.0000000   2.0000000   2.0000000   2.0000000
           13          14          15          16          17          18
    1   2.0000000   2.0000000   2.0000000   2.0000000   2.0000000   2.0000000
           19          20          21          22          23          24
    1   2.0000000   2.0000000   2.0000000   2.0000000   2.0000000   2.0000000
           25          26          27          28          29          30
    1   2.0000000   2.0000000   2.0000000   2.0000000   2.0000000   2.0000000
           31          32          33          34          35          36
    1   2.0000000   2.0000000   2.0000000   1.9999987   1.9999987   1.9999977
           37          38          39          40          41          42
    1   1.9999964   1.9999947   1.9999921   1.9999921   1.9999905   1.9999403
           43          44          45          46          47          48
    1   1.9997830   1.9997830   1.9996478   1.9995884   1.9987169   1.6490972
           49          50          51          52          53          54
    1   1.6490971   0.6964605   0.3513490   0.3513488   0.2961877   0.0061403
           55
    1   0.0028993
Natural Orbitals stored in FCHK

  Amplitudes : 
  
 | HOLE  | ALPHA | BETA  | PART  |    AMPLITUDE 
--------------------------------------------------
 |       | 00001 | 00000 |       |     1.9498616184176E-01
 |  34   | 11000 | 00000 |       |    -2.2651048432688E-01
 |  43   | 11000 | 00000 |       |     1.0646748420381E-01
 |  33   | 10100 | 00000 |       |    -2.2651048788266E-01
 |  42   | 10100 | 00000 |       |    -1.0646789298173E-01
 |  34   | 10000 | 01000 |       |    -1.9897985926370E-01
 |  33   | 10000 | 00100 |       |    -1.9897993046939E-01
 |  34   | 01000 | 10000 |       |    -4.2549034359059E-01
 |  43   | 01000 | 10000 |       |     1.9837032611031E-01
 |  44   | 01000 | 10000 |       |     1.0250610441113E-01
 |  33   | 00100 | 10000 |       |    -4.2549041835205E-01
 |  42   | 00100 | 10000 |       |    -1.9837112546374E-01
 |  45   | 00100 | 10000 |       |    -1.0250482223743E-01
 |       | 00000 | 00000 |  55   |     4.9090595659100E-01
 |       | 00000 | 00000 |  58   |     1.0343176822291E-01
--------------------------------------------------
*** Contributions RASCI wfn    Active:   3.80
                                 Hole:  70.47
                                 Part:  25.72

      Mulliken population analysis 
 ---------------------------------------------------
   Atom    Charge (a.u.)   Spin (a.u.)  
 ---------------------------------------------------
   1 Cr   -0.331238        0.831774 
   2  N   -0.258523        0.403585 
   3  N   -0.322895       -0.006388 
   4  C   -0.236096        0.005806 
   5  C   -0.087521       -0.079415 
   6  N   -0.375290        0.020721 
   7  N   -0.375291        0.020721 
   8  C   -0.087521       -0.079415 
   9  C   -0.087521       -0.079415 
  10  N   -0.375290        0.020721 
  11  C   -0.087521       -0.079415 
  12  N   -0.375291        0.020721 
 ---------------------------------------------------
   Sum:   -3.000000        1.000000 
 ---------------------------------------------------
 
  
 NATURAL OCCUPATION NUMBERS (higher than 1.0E-05)
            1           2           3           4           5           6
    1   2.0000000   2.0000000   2.0000000   2.0000000   2.0000000   2.0000000
            7           8           9          10          11          12
    1   2.0000000   2.0000000   2.0000000   2.0000000   2.0000000   2.0000000
           13          14          15          16          17          18
    1   2.0000000   2.0000000   2.0000000   2.0000000   2.0000000   2.0000000
           19          20          21          22          23          24
    1   2.0000000   2.0000000   2.0000000   2.0000000   2.0000000   2.0000000
           25          26          27          28          29          30
    1   2.0000000   2.0000000   2.0000000   2.0000000   2.0000000   2.0000000
           31          32          33          34          35          36
    1   2.0000000   2.0000000   2.0000000   1.9999987   1.9999987   1.9999977
           37          38          39          40          41          42
    1   1.9999964   1.9999947   1.9999921   1.9999921   1.9999905   1.9999403
           43          44          45          46          47          48
    1   1.9997830   1.9997830   1.9996478   1.9995884   1.9987169   1.6490972
           49          50          51          52          53          54
    1   1.6490971   0.6964605   0.3513490   0.3513488   0.2961877   0.0061403
           55
    1   0.0028993
  
*** Unpaired Electrons
 Yamaguchi Nd:         3.75
 Head-Gordon Nu:       2.41
 Head-Gordon Nu_nl:    2.42
  
**************************************************
 RAS-CI total energy for state   7:  -1558.926183129911
  Excitation energy (eV) =  5.017868659789
  Warning: not all configurations have same symmetry
  State symmetry: *A1    (C2v      )
  <S^2>      :  0.7500
  Dipole Moment:   -0.0000 X     0.0000 Y     0.2773 Z
  Trans. Moment:    0.0000 X    -0.0000 Y     0.0000 Z
  Strength   :  0.000000
  Natural transition orbitals ( 1 -> 7 ):
   e-/hole pair  1 alpha:  ampl =  0.766856 ( 58.8%)   [5 : 6]
   e-/hole pair  2 alpha:  ampl =  0.073082 (  0.5%)   [4 : 7]
   e-/hole pair  1 beta :  ampl =  0.218530 (  4.8%)   [5 : 6]
   e-/hole pair  2 beta :  ampl =  0.218530 (  4.8%)   [4 : 7]
   Sum of square amplitudes: 0.69

 NATURAL OCCUPATION NUMBERS (higher than 1.0E-05)
            1           2           3           4           5           6
    1   2.0000000   2.0000000   2.0000000   2.0000000   2.0000000   2.0000000
            7           8           9          10          11          12
    1   2.0000000   2.0000000   2.0000000   2.0000000   2.0000000   2.0000000
           13          14          15          16          17          18
    1   2.0000000   2.0000000   2.0000000   2.0000000   2.0000000   2.0000000
           19          20          21          22          23          24
    1   2.0000000   2.0000000   2.0000000   2.0000000   2.0000000   2.0000000
           25          26          27          28          29          30
    1   2.0000000   2.0000000   2.0000000   2.0000000   2.0000000   2.0000000
           31          32          33          34          35          36
    1   2.0000000   1.9999996   1.9999996   1.9999994   1.9999994   1.9999985
           37          38          39          40          41          42
    1   1.9999978   1.9999913   1.9999913   1.9999911   1.9999893   1.9998854
           43          44          45          46          47          48
    1   1.9998854   1.9998708   1.9997492   1.9997263   1.9988910   1.8383183
           49          50          51          52          53          54
    1   1.8383182   0.6747658   0.3114334   0.1620892   0.1620891   0.0096091
           55
    1   0.0054116
Natural Orbitals stored in FCHK

  Amplitudes : 
  
 | HOLE  | ALPHA | BETA  | PART  |    AMPLITUDE 
--------------------------------------------------
 |       | 00001 | 00000 |       |     1.6899262906465E-01
 |  34   | 10000 | 01000 |       |     2.0362428178903E-01
 |  33   | 10000 | 00100 |       |     2.0362434757668E-01
 |  34   | 01000 | 10000 |       |     2.7456758452413E-01
 |  43   | 01000 | 10000 |       |    -1.2674002919622E-01
 |  33   | 00100 | 10000 |       |     2.7456766622605E-01
 |  42   | 00100 | 10000 |       |     1.2674057169534E-01
 |       | 00000 | 00000 |  55   |     7.9581310610835E-01
--------------------------------------------------
*** Contributions RASCI wfn    Active:   2.86
                                 Hole:  32.57
                                 Part:  64.58

      Mulliken population analysis 
 ---------------------------------------------------
   Atom    Charge (a.u.)   Spin (a.u.)  
 ---------------------------------------------------
   1 Cr   -0.927172        1.513852 
   2  N   -0.131468        0.058683 
   3  N   -0.330886        0.001068 
   4  C   -0.203920       -0.026140 
   5  C    0.051383       -0.207772 
   6  N   -0.403022        0.070907 
   7  N   -0.403022        0.070907 
   8  C    0.051383       -0.207772 
   9  C    0.051383       -0.207772 
  10  N   -0.403022        0.070907 
  11  C    0.051383       -0.207772 
  12  N   -0.403022        0.070907 
 ---------------------------------------------------
   Sum:   -3.000000        1.000000 
 ---------------------------------------------------
 
  
 NATURAL OCCUPATION NUMBERS (higher than 1.0E-05)
            1           2           3           4           5           6
    1   2.0000000   2.0000000   2.0000000   2.0000000   2.0000000   2.0000000
            7           8           9          10          11          12
    1   2.0000000   2.0000000   2.0000000   2.0000000   2.0000000   2.0000000
           13          14          15          16          17          18
    1   2.0000000   2.0000000   2.0000000   2.0000000   2.0000000   2.0000000
           19          20          21          22          23          24
    1   2.0000000   2.0000000   2.0000000   2.0000000   2.0000000   2.0000000
           25          26          27          28          29          30
    1   2.0000000   2.0000000   2.0000000   2.0000000   2.0000000   2.0000000
           31          32          33          34          35          36
    1   2.0000000   1.9999996   1.9999996   1.9999994   1.9999994   1.9999985
           37          38          39          40          41          42
    1   1.9999978   1.9999913   1.9999913   1.9999911   1.9999893   1.9998854
           43          44          45          46          47          48
    1   1.9998854   1.9998708   1.9997492   1.9997263   1.9988910   1.8383183
           49          50          51          52          53          54
    1   1.8383182   0.6747658   0.3114334   0.1620892   0.1620891   0.0096091
           55
    1   0.0054116
  
*** Unpaired Electrons
 Yamaguchi Nd:         2.64
 Head-Gordon Nu:       1.65
 Head-Gordon Nu_nl:    1.43
  
**************************************************
 RAS-CI total energy for state   8:  -1558.923396154038
  Excitation energy (eV) =  5.093706131787
  Warning: not all configurations have same symmetry
  State symmetry: *A1    (C2v      )
  <S^2>      :  0.7500
  Dipole Moment:    0.0000 X    -0.0000 Y     0.3614 Z
  Trans. Moment:   -0.0183 X     0.0000 Y     0.0000 Z
  Strength   :  0.000042
  Natural transition orbitals ( 1 -> 8 ):
   e-/hole pair  1 alpha:  ampl =  0.086684 (  0.8%)   [5 : 6]
   e-/hole pair  2 alpha:  ampl =  0.028204 (  0.1%)   [4 : 7]
   e-/hole pair  1 beta :  ampl =  0.073274 (  0.5%)   [5 : 6]
   e-/hole pair  2 beta :  ampl =  0.020315 (  0.0%)   [4 : 7]
   Sum of square amplitudes: 0.01

 NATURAL OCCUPATION NUMBERS (higher than 1.0E-05)
            1           2           3           4           5           6
    1   2.0000000   2.0000000   2.0000000   2.0000000   2.0000000   2.0000000
            7           8           9          10          11          12
    1   2.0000000   2.0000000   2.0000000   2.0000000   2.0000000   2.0000000
           13          14          15          16          17          18
    1   2.0000000   2.0000000   2.0000000   2.0000000   2.0000000   2.0000000
           19          20          21          22          23          24
    1   2.0000000   2.0000000   2.0000000   2.0000000   2.0000000   2.0000000
           25          26          27          28          29          30
    1   2.0000000   2.0000000   2.0000000   2.0000000   2.0000000   2.0000000
           31          32          33          34          35          36
    1   2.0000000   2.0000000   2.0000000   2.0000000   1.9999999   1.9999999
           37          38          39          40          41          42
    1   1.9999995   1.9999993   1.9999973   1.9999945   1.9999900   1.9999891
           43          44          45          46          47          48
    1   1.9999839   1.9999738   1.9999584   1.9990808   1.9964872   1.6853901
           49          50          51          52          53          54
    1   1.3233798   1.2365342   0.7489630   0.0032999   0.0031923   0.0023975
           55
    1   0.0013895
Natural Orbitals stored in FCHK

  Amplitudes : 
  
 | HOLE  | ALPHA | BETA  | PART  |    AMPLITUDE 
--------------------------------------------------
 |  33   | 01100 | 00000 |       |     4.6984335268487E-01
 |  42   | 01100 | 00000 |       |     2.0830539721117E-01
 |  45   | 01100 | 00000 |       |     1.2396476878971E-01
 |  34   | 01000 | 01000 |       |     1.6782123883716E-01
 |  33   | 01000 | 00100 |       |    -5.5366646510497E-01
 |  42   | 01000 | 00100 |       |    -2.4419599421173E-01
 |  45   | 01000 | 00100 |       |    -1.4494427681439E-01
 |  34   | 00100 | 00100 |       |    -4.7000869065259E-01
 |  43   | 00100 | 00100 |       |     2.0662573139495E-01
 |  44   | 00100 | 00100 |       |     1.2162315734570E-01
--------------------------------------------------
*** Contributions RASCI wfn    Active:   0.05
                                 Hole:  99.63
                                 Part:   0.32

      Mulliken population analysis 
 ---------------------------------------------------
   Atom    Charge (a.u.)   Spin (a.u.)  
 ---------------------------------------------------
   1 Cr    0.228220        0.544973 
   2  N   -0.780600        0.438095 
   3  N   -0.333260        0.001619 
   4  C   -0.229347       -0.000174 
   5  C   -0.152312        0.001448 
   6  N   -0.316923        0.004924 
   7  N   -0.322132        0.001332 
   8  C   -0.151139        0.000039 
   9  C   -0.152312        0.001448 
  10  N   -0.316923        0.004924 
  11  C   -0.151139        0.000039 
  12  N   -0.322132        0.001332 
 ---------------------------------------------------
   Sum:   -3.000000        1.000000 
 ---------------------------------------------------
 
  
 NATURAL OCCUPATION NUMBERS (higher than 1.0E-05)
            1           2           3           4           5           6
    1   2.0000000   2.0000000   2.0000000   2.0000000   2.0000000   2.0000000
            7           8           9          10          11          12
    1   2.0000000   2.0000000   2.0000000   2.0000000   2.0000000   2.0000000
           13          14          15          16          17          18
    1   2.0000000   2.0000000   2.0000000   2.0000000   2.0000000   2.0000000
           19          20          21          22          23          24
    1   2.0000000   2.0000000   2.0000000   2.0000000   2.0000000   2.0000000
           25          26          27          28          29          30
    1   2.0000000   2.0000000   2.0000000   2.0000000   2.0000000   2.0000000
           31          32          33          34          35          36
    1   2.0000000   2.0000000   2.0000000   2.0000000   1.9999999   1.9999999
           37          38          39          40          41          42
    1   1.9999995   1.9999993   1.9999973   1.9999945   1.9999900   1.9999891
           43          44          45          46          47          48
    1   1.9999839   1.9999738   1.9999584   1.9990808   1.9964872   1.6853901
           49          50          51          52          53          54
    1   1.3233798   1.2365342   0.7489630   0.0032999   0.0031923   0.0023975
           55
    1   0.0013895
  
*** Unpaired Electrons
 Yamaguchi Nd:         3.34
 Head-Gordon Nu:       2.52
 Head-Gordon Nu_nl:    2.85
  
**************************************************
 RAS-CI total energy for state   9:  -1558.923396152405
  Excitation energy (eV) =  5.093706176220
  Warning: not all configurations have same symmetry
  State symmetry: *A1    (C2v      )
  <S^2>      :  0.7500
  Dipole Moment:    0.0000 X    -0.0000 Y     0.3614 Z
  Trans. Moment:   -0.0000 X    -0.0183 Y    -0.0000 Z
  Strength   :  0.000042
  Natural transition orbitals ( 1 -> 9 ):
   e-/hole pair  1 alpha:  ampl =  0.086684 (  0.8%)   [5 : 6]
   e-/hole pair  2 alpha:  ampl =  0.028204 (  0.1%)   [4 : 7]
   e-/hole pair  1 beta :  ampl =  0.073274 (  0.5%)   [5 : 6]
   e-/hole pair  2 beta :  ampl =  0.020315 (  0.0%)   [4 : 7]
   Sum of square amplitudes: 0.01

 NATURAL OCCUPATION NUMBERS (higher than 1.0E-05)
            1           2           3           4           5           6
    1   2.0000000   2.0000000   2.0000000   2.0000000   2.0000000   2.0000000
            7           8           9          10          11          12
    1   2.0000000   2.0000000   2.0000000   2.0000000   2.0000000   2.0000000
           13          14          15          16          17          18
    1   2.0000000   2.0000000   2.0000000   2.0000000   2.0000000   2.0000000
           19          20          21          22          23          24
    1   2.0000000   2.0000000   2.0000000   2.0000000   2.0000000   2.0000000
           25          26          27          28          29          30
    1   2.0000000   2.0000000   2.0000000   2.0000000   2.0000000   2.0000000
           31          32          33          34          35          36
    1   2.0000000   2.0000000   2.0000000   2.0000000   1.9999999   1.9999999
           37          38          39          40          41          42
    1   1.9999995   1.9999993   1.9999973   1.9999945   1.9999900   1.9999891
           43          44          45          46          47          48
    1   1.9999839   1.9999738   1.9999584   1.9990808   1.9964872   1.6853901
           49          50          51          52          53          54
    1   1.3233797   1.2365341   0.7489631   0.0032999   0.0031923   0.0023975
           55
    1   0.0013895
Natural Orbitals stored in FCHK

  Amplitudes : 
  
 | HOLE  | ALPHA | BETA  | PART  |    AMPLITUDE 
--------------------------------------------------
 |  34   | 01100 | 00000 |       |     4.6984338313100E-01
 |  43   | 01100 | 00000 |       |    -2.0830449083609E-01
 |  44   | 01100 | 00000 |       |    -1.2396614353986E-01
 |  33   | 01000 | 01000 |       |     4.7000860800405E-01
 |  42   | 01000 | 01000 |       |     2.0662659924290E-01
 |  45   | 01000 | 01000 |       |     1.2162177980683E-01
 |  34   | 00100 | 01000 |       |     5.5366654505672E-01
 |  43   | 00100 | 01000 |       |    -2.4419495335547E-01
 |  44   | 00100 | 01000 |       |    -1.4494590043137E-01
 |  33   | 00100 | 00100 |       |    -1.6782123427810E-01
--------------------------------------------------
*** Contributions RASCI wfn    Active:   0.05
                                 Hole:  99.63
                                 Part:   0.32

      Mulliken population analysis 
 ---------------------------------------------------
   Atom    Charge (a.u.)   Spin (a.u.)  
 ---------------------------------------------------
   1 Cr    0.228220        0.544973 
   2  N   -0.780600        0.438095 
   3  N   -0.333260        0.001619 
   4  C   -0.229347       -0.000174 
   5  C   -0.151139        0.000039 
   6  N   -0.322132        0.001332 
   7  N   -0.316923        0.004924 
   8  C   -0.152312        0.001448 
   9  C   -0.151139        0.000039 
  10  N   -0.322132        0.001332 
  11  C   -0.152312        0.001448 
  12  N   -0.316923        0.004924 
 ---------------------------------------------------
   Sum:   -3.000000        1.000000 
 ---------------------------------------------------
 
  
 NATURAL OCCUPATION NUMBERS (higher than 1.0E-05)
            1           2           3           4           5           6
    1   2.0000000   2.0000000   2.0000000   2.0000000   2.0000000   2.0000000
            7           8           9          10          11          12
    1   2.0000000   2.0000000   2.0000000   2.0000000   2.0000000   2.0000000
           13          14          15          16          17          18
    1   2.0000000   2.0000000   2.0000000   2.0000000   2.0000000   2.0000000
           19          20          21          22          23          24
    1   2.0000000   2.0000000   2.0000000   2.0000000   2.0000000   2.0000000
           25          26          27          28          29          30
    1   2.0000000   2.0000000   2.0000000   2.0000000   2.0000000   2.0000000
           31          32          33          34          35          36
    1   2.0000000   2.0000000   2.0000000   2.0000000   1.9999999   1.9999999
           37          38          39          40          41          42
    1   1.9999995   1.9999993   1.9999973   1.9999945   1.9999900   1.9999891
           43          44          45          46          47          48
    1   1.9999839   1.9999738   1.9999584   1.9990808   1.9964872   1.6853901
           49          50          51          52          53          54
    1   1.3233797   1.2365341   0.7489631   0.0032999   0.0031923   0.0023975
           55
    1   0.0013895
  
*** Unpaired Electrons
 Yamaguchi Nd:         3.34
 Head-Gordon Nu:       2.52
 Head-Gordon Nu_nl:    2.85
  
**************************************************
 RAS-CI total energy for state  10:  -1558.917823348027
  Excitation energy (eV) =  5.245349898746
  Warning: not all configurations have same symmetry
  State symmetry: *B2    (C2v      )
  <S^2>      :  0.7500
  Dipole Moment:    0.0000 X    -0.0000 Y    -1.4734 Z
  Trans. Moment:   -0.0000 X    -0.0000 Y     0.0000 Z
  Strength   :  0.000000
  Natural transition orbitals ( 1 -> 10 ):
   e-/hole pair  1 alpha:  ampl =  0.408811 ( 16.7%)   [5 : 6]
   e-/hole pair  2 alpha:  ampl =  0.408811 ( 16.7%)   [4 : 7]
   e-/hole pair  1 beta :  ampl =  0.501083 ( 25.1%)   [5 : 6]
   e-/hole pair  2 beta :  ampl =  0.501082 ( 25.1%)   [4 : 7]
   Sum of square amplitudes: 0.84

 NATURAL OCCUPATION NUMBERS (higher than 1.0E-05)
            1           2           3           4           5           6
    1   2.0000000   2.0000000   2.0000000   2.0000000   2.0000000   2.0000000
            7           8           9          10          11          12
    1   2.0000000   2.0000000   2.0000000   2.0000000   2.0000000   2.0000000
           13          14          15          16          17          18
    1   2.0000000   2.0000000   2.0000000   2.0000000   2.0000000   2.0000000
           19          20          21          22          23          24
    1   2.0000000   2.0000000   2.0000000   2.0000000   2.0000000   2.0000000
           25          26          27          28          29          30
    1   2.0000000   2.0000000   2.0000000   2.0000000   2.0000000   2.0000000
           31          32          33          34          35          36
    1   2.0000000   2.0000000   2.0000000   2.0000000   2.0000000   2.0000000
           37          38          39          40          41          42
    1   1.9999999   1.9999999   1.9999999   1.9999982   1.9999982   1.9999944
           43          44          45          46          47          48
    1   1.9999935   1.9999882   1.9999882   1.9997785   1.9989262   1.5008901
           49          50          51          52          53          54
    1   1.5008898   0.9963531   0.5002028   0.5002026   0.0022481   0.0005451
Natural Orbitals stored in FCHK

  Amplitudes : 
  
 | HOLE  | ALPHA | BETA  | PART  |    AMPLITUDE 
--------------------------------------------------
 |  34   | 11000 | 00000 |       |    -3.9558027402263E-01
 |  43   | 11000 | 00000 |       |     1.8629952336600E-01
 |  33   | 10100 | 00000 |       |     3.9558042091515E-01
 |  42   | 10100 | 00000 |       |     1.8630030203086E-01
 |  34   | 10000 | 01000 |       |     4.7500967330124E-01
 |  43   | 10000 | 01000 |       |    -2.2269408664791E-01
 |  44   | 10000 | 01000 |       |    -1.1335606770794E-01
 |  33   | 10000 | 00100 |       |    -4.7500973575886E-01
 |  42   | 10000 | 00100 |       |    -2.2269496250179E-01
 |  45   | 10000 | 00100 |       |    -1.1335462269067E-01
--------------------------------------------------
*** Contributions RASCI wfn    Active:   0.04
                                 Hole:  99.96
                                 Part:   0.00

      Mulliken population analysis 
 ---------------------------------------------------
   Atom    Charge (a.u.)   Spin (a.u.)  
 ---------------------------------------------------
   1 Cr   -0.035562        0.751320 
   2  N   -0.291658       -0.004530 
   3  N   -0.330981       -0.000148 
   4  C   -0.230049        0.000213 
   5  C   -0.168528        0.020663 
   6  N   -0.359409        0.042623 
   7  N   -0.359409        0.042623 
   8  C   -0.168528        0.020663 
   9  C   -0.168528        0.020663 
  10  N   -0.359409        0.042623 
  11  C   -0.168528        0.020663 
  12  N   -0.359409        0.042623 
 ---------------------------------------------------
   Sum:   -3.000000        1.000000 
 ---------------------------------------------------
 
  
 NATURAL OCCUPATION NUMBERS (higher than 1.0E-05)
            1           2           3           4           5           6
    1   2.0000000   2.0000000   2.0000000   2.0000000   2.0000000   2.0000000
            7           8           9          10          11          12
    1   2.0000000   2.0000000   2.0000000   2.0000000   2.0000000   2.0000000
           13          14          15          16          17          18
    1   2.0000000   2.0000000   2.0000000   2.0000000   2.0000000   2.0000000
           19          20          21          22          23          24
    1   2.0000000   2.0000000   2.0000000   2.0000000   2.0000000   2.0000000
           25          26          27          28          29          30
    1   2.0000000   2.0000000   2.0000000   2.0000000   2.0000000   2.0000000
           31          32          33          34          35          36
    1   2.0000000   2.0000000   2.0000000   2.0000000   2.0000000   2.0000000
           37          38          39          40          41          42
    1   1.9999999   1.9999999   1.9999999   1.9999982   1.9999982   1.9999944
           43          44          45          46          47          48
    1   1.9999935   1.9999882   1.9999882   1.9997785   1.9989262   1.5008901
           49          50          51          52          53          54
    1   1.5008898   0.9963531   0.5002028   0.5002026   0.0022481   0.0005451
  
*** Unpaired Electrons
 Yamaguchi Nd:         4.01
 Head-Gordon Nu:       3.00
 Head-Gordon Nu_nl:    3.25
  
--------------------------------------------------
 Interstate Transition Properties
--------------------------------------------------
State A: Root  1
State B: Root  2
  
Angular momentum components
< B | Lx | A > =    -0.000000000i
< B | Ly | A > =     0.000000000i
< B | Lz | A > =    -1.158262438i
  
Norm of one-particle transition density matrix
||gamma^AB||_total       =  0.983412
||gamma^AB||_symmetrized =  0.694389
||gamma^AB||_anti-symm   =  0.696364
  
Spin-orbit couplings
 Using HF (reference) density for the 2-elec mean-field SOC contribution
KET: S',Sz' (Root   1) =  0.500 0.500
BRA: S ,Sz  (Root   2) =  0.500 0.500
Clebsh-Gordan coefficient: < 0.500, 0.500; 1.000, 0.000| 0.500, 0.500> = -0.577
 Computing 1e-SO integrals
 1e Reduced matrix elements (cm-1)
<S|| Hso(L-) ||S'> =     0.0000000043    -0.0000000015
<S|| Hso(L0) ||S'> =     0.0000000000   669.2300933576
<S|| Hso(L+) ||S'> =     0.0000000043     0.0000000015
 1-elec SOC matrix (cm-1): < B(S,Sz) | Hso(1e) | A(S',Sz') >
                     |Sz'=-0.50>              |Sz'= 0.50>
 <Sz=-0.50|    0.000000  386.380175i    -0.000000   -0.000000i
 <Sz= 0.50|    0.000000   -0.000000i     0.000000 -386.380175i
1-elec SOCC =   546.424083080 cm-1
 Computing 2e-SOMF integrals
 Averagin spin alpha/beta reference densities
 2e-SOMF Reduced matrix elements (cm-1)
<S|| Hso(L-) ||S'> =    -0.0000000021     0.0000000007
<S|| Hso(L0) ||S'> =     0.0000000000  -326.2899058241
<S|| Hso(L+) ||S'> =    -0.0000000021    -0.0000000007
 2-elec mean-field SOC matrix (cm-1): < B(S,Sz) | Hso(2e-mf) | A(S',Sz') >
                     |Sz'=-0.50>              |Sz'= 0.50>
 <Sz=-0.50|    0.000000 -188.383565i     0.000000    0.000000i
 <Sz= 0.50|   -0.000000    0.000000i    -0.000000  188.383565i
 Total mean-field SOC matrix (cm-1): < B(S,Sz) | Hsomf | A(S',Sz') >
                     |Sz'=-0.50>              |Sz'= 0.50>
 <Sz=-0.50|    0.000000  197.996610i    -0.000000   -0.000000i
 <Sz= 0.50|    0.000000   -0.000000i     0.000000 -197.996610i
Mean-Field SOCC =   280.009490584 cm-1
   
**************************************************
State A: Root  1
State B: Root  3
  
Angular momentum components
< B | Lx | A > =     0.000000268i
< B | Ly | A > =     0.540917694i
< B | Lz | A > =     0.000000000i
  
Norm of one-particle transition density matrix
||gamma^AB||_total       =  0.951851
||gamma^AB||_symmetrized =  0.677040
||gamma^AB||_anti-symm   =  0.669056
  
Spin-orbit couplings
 Using HF (reference) density for the 2-elec mean-field SOC contribution
KET: S',Sz' (Root   1) =  0.500 0.500
BRA: S ,Sz  (Root   3) =  0.500 0.500
Clebsh-Gordan coefficient: < 0.500, 0.500; 1.000, 0.000| 0.500, 0.500> = -0.577
 Reading 1e-SO integrals
 1e Reduced matrix elements (cm-1)
<S|| Hso(L-) ||S'> =   193.6512775801     0.0000961047
<S|| Hso(L0) ||S'> =     0.0000000000    -0.0000000152
<S|| Hso(L+) ||S'> =   193.6512775801    -0.0000961047
 1-elec SOC matrix (cm-1): < B(S,Sz) | Hso(1e) | A(S',Sz') >
                     |Sz'=-0.50>              |Sz'= 0.50>
 <Sz=-0.50|    0.000000   -0.000000i  -158.115606    0.000078i
 <Sz= 0.50|  158.115606    0.000078i     0.000000    0.000000i
1-elec SOCC =   223.609234480 cm-1
 Reading 2e-SOMF integrals
 2e-SOMF Reduced matrix elements (cm-1)
<S|| Hso(L-) ||S'> =   -93.9030745213    -0.0000466019
<S|| Hso(L0) ||S'> =     0.0000000000     0.0000000074
<S|| Hso(L+) ||S'> =   -93.9030745213     0.0000466019
 2-elec mean-field SOC matrix (cm-1): < B(S,Sz) | Hso(2e-mf) | A(S',Sz') >
                     |Sz'=-0.50>              |Sz'= 0.50>
 <Sz=-0.50|    0.000000    0.000000i    76.671539   -0.000038i
 <Sz= 0.50|  -76.671539   -0.000038i    -0.000000   -0.000000i
 Total mean-field SOC matrix (cm-1): < B(S,Sz) | Hsomf | A(S',Sz') >
                     |Sz'=-0.50>              |Sz'= 0.50>
 <Sz=-0.50|    0.000000   -0.000000i   -81.444067    0.000040i
 <Sz= 0.50|   81.444067    0.000040i     0.000000    0.000000i
Mean-Field SOCC =   115.179303774 cm-1
   
**************************************************
State A: Root  1
State B: Root  4
  
Angular momentum components
< B | Lx | A > =     0.540917706i
< B | Ly | A > =    -0.000000268i
< B | Lz | A > =    -0.000000000i
  
Norm of one-particle transition density matrix
||gamma^AB||_total       =  0.951851
||gamma^AB||_symmetrized =  0.677040
||gamma^AB||_anti-symm   =  0.669056
  
Spin-orbit couplings
 Using HF (reference) density for the 2-elec mean-field SOC contribution
KET: S',Sz' (Root   1) =  0.500 0.500
BRA: S ,Sz  (Root   4) =  0.500 0.500
Clebsh-Gordan coefficient: < 0.500, 0.500; 1.000, 0.000| 0.500, 0.500> = -0.577
 Reading 1e-SO integrals
 1e Reduced matrix elements (cm-1)
<S|| Hso(L-) ||S'> =    -0.0000961045   193.6512773350
<S|| Hso(L0) ||S'> =     0.0000000000     0.0000000054
<S|| Hso(L+) ||S'> =    -0.0000961045  -193.6512773350
 1-elec SOC matrix (cm-1): < B(S,Sz) | Hso(1e) | A(S',Sz') >
                     |Sz'=-0.50>              |Sz'= 0.50>
 <Sz=-0.50|    0.000000    0.000000i     0.000078  158.115606i
 <Sz= 0.50|   -0.000078  158.115606i    -0.000000   -0.000000i
1-elec SOCC =   223.609234197 cm-1
 Reading 2e-SOMF integrals
 2e-SOMF Reduced matrix elements (cm-1)
<S|| Hso(L-) ||S'> =     0.0000466018   -93.9030749850
<S|| Hso(L0) ||S'> =     0.0000000000    -0.0000000026
<S|| Hso(L+) ||S'> =     0.0000466018    93.9030749850
 2-elec mean-field SOC matrix (cm-1): < B(S,Sz) | Hso(2e-mf) | A(S',Sz') >
                     |Sz'=-0.50>              |Sz'= 0.50>
 <Sz=-0.50|    0.000000   -0.000000i    -0.000038  -76.671540i
 <Sz= 0.50|    0.000038  -76.671540i     0.000000    0.000000i
 Total mean-field SOC matrix (cm-1): < B(S,Sz) | Hsomf | A(S',Sz') >
                     |Sz'=-0.50>              |Sz'= 0.50>
 <Sz=-0.50|    0.000000    0.000000i     0.000040   81.444066i
 <Sz= 0.50|   -0.000040   81.444066i    -0.000000   -0.000000i
Mean-Field SOCC =   115.179302956 cm-1
   
**************************************************
State A: Root  1
State B: Root  5
  
Angular momentum components
< B | Lx | A > =     0.000000000i
< B | Ly | A > =     0.000000000i
< B | Lz | A > =     0.000000000i
  
Norm of one-particle transition density matrix
||gamma^AB||_total       =  0.546349
||gamma^AB||_symmetrized =  0.403034
||gamma^AB||_anti-symm   =  0.368864
  
Spin-orbit couplings
 Using HF (reference) density for the 2-elec mean-field SOC contribution
KET: S',Sz' (Root   1) =  0.500 0.500
BRA: S ,Sz  (Root   5) =  0.500 0.500
Clebsh-Gordan coefficient: < 0.500, 0.500; 1.000, 0.000| 0.500, 0.500> = -0.577
 Reading 1e-SO integrals
 1e Reduced matrix elements (cm-1)
<S|| Hso(L-) ||S'> =    -0.0000000008    -0.0000000016
<S|| Hso(L0) ||S'> =     0.0000000000     0.0000000000
<S|| Hso(L+) ||S'> =    -0.0000000008     0.0000000016
 1-elec SOC matrix (cm-1): < B(S,Sz) | Hso(1e) | A(S',Sz') >
                     |Sz'=-0.50>              |Sz'= 0.50>
 <Sz=-0.50|    0.000000    0.000000i     0.000000   -0.000000i
 <Sz= 0.50|   -0.000000   -0.000000i    -0.000000   -0.000000i
1-elec SOCC =     0.000000002 cm-1
 Reading 2e-SOMF integrals
 2e-SOMF Reduced matrix elements (cm-1)
<S|| Hso(L-) ||S'> =     0.0000000004     0.0000000009
<S|| Hso(L0) ||S'> =     0.0000000000    -0.0000000000
<S|| Hso(L+) ||S'> =     0.0000000004    -0.0000000009
 2-elec mean-field SOC matrix (cm-1): < B(S,Sz) | Hso(2e-mf) | A(S',Sz') >
                     |Sz'=-0.50>              |Sz'= 0.50>
 <Sz=-0.50|    0.000000   -0.000000i    -0.000000    0.000000i
 <Sz= 0.50|    0.000000    0.000000i     0.000000    0.000000i
 Total mean-field SOC matrix (cm-1): < B(S,Sz) | Hsomf | A(S',Sz') >
                     |Sz'=-0.50>              |Sz'= 0.50>
 <Sz=-0.50|    0.000000    0.000000i     0.000000   -0.000000i
 <Sz= 0.50|   -0.000000   -0.000000i    -0.000000   -0.000000i
Mean-Field SOCC =     0.000000001 cm-1
   
**************************************************
State A: Root  1
State B: Root  6
  
Angular momentum components
[...]
    99    1.607583173179e-13
   100    3.172866179246e-16
   101   -1.173253565507e-13
   102    2.078931709230e-03
   103    2.786190066710e-14
   104    4.551854744774e-14
   105   -1.183836842968e-16
   106    8.548465037846e-05
   107    2.962054355528e-15
   108   -5.140098211191e-13
   109   -1.563754267581e-12
   110    2.896186970168e-12
   111    2.755126527912e-13
   112   -9.202144584081e-11
   113   -8.350586002686e-03
   114   -7.758555849018e-13
   115    1.094292976269e-12
   116   -2.243279243709e-02
   117   -1.793540108143e-12
   118   -3.490429623632e-11
   119    1.632599166532e-01
   120    2.014675584267e-12
   121    2.386357205791e-10
   122    5.721918311426e-13
   123   -8.939583042584e-04
   124   -6.600377933481e-14
   125    2.968584265293e-13
   126   -4.359399096239e-15
   127    2.301275779082e-11
   128    4.185075321695e-02
   129    2.305611001814e-13
   130   -2.329628275422e-12
   131    5.009346245055e-14
   132   -1.665024218281e-12
   133   -6.798579349729e-03
   134   -7.695754927764e-14
   135   -1.298011516544e-13
   136    5.217914074608e-15
   137    1.015741247920e-03
   138   -1.889737382504e-14
   139   -7.686545961648e-03
   140   -1.544452226901e-02
   141   -4.998780766408e-02
   142    9.613516397362e-01
   143    1.460867383645e+00
   144   -1.864215361552e-02
   145    2.923227807726e-12
   146    4.541836776510e-03
   147    1.692257579502e-01
   148    2.619650646106e-12
   149   -4.729257423647e-02
   150    2.904669060814e+00
   151    1.543589313164e-11
   152   -1.165535438450e-01
   153   -1.405608735580e-03
   154    9.659748009135e-04
   155   -1.226283831437e-15
   156    3.691062428675e-03
   157   -2.098042783013e-13
   158    7.618716444608e-03
   159   -1.357414481934e-02
   160    3.304320312253e-13
   161    2.710788192366e-02
   162   -8.100792178433e-13
   163    7.734681157887e-04
   164   -1.966999399037e-03
   165   -6.323476716245e-15
   166   -3.135887386123e-04
   167   -5.518785615917e-15
   168   -5.578520282452e-04
   169   -4.507510118807e-14
   170    1.363496930904e-02
   171    3.554135837157e-02
   172   -9.511199766945e-02
   173    1.812314984804e-01
   174   -3.810295190710e+00
   175   -1.605531405554e-02
   176   -3.253497579388e-12
   177    1.241905882836e-02
   178    7.249047812347e-02
   179   -2.115313063956e-12
   180    1.372939808546e-02
   181    9.753060741725e-01
   182   -1.045246855598e-11
   183   -1.395511616467e-01
   184   -1.980669040290e-03
   185   -1.074546862740e-03
   186    1.195476476514e-14
   187    4.233637928194e-03
   188   -1.064121232591e-13
   189    3.582239048837e-02
   190    9.888002760202e-03
   191   -2.522018114785e-14
   192   -5.883369151364e-02
   193   -1.850800006255e-13
   194    1.330877019476e-04
   195   -2.574616579111e-03
   196   -6.960983633125e-15
   197   -1.195533434335e-04
   198   -8.501342401038e-16
   199    2.916855952178e-03
   200    3.095801249404e-14
   201   -8.567183278079e-13
   202   -2.500023352609e-12
   203    1.109057950066e-11
   204   -4.020444037957e-11
   205    3.965328751457e-10
   206    1.366375634841e-01
   207   -1.082582185551e-12
   208    3.009449301146e-12
   209    9.963972331579e-02
   210   -2.560582811576e-12
   211    1.950210036781e-12
   212    4.121727375717e-01
   213   -1.102354855195e-10
   214    2.427024680968e-11
   215    1.165961565987e-13
   216   -1.104526223086e-03
   217    3.240618033594e-13
   218    4.045859044717e-13
   219    6.320811433083e-03
   220   -2.463039033754e-12
   221   -5.180398356986e-04
   222   -1.249634343865e-12
   223   -4.237122577755e-12
   224   -2.371843043574e-04
   225   -1.086908788869e-13
   226   -5.350032861908e-04
   227    1.255493805305e-13
   228   -1.178747482223e-13
   229   -3.045935296034e-04
   230   -1.543685378842e-03
   231    1.244559205030e-13
   232    1.943567829455e-13
   233    4.618734368483e-13
   234    4.275514352442e-13
   235   -2.817518441287e-11
   236   -4.384779352249e-10
   237   -1.762576640682e-01
   238    9.879112460190e-14
   239   -6.173120175988e-12
   240   -2.644853659873e-01
   241   -6.113203422632e-12
   242   -8.914692546674e-12
   243   -2.605448012338e-01
   244   -2.223126789740e-10
   245    2.080203380304e-11
   246   -8.928945118834e-13
   247   -1.273276831624e-03
   248    1.367366452035e-13
   249   -5.833545886089e-13
   250    1.142238765757e-02
   251    3.654625988298e-12
   252   -1.268558648251e-02
   253    3.977118620109e-13
   254    1.247256127911e-12
   255    9.083858832160e-03
   256    3.278033815179e-13
   257    1.010238739408e-03
   258    1.499515233762e-13
   259    2.653137673503e-13
   260    1.692011512149e-03
   261    6.678507854220e-03
   262    2.863222320012e-13
   263    7.686545961592e-03
   264    1.544452226849e-02
   265    4.998780765286e-02
   266   -9.613516397098e-01
   267   -1.460867384672e+00
   268   -1.864215361601e-02
   269    2.383929811004e-12
   270   -4.541836789320e-03
   271    1.692257578872e-01
   272    2.008438092724e-12
   273    4.729257421777e-02
   274    2.904669061746e+00
   275    1.181332439961e-11
   276    1.165535439127e-01
   277    1.405608733904e-03
   278    9.659748004050e-04
   279    1.001559887261e-14
   280   -3.691062426288e-03
   281    2.006412692396e-13
   282   -7.618716468670e-03
   283   -1.357414480190e-02
   284    2.749801780443e-13
   285   -2.710788187445e-02
   286    4.731216228092e-13
   287   -7.734681141019e-04
   288   -1.966999395912e-03
   289   -8.205776891391e-15
   290    3.135887370684e-04
   291    5.024809649558e-15
   292   -5.578520319906e-04
   293   -5.147127886129e-14
   294   -1.363496931129e-02
   295   -3.554135837869e-02
   296    9.511199771546e-02
   297   -1.812314987509e-01
   298    3.810295191963e+00
   299   -1.605531405389e-02
   300   -2.773102673523e-12
   301   -1.241905882467e-02
   302    7.249047806299e-02
   303   -1.921221664797e-12
   304   -1.372939809064e-02
   305    9.753060744600e-01
   306   -8.651093059422e-12
   307    1.395511617081e-01
   308    1.980669041008e-03
   309   -1.074546863732e-03
   310    8.761452203392e-15
   311   -4.233637929613e-03
   312    8.741180706165e-14
   313   -3.582239048712e-02
   314    9.888002761548e-03
   315   -1.684593908375e-14
   316    5.883369151215e-02
   317    1.001266009598e-13
   318   -1.330877019661e-04
   319   -2.574616578846e-03
   320   -4.673323085945e-15
   321    1.195533434511e-04
   322    1.260035917659e-15
   323    2.916855951956e-03
   324    2.449632393280e-14
   325   -3.345877680278e-13
   326   -7.884290375929e-13
   327    2.680732624188e-12
   328   -2.759263652761e-11
   329   -4.190835500995e-10
   330   -1.762576640686e-01
   331    2.173733428830e-12
   332   -9.783557554989e-12
   333   -2.644853659869e-01
   334    6.081524652349e-12
   335   -1.184948208679e-11
   336   -2.605448012361e-01
   337    2.682424325387e-10
   338    6.133775111498e-13
   339   -8.047307727716e-13
   340   -1.273276831615e-03
   341   -3.578561623441e-13
   342   -5.665155626723e-13
   343   -1.142238765755e-02
   344    2.491813527140e-12
   345   -1.268558648263e-02
   346   -9.919999786110e-15
   347   -1.636802857379e-12
   348   -9.083858833478e-03
   349    3.645483340611e-13
   350    1.010238739340e-03
   351   -1.142906540254e-13
   352    2.794575864520e-13
   353   -1.692011512109e-03
   354    6.678507854002e-03
   355   -3.220020349521e-13
   356   -1.008246266548e-12
   357   -2.845926371768e-12
   358    1.159314945941e-11
   359   -4.298864784963e-11
   360    4.236620679995e-10
   361    1.366375634845e-01
   362    1.113956285547e-13
   363    5.576547526204e-12
   364    9.963972331524e-02
   365    3.618759799137e-13
   366    2.892759190345e-12
   367    4.121727375721e-01
   368    1.102599597945e-10
   369    3.749750901489e-11
   370    5.669020954639e-14
   371   -1.104526223083e-03
   372   -4.984004688196e-13
   373    3.301243102966e-13
   374   -6.320811433059e-03
   375   -2.168591150252e-12
   376   -5.180398357714e-04
   377    1.189124776435e-12
   378   -4.137012447968e-12
   379    2.371843036240e-04
   380   -9.392553646608e-14
   381   -5.350032861657e-04
   382   -1.423907565502e-13
   383   -9.895100569995e-14
   384    3.045935295826e-04
   385   -1.543685378733e-03
   386   -1.702397722183e-13
Sym=X
Ene= 0.483342
Spin=Alpha
Occup=0
     1    1.232429273886e-08
     2   -2.047556555347e-08
     3    1.367152411919e-07
     4   -1.209895621833e-07
     5    4.865674749553e-06
     6   -4.500171848409e-06
     7    2.178946360519e-13
     8   -1.743228110284e-13
     9    2.893724095473e-09
    10   -6.391315990892e-13
    11    4.293946044543e-13
    12   -1.844645531433e-08
    13   -4.478220984335e-13
    14    1.086700851917e-12
    15    7.776830852324e-08
    16   -2.797592548425e-12
    17   -1.252477505390e-12
    18   -1.818402878090e-06
    19    2.609006768951e-07
    20    1.432703236063e-13
    21   -4.206732618500e-13
    22   -7.203525466558e-02
    23   -7.665211422168e-14
    24    1.314767881103e-07
    25   -8.095074005962e-15
    26   -9.504154191084e-14
    27   -4.142879097163e-02
    28   -5.573137955793e-14
    29    6.729471766876e-07
    30    1.495350615179e-12
    31   -2.214444393914e-12
    32   -9.681448821323e-02
    33    2.870156758074e-14
    34    1.683302950333e-06
    35    5.316114938405e-12
    36   -7.963410855218e-12
    37   -7.649913290219e-01
    38   -2.315831606780e-13
    39   -9.038243610027e-10
    40   -2.104004503132e-14
    41   -3.303626361188e-14
    42    1.378844192623e-02
    43   -8.793650792103e-16
    44   -5.136292006574e-14
    45   -9.413390375621e-14
    46    6.806161502040e-09
    47    1.340284031246e-08
    48    3.808049733051e-08
    49   -4.135949412241e-07
    50    2.292545049108e-07
    51   -7.929771760738e-14
    52    7.379823342051e-14
    53    7.643554533579e-08
    54    1.669328388495e-13
    55    9.119473839275e-14
    56    2.016467925556e-07
    57   -3.498684120143e-12
    58    2.992133965726e-12
    59   -1.986504870645e-07
    60    3.824685386168e-09
    61   -4.864466833460e-14
    62    3.707741036939e-14
    63    1.384876337820e-03
    64    7.435798450136e-17
    65    3.063623649799e-09
    66    1.975772248111e-13
    67   -1.818410466691e-13
    68    2.629723987987e-02
    69   -3.995342694970e-15
    70   -1.072435351683e-09
    71   -1.470101216344e-15
    72   -1.298990076745e-14
    73   -2.281800200788e-03
    74    6.356553591649e-16
    75   -7.432676738132e-15
    76   -6.179227322965e-15
    77    3.196509861648e-08
    78    8.628712227724e-08
    79   -3.016838926422e-07
    80    1.073334618226e-06
    81   -9.847537572765e-06
    82    5.222113632044e-13
    83   -4.341841996884e-13
    84    6.282320831428e-08
    85    5.971877859524e-13
    86   -1.033268936179e-12
    87    1.035333205721e-07
    88   -3.909767383537e-13
    89    1.095061202632e-12
    90   -2.367214457665e-06
    91    1.123461125681e-08
    92    2.307482243683e-14
    93   -1.824806785170e-14
    94   -7.028086442047e-04
    95   -8.286610938520e-17
    96   -1.125758826443e-07
    97   -1.667762517170e-13
    98   -6.700618623053e-14
    99   -4.326756176304e-03
   100   -7.565421532397e-16
   101   -5.509770117641e-09
   102   -1.025840829970e-14
   103   -2.149628504442e-14
   104   -6.055442320710e-04
   105   -1.870246661416e-16
   106   -1.290000293428e-15
   107   -2.099474286031e-15
   108    1.814997954756e-08
   109    4.994195550735e-08
   110   -2.360626940093e-07
   111    1.681248842672e-06
   112    4.075241997098e-06
   113    5.443097260886e-14
   114   -6.176300993538e-14
   115   -7.834718285645e-08
   116   -3.468173245111e-13
   117    4.442638341625e-13
   118   -7.807513216160e-08
   119    1.410044800856e-12
   120   -3.689169534638e-12
   121   -7.457466302840e-06
   122    5.191190936520e-11
   123   -6.601336009872e-15
   124    7.898849556745e-14
   125   -2.697304287307e-03
   126   -5.587102477828e-16
   127   -1.286283952001e-07
   128   -4.508470906695e-13
   129   -3.306148486492e-13
   130   -1.929717869065e-02
   131    3.145515508781e-15
   132    6.519853843518e-09
   133    5.056540962336e-14
   134    9.616903763133e-15
   135   -3.209852803360e-03
   136   -4.072116741689e-16
   137    1.077043188877e-15
   138    1.328104801428e-14
   139   -2.755002182367e-05
   140   -1.536067705908e-03
   141    3.609704962358e-02
   142   -2.724659139549e-01
   143    7.086197290831e-01
   144    1.313301483874e-02
   145   -1.178873460201e-12
   146    1.509513177481e-01
   147    3.751273130480e-03
   148   -7.745532256483e-13
   149    1.993089133187e-01
   150   -2.814799235783e-01
   151   -6.596775067120e-12
   152    5.259109929138e-01
   153    3.671088976377e-03
   154   -7.079190419331e-03
   155   -4.510317968176e-14
   156   -4.063667214980e-03
   157    2.404605072730e-14
   158    8.232571505565e-03
   159   -2.471524901338e-02
   160    8.471005066022e-14
   161   -8.197378049986e-03
   162    2.939028991152e-13
   163   -4.042102818795e-04
   164   -1.658983117166e-04
   165    9.603100937741e-15
   166    1.953600795514e-03
   167   -1.121559882998e-14
   168    1.021993621223e-04
   169    4.263042284632e-15
   170   -1.655389481441e-03
   171   -3.901107432356e-03
   172    2.976871440553e-03
   173    2.938091688998e-02
   174    2.441889449646e-01
   175   -3.411833409603e-03
   176    7.038954354894e-13
   177   -1.301029325913e-01
   178   -2.131594243655e-02
   179   -2.226343179450e-13
   180   -8.496657278697e-02
   181   -8.346189175889e-02
   182    4.780918824894e-12
   183   -4.117135075283e-01
   184    1.178290107169e-03
   185   -5.553113665489e-03
   186   -6.756387949927e-15
   187   -1.070666080712e-03
   188    6.303312059320e-14
   189   -3.506661792710e-03
   190   -8.184663459892e-03
   191   -5.864236268078e-14
   192    6.829388948347e-03
   193    3.900431884483e-14
   194   -4.992682582109e-05
   195    1.967174821264e-04
   196    1.047396155708e-15
   197    2.342384631253e-04
   198    8.352939811658e-15
   199   -3.234183951808e-04
   200   -1.985965306594e-14
   201    1.655404484193e-03
   202    3.901148821090e-03
   203   -2.977069102735e-03
   204   -2.937984605933e-02
   205   -2.441938322862e-01
   206   -8.549718112744e-13
   207    3.411899483765e-03
   208    1.301029385590e-01
   209   -4.335916250970e-13
   210    2.131566010180e-02
   211    8.496662652075e-02
   212   -4.229884408302e-12
   213    8.346311723405e-02
   214    4.117131782794e-01
   215   -1.178288241669e-03
   216    1.040886925156e-14
   217    5.553103357979e-03
   218   -1.070669241814e-03
   219   -7.378999200383e-14
   220    3.506637471670e-03
   221    1.121023199100e-14
   222    8.184688447767e-03
   223    6.829359865142e-03
   224    1.256357387919e-13
   225    4.993029305854e-05
   226    6.578316372087e-15
   227   -1.967136519828e-04
   228    2.342428830799e-04
   229    6.520207991148e-16
   230    1.433020167669e-14
   231   -3.234174101236e-04
   232    2.754139517289e-05
   233    1.536046274977e-03
   234   -3.609689973979e-02
   235    2.724651506057e-01
   236   -7.086123391117e-01
   237    1.478111442169e-12
   238   -1.313304807171e-02
   239   -1.509511160927e-01
   240    1.843500671295e-12
   241   -3.751707790175e-03
   242   -1.993084848209e-01
   243    4.002051151239e-12
   244    2.814828860554e-01
   245   -5.259116161095e-01
   246   -3.671080014532e-03
   247    2.689430456926e-14
   248    7.079188738287e-03
   249   -4.063638525599e-03
   250   -8.334710392152e-14
   251   -8.232416723932e-03
   252   -6.337065697356e-15
   253    2.471539545207e-02
   254   -8.197195303259e-03
   255    2.074931204372e-13
   256    4.041899742336e-04
   257   -2.366969224294e-14
   258    1.659025192804e-04
   259    1.953580795766e-03
   260   -1.277292855033e-14
   261   -6.029567870789e-14
   262    1.022147764261e-04
   263   -2.755002183966e-05
   264   -1.536067705939e-03
   265    3.609704962339e-02
   266   -2.724659139460e-01
   267    7.086197291418e-01
   268   -1.313301483878e-02
   269   -1.062962967870e-12
   270    1.509513177483e-01
   271   -3.751273132082e-03
   272   -1.061015150386e-12
   273    1.993089133180e-01
   274    2.814799235296e-01
   275   -4.219133682292e-12
   276    5.259109929134e-01
   277    3.671088976483e-03
   278    7.079190419256e-03
   279   -4.035775382774e-14
   280   -4.063667215203e-03
   281   -2.442106609437e-14
   282    8.232571505819e-03
   283    2.471524901372e-02
   284    7.695065965723e-14
   285   -8.197378049625e-03
   286   -2.221586731580e-13
   287   -4.042102819046e-04
   288    1.658983116608e-04
   289    1.005650560419e-14
   290    1.953600795534e-03
   291    9.755114129136e-15
   292   -1.021993620031e-04
   293   -4.376459996269e-15
   294   -1.655389481073e-03
   295   -3.901107431370e-03
   296    2.976871437306e-03
   297    2.938091689799e-02
   298    2.441889448823e-01
   299    3.411833409955e-03
   300    6.063189026914e-13
   301   -1.301029325912e-01
   302    2.131594243770e-02
   303   -6.095209341421e-14
   304   -8.496657278670e-02
   305    8.346189173516e-02
   306    3.568296178013e-12
   307   -4.117135075316e-01
   308    1.178290107107e-03
   309    5.553113665519e-03
   310   -6.014721666146e-15
   311   -1.070666080570e-03
   312   -5.294252275992e-14
   313   -3.506661792168e-03
   314    8.184663459791e-03
   315   -5.054879515724e-14
   316    6.829388947336e-03
   317   -3.165859332229e-14
   318   -4.992682583130e-05
   319   -1.967174821161e-04
   320   -5.641374953985e-16
   321    2.342384631314e-04
   322   -6.117259027818e-15
   323    3.234183951595e-04
   324   -1.115820387747e-14
   325    2.754139512155e-05
   326    1.536046275080e-03
   327   -3.609689974740e-02
   328    2.724651506536e-01
   329   -7.086123391643e-01
   330    1.254892731489e-12
   331    1.313304807150e-02
   332   -1.509511160935e-01
   333    1.958151391632e-12
   334    3.751707767260e-03
   335   -1.993084848244e-01
   336    1.212013155130e-12
   337   -2.814828860322e-01
   338   -5.259116161148e-01
   339   -3.671080014992e-03
   340    2.333268979008e-14
   341   -7.079188738063e-03
   342   -4.063638526417e-03
   343    7.512551680758e-14
   344   -8.232416729062e-03
   345    1.064461906859e-15
   346   -2.471539545073e-02
   347   -8.197195311915e-03
   348   -2.059196520227e-13
   349    4.041899745026e-04
   350   -2.279794832988e-14
   351   -1.659025184782e-04
   352    1.953580796121e-03
   353    1.350894163207e-14
   354   -6.585745752286e-14
   355   -1.022147752714e-04
   356    1.655404483896e-03
   357    3.901148820305e-03
   358   -2.977069098010e-03
   359   -2.937984609242e-02
   360   -2.441938322512e-01
   361   -6.932029031660e-13
   362   -3.411899483525e-03
   363    1.301029385595e-01
   364   -5.136979500700e-13
   365   -2.131566011866e-02
   366    8.496662651873e-02
   367   -2.749057775431e-12
   368   -8.346311723053e-02
   369    4.117131782825e-01
   370   -1.178288241605e-03
   371    8.863059036280e-15
   372   -5.553103358038e-03
   373   -1.070669241704e-03
   374    5.643234403958e-14
   375    3.506637473314e-03
   376    1.073670975320e-14
   377   -8.184688448580e-03
   378    6.829359868231e-03
   379   -1.079746330258e-13
   380    4.993029309441e-05
   381    7.512810937181e-15
   382    1.967136520847e-04
   383    2.342428831208e-04
   384   -2.039095808187e-15
   385    2.039946572000e-14
   386    3.234174102845e-04
[5D7F]

======= END OF MOLDEN-FORMATTED INPUT FILE =======


        *************************************************************
        *                                                           *
        *  Thank you very much for using Q-Chem.  Have a nice day.  *
        *                                                           *
        *************************************************************


