                  Welcome to Q-Chem
     A Quantum Leap Into The Future Of Chemistry


 Q-Chem 6.0 (devel), Q-Chem, Inc., Pleasanton, CA (2022)

 E. Epifanovsky,  A. T. B. Gilbert,  Xintian Feng,  Joonho Lee,  Yuezhi Mao,  
 N. Mardirossian,  P. Pokhilko,  A. White,  M. Wormit,  M. P. Coons,  
 A. L. Dempwolff,  Zhengting Gan,  D. Hait,  P. R. Horn,  L. D. Jacobson,  
 I. Kaliman,  J. Kussmann,  A. W. Lange,  Ka Un Lao,  D. S. Levine,  Jie Liu,  
 S. C. McKenzie,  A. F. Morrison,  K. Nanda,  F. Plasser,  D. R. Rehn,  
 M. L. Vidal,  Zhi-Qiang You,  Ying Zhu,  B. Alam,  B. Albrecht,  
 A. Aldossary,  E. Alguire,  J. H. Andersen,  V. Athavale,  D. Barton,  
 K. Begam,  A. Behn,  N. Bellonzi,  Y. A. Bernard,  E. J. Berquist,  
 H. Burton,  A. Carreras,  K. Carter-Fenk,  Romit Chakraborty,  
 Chandrima Chakravarty,  Junhan Chen,  A. D. Chien,  K. D. Closser,  
 V. Cofer-Shabica,  L. Cunha,  S. Dasgupta,  Jia Deng,  M. de Wergifosse,  
 M. Diedenhofen,  Hainam Do,  S. Ehlert,  Po-Tung Fang,  S. Fatehi,  
 Qingguo Feng,  T. Friedhoff,  B. Ganoe,  J. Gayvert,  Qinghui Ge,  
 G. Gidofalvi,  M. Goldey,  J. Gomes,  C. Gonzalez-Espinoza,  S. Gulania,  
 A. Gunina,  J. A. Gyamfi,  M. W. D. Hanson-Heine,  P. H. P. Harbach,  
 A. W. Hauser,  M. F. Herbst,  M. Hernandez Vera,  M. Hodecker,  
 Z. C. Holden,  S. Houck,  Xunkun Huang,  Kerwin Hui,  B. C. Huynh,  
 K. Ikeda,  M. Ivanov,  Hyunjun Ji,  Zuxin Jin,  Hanjie Jiang,  B. Kaduk,  
 S. Kaehler,  R. Kang,  K. Khistyaev,  Jaehoon Kim,  Yongbin Kim,  
 P. Klunzinger,  Z. Koczor-Benda,  Joong Hoon Koh,  D. Kosenkov,  
 Saikiran Kotaru,  L. Koulias,  T. Kowalczyk,  C. M. Krauter,  K. Kue,  
 A. Kunitsa,  T. Kus,  A. Landau,  K. V. Lawler,  D. Lefrancois,  S. Lehtola,  
 Rain Li,  Shaozhi Li,  Yi-Pei Li,  Jiashu Liang,  M. Liebenthal,  
 Hung-Hsuan Lin,  You-Sheng Lin,  Fenglai Liu,  Kuan-Yu Liu,  
 M. Loipersberger,  A. Luenser,  C. Malbon,  A. Manjanath,  P. Manohar,  
 E. Mansoor,  S. F. Manzer,  Shan-Ping Mao,  A. V. Marenich,  T. Markovich,  
 S. Mason,  F. Matz,  S. A. Maurer,  P. F. McLaughlin,  M. F. S. J. Menger,  
 J.-M. Mewes,  S. A. Mewes,  P. Morgante,  Mohammad Mostafanejad,  
 J. W. Mullinax,  K. J. Oosterbaan,  G. Paran,  V. Parravicini,  
 Alexander C. Paul,  Suranjan K. Paul,  F. Pavosevic,  Zheng Pei,  S. Prager,  
 E. I. Proynov,  E. Ramos,  B. Rana,  A. E. Rask,  A. Rettig,  R. M. Richard,  
 F. Rob,  E. Rossomme,  T. Scheele,  M. Scheurer,  M. Schneider,  
 P. E. Schneider,  N. Sergueev,  S. M. Sharada,  Hengyuan Shen,  
 W. Skomorowski,  D. W. Small,  C. J. Stein,  Yingli Su,  Yu-Chuan Su,  
 E. J. Sundstrom,  Zhen Tao,  J. Thirman,  Hung-Yi Tsai,  T. Tsuchimochi,  
 N. M. Tubman,  C. Utku,  S. P. Veccham,  O. Vydrov,  J. Wenzel,  
 Jonathan Wong,  J. Witte,  A. Yamada,  Chou-Hsun Yang,  Kun Yao,  
 S. Yeganeh,  S. R. Yost,  A. Zech,  F. Zeller,  Igor Ying Zhang,  
 Xing Zhang,  Yu Zhang,  D. Zuev,  A. Aspuru-Guzik,  A. T. Bell,  
 N. A. Besley,  K. B. Bravaya,  B. R. Brooks,  D. Casanova,  Jeng-Da Chai,  
 Hsing-Ta Chen,  S. Coriani,  C. J. Cramer,  A. E. DePrince, III,  
 R. A. DiStasio Jr.,  A. Dreuw,  B. D. Dunietz,  T. R. Furlani,  
 W. A. Goddard III,  S. Grimme,  S. Hammes-Schiffer,  T. Head-Gordon,  
 W. J. Hehre,  Chao-Ping Hsu,  T.-C. Jagau,  Yousung Jung,  A. Klamt,  
 Jing Kong,  D. S. Lambrecht,  Xiangyuan Li,  WanZhen Liang,  N. J. Mayhall,  
 C. W. McCurdy,  J. B. Neaton,  T. Neudecker,  C. Ochsenfeld,  
 J. A. Parkhill,  R. Peverati,  V. A. Rassolov,  Haisheng Ren,  Yihan Shao,  
 L. V. Slipchenko,  R. P. Steele,  J. E. Subotnik,  A. J. W. Thom,  
 A. Tkatchenko,  D. G. Truhlar,  T. Van Voorhis,  Fan Wang,  
 T. A. Wesolowski,  K. B. Whaley,  H. L. Woodcock III,  P. M. Zimmerman,  
 S. Faraji,  P. M. W. Gill,  M. Head-Gordon,  J. M. Herbert,  A. I. Krylov

 Contributors to earlier versions of Q-Chem not listed above: 
 R. D. Adamson,  B. Austin,  R. Baer,  J. Baker,  G. J. O. Beran,  
 K. Brandhorst,  S. T. Brown,  E. F. C. Byrd,  Arup K. Chakraborty,  
 G. K. L. Chan,  Chun-Min Chang,  Yunqing Chen,  C.-L. Cheng,  
 Siu Hung Chien,  D. M. Chipman,  D. L. Crittenden,  H. Dachsel,  
 R. J. Doerksen,  A. D. Dutoi,  R. G. Edgar,  J. Fosso-Tande,  
 L. Fusti-Molnar,  D. Ghosh,  A. Ghysels,  A. Golubeva-Zadorozhnaya,  
 J. Gonthier,  M. S. Gordon,  S. R. Gwaltney,  G. Hawkins,  J. E. Herr,  
 A. Heyden,  S. Hirata,  E. G. Hohenstein,  G. Kedziora,  F. J. Keil,  
 C. Kelley,  Jihan Kim,  R. A. King,  R. Z. Khaliullin,  P. P. Korambath,  
 W. Kurlancheek,  A. Laurent,  A. M. Lee,  M. S. Lee,  S. V. Levchenko,  
 Ching Yeh Lin,  D. Liotard,  E. Livshits,  R. C. Lochan,  I. Lotan,  
 L. A. Martinez-Martinez,  P. E. Maslen,  N. Nair,  D. P. O'Neill,  
 D. Neuhauser,  E. Neuscamman,  C. M. Oana,  R. Olivares-Amaya,  R. Olson,  
 T. M. Perrine,  B. Peters,  P. A. Pieniazek,  A. Prociuk,  Y. M. Rhee,  
 J. Ritchie,  M. A. Rohrdanz,  E. Rosta,  N. J. Russ,  H. F. Schaefer III,  
 M. W. Schmidt,  N. E. Schultz,  S. Sharma,  N. Shenvi,  C. D. Sherrill,  
 A. C. Simmonett,  A. Sodt,  T. Stein,  D. Stuck,  K. S. Thanthiriwatte,  
 V. Vanovschi,  L. Vogt,  Tao Wang,  A. Warshel,  M. A. Watson,  
 C. F. Williams,  Q. Wu,  X. Xu,  Jun Yang,  W. Zhang,  Yan Zhao

   Please cite Q-Chem as follows:
  "Software for the frontiers of quantum chemistry:
   An overview of developments in the Q-Chem 5 package"
   J. Chem. Phys. 155, 084801 (2021)
   https://doi.org/10.1063/5.0055522 (open access)

 Q-Chem 6.0.1 for Intel X86 EM64T Linux

 Parts of Q-Chem use Armadillo 9.900.5 (Nocturnal Misbehaviour).
 http://arma.sourceforge.net/

 Q-Chem begins on Mon Jul 24 08:48:44 2023  

 Host: atlas-171
0

     Scratch files written to ./qchem358330//
 Processing $rem in /scratch/abel/SOFTWARE/qchem/config/preferences:
 Processing $rem in /dipc/acebg/.qchemrc:

 Checking the input file for inconsistencies... 	...done.

--------------------------------------------------------------
User input:
--------------------------------------------------------------
$comment
 RAS-SF CALCULATION
$end

$molecule
 READ benzophenone.molecule
$end

$rem
!**CALCULATION TYPE***     
JOBTYPE            sp    
EXCHANGE           HF
CORRELATION        RASCI    !RASCI=Casanova; RASCI2=Zimmerman
BASIS              def2-TZVP
BASIS2             STO-3G

!***SCF REFERENCE***
!SKIP_SCFMAN        FALSE
UNRESTRICTED       FALSE
!SCF_GUESS          core
!SCF_GUESS_MIX      FALSE
!SCF_GUESS_ALWAYS   FALSE
MAX_SCF_CYCLES     500
!SCF_CONVERGENCE    8
!SCF_ALGORITHM      DIIS !DIIS,DM,DIIS_DM,GDM,DIIS_GDM,GD

!SYMMETRY           TRUE !use of symmetry for calculating integrals
!SYM_IGNORE         FALSE !turn off using symmetry
!SYM_TOL            5 !tolerance for determining point group

!THRESH             14
SCF_FINAL_PRINT     1 !0,1,2,3

!****RAS-SF****
RAS_ROOTS          20       !number of RAS-CI roots to be computed
SET_ITER           150     !number of iterations in RASCI
RAS_ELEC           6       !number of electrons in RAS2
RAS_ELEC_ALPHA     4       !spin-α electrons in RAS2 
RAS_ELEC_BETA      2      !spin-β electrons in RAS2

RAS_ACT            13       !number of orbitals in RAS2 
RAS_ACT_ORB   [29,30,48,49,54,55,56,57,63,64,65,66,67]  !user-selected RAS2 orbitals
RAS_OCC            45       !number of orbitals in RAS1
N_FROZEN_CORE      35     !Number of frozen core orbitals
N_FROZEN_VIRTUAL   426      !Number of frozen virtual orbitals

RAS_DO_HOLE        TRUE   !presence of hole excitations in RAS-CI wave function
RAS_DO_PART        TRUE   !presence of particle excitations
!RAS_AMPL_PRINT     10     !threshold (×10 2 ) for the CI amplitudes

!RAS_GUESS_CS       0      !number of closed shell guess conﬁgurations
!RAS_SPIN_MULT      0      !spin multiplicity: 0=any, 2n+1=defined 
!RAS_SRDFT          FALSE  !short-range density functional RAS-CI
!RAS_NFRAG          0     !fragments of excitation analysis in RASCI

RAS_PRINT          2      !level of information
RAS_NATORB         TRUE   !computation of the natural orbital occupancies
!RAS_NATORB_STATE  0      !Saves NO of i RAS computed state in .fchk ﬁle
!RAS_FOD            TRUE

!****RAS-SOC****
CALC_SOC           TRUE   !calculate SOC for EOM-CC, RAS-CI, ADC, TDDFT/TDA and TDDFT
!RAS_SOC_2E        TRUE   !two-electron mean-ﬁeld contribution, default=true
RAS_SOC_SYM_DENS   TRUE   !averaging of α and β densities

!****MEMORY****
MEM_TOTAL          60000 !Default 2000 MB
MEM_STATIC         16000  !Default 64 MB

!**Molecular Properties and Analysis **                                                                                          
!GUI                2
STATE_ANALYSIS     TRUE
MOLDEN_FORMAT      TRUE
PRINT_ORBITALS     20
$end                                           

--------------------------------------------------------------
 ----------------------------------------------------------------
             Standard Nuclear Orientation (Angstroms)
    I     Atom           X                Y                Z
 ----------------------------------------------------------------
    1      C       0.0000000000     0.0000000000     1.7616000772
    2      O       0.0000000000     0.0000000000     4.2626453788
    3      C      -2.4515146503    -0.0331342717     0.5854026033
    4      C       2.4515146503     0.0331342717     0.5854026033
    5      C       2.8430013288     1.0880866231    -1.8463666677
    6      C       4.5970400963    -0.8671930082     1.9264083375
    7      C       6.9748613791    -0.7928839619     0.8403562343
    8      C       5.2262074578     1.1225172668    -2.9109015756
    9      C       7.3157580598     0.1834271136    -1.5850434514
   10      H       1.2649900922     1.9042492020    -2.8578536668
   11      H       4.3392930822    -1.6659511958     3.7896568207
   12      H       5.4817259580     1.9198549006    -4.7799236178
   13      H       8.5807201718    -1.5192143035     1.8831820792
   14      H       9.1788078092     0.2325165625    -2.4295762444
   15      C      -2.8430013288    -1.0880866231    -1.8463666677
   16      C      -4.5970400963     0.8671930082     1.9264083375
   17      C      -5.2262074578    -1.1225172668    -2.9109015756
   18      C      -6.9748613791     0.7928839619     0.8403562343
   19      C      -7.3157580598    -0.1834271136    -1.5850434514
   20      H      -1.2649900922    -1.9042492020    -2.8578536668
   21      H      -5.4817259580    -1.9198549006    -4.7799236178
   22      H      -4.3392930822     1.6659511958     3.7896568207
   23      H      -8.5807201718     1.5192143035     1.8831820792
   24      H      -9.1788078092    -0.2325165625    -2.4295762444
 ----------------------------------------------------------------
 Molecular Point Group                 C2    NOp =  2
 Largest Abelian Subgroup              C2    NOp =  2
 Nuclear Repulsion Energy =         408.75272024 hartrees
 There are       49 alpha and       47 beta electrons
 Requested basis set is def2-TZVP
 There are 194 shells and 494 basis functions

 Q-Chem warning in module libmdc/get_mega.C, line 167:

 Allowed MEM_STATIC has been capped at MEM_STATIC=8191.
 Reduce the value of MEM_STATIC to silence this warning.


 Total QAlloc Memory Limit  60000 MB
 Mega-Array Size      8007 MB
 MEM_STATIC part      8191 MB

 A cutoff of  1.0D-09 yielded   7158 shell pairs
 There are     45264 function pairs (     57896 Cartesian)
 Smallest overlap matrix eigenvalue = 4.95E-03

 Scale SEOQF with 1.000000e-02/1.000000e-01/1.000000e-01

 Standard Electronic Orientation quadrupole field applied
 Nucleus-field energy     =    -0.0000000403 hartrees
 Requested basis set is STO-3G
 There are 38 shells and 80 basis functions
 A cutoff of  1.0D-09 yielded    272 shell pairs
 There are      1577 function pairs
 Smallest overlap matrix eigenvalue = 6.90E-01
 Constructing guess Fock matrix from core Hamiltonian
 Applying Wolfsberg-Helmholtz approximation
 A restricted Hartree-Fock SCF calculation will be
 performed using Geometric Direct Minimization
 SCF converges when RMS gradient is below 1.0E-04
 ---------------------------------------
  Cycle       Energy        RMS Gradient
 ---------------------------------------
    1    -529.5564225101      2.73E+00 Descent step
    2    -531.9314252230      2.11E+00 Descent step
    3    -534.1417306050      2.71E-01 Line search: understep
    4    -543.9693062446      6.21E-01 Descent step
    5    -545.0069096518      8.28E-01 Line search: understep
    6    -551.3011723370      2.73E+00 Descent step
    7    -552.7128130623      1.01E+00 Descent step
    8    -553.8343995623      1.17E+00 Descent step
    9    -554.8631362528      9.09E-01 Descent step
   10    -555.7747935750      5.80E-01 Descent step
   11    -556.5240901112      4.21E-01 Descent step
   12    -557.1679642617      5.39E-01 Descent step
   13    -557.7419170851      4.13E-01 Descent step
   14    -558.2043331980      3.54E-01 Descent step
   15    -558.5877639058      3.12E-01 Descent step
   16    -558.9003408881      2.45E-01 Descent step
   17    -559.1695599593      3.40E-01 Descent step
   18    -559.4123827538      2.18E-01 Descent step
   19    -559.5944659041      1.19E-01 Descent step
   20    -559.7169928539      6.04E-02 Dog-leg BFGS step
   21    -559.7912738088      1.66E-01 Dog-leg BFGS step
   22    -559.7565424019      1.25E-01 Line search: overstep
   23    -559.8106806813      1.56E-01 Descent step
   24    -559.8253570810      1.50E-01 Dog-leg BFGS step
   25    -559.8228262216      1.11E-01 Line search: overstep
   26    -559.8471591558      1.75E-01 Descent step
   27    -559.8613289122      1.27E-01 Dog-leg BFGS step
   28    -559.8813348252      3.36E-01 Descent step
   29    -559.8457379169      1.03E-01 Line search: overstep
   30    -559.9155914169      5.20E-02 Descent step
   31    -559.9292582017      6.89E-02 Dog-leg BFGS step
   32    -559.9631411743      1.44E-01 Dog-leg BFGS step
   33    -559.9276942482      4.53E-02 Line search: overstep
   34    -559.9804213987      6.48E-02 Descent step
   35    -559.9876943328      1.17E-01 Dog-leg BFGS step
   36    -559.9907000140      3.48E-01 Descent step
   37    -559.9424381647      1.28E-01 Line search: overstep
   38    -560.0251241819      5.32E-02 Descent step
   39    -560.0344852015      9.94E-02 Dog-leg BFGS step
   40    -560.0558637183      2.19E-01 Dog-leg BFGS step
   41    -559.9748095538      1.48E-01 Line search: overstep
   42    -560.0708408436      5.95E-02 Descent step
   43    -560.0780317568      1.35E-01 Dog-leg BFGS step
   44    -560.0825355244      3.54E-01 Descent step
   45    -560.0229726619      1.40E-01 Line search: overstep
   46    -560.1130904476      4.90E-02 Descent step
   47    -560.1209332116      1.08E-01 Dog-leg BFGS step
   48    -560.1328389057      2.82E-01 Descent step
   49    -560.0401575394      5.30E-02 Line search: overstep
   50    -560.1503925428      3.99E-02 Dog-leg BFGS step
   51    -560.1553457669      1.21E-01 Descent step
   52    -560.1546292777      3.98E-02 Line search: overstep
   53    -560.1599841286      3.05E-02 Dog-leg BFGS step
   54    -560.1647677644      1.04E-01 Descent step
   55    -560.1605818228      5.04E-02 Line search: overstep
   56    -560.1682337786      2.34E-02 Dog-leg BFGS step
   57    -560.1732923324      7.02E-02 Descent step
   58    -560.1661330468      5.33E-02 Line search: overstep
   59    -560.1752474589      2.27E-02 Dog-leg BFGS step
   60    -560.1792421616      6.81E-02 Dog-leg BFGS step
   61    -560.1715236824      9.06E-03 Line search: overstep
   62    -560.1809461570      1.89E-02 Descent step
   63    -560.1819689965      3.86E-02 Dog-leg BFGS step
   64    -560.1887374148      2.43E-02 Normal BFGS step
   65    -560.1900321486      1.31E-02 Normal BFGS step
   66    -560.1902963471      2.54E-02 Normal BFGS step
   67    -560.1908374305      9.91E-03 Normal BFGS step
   68    -560.1911225524      1.37E-02 Normal BFGS step
   69    -560.1914953274      1.35E-02 Normal BFGS step
   70    -560.1920663508      1.32E-02 Normal BFGS step
   71    -560.1928988473      9.62E-03 Normal BFGS step
   72    -560.1941973697      2.70E-02 Normal BFGS step
   73    -560.1952314155      2.69E-02 Normal BFGS step
   74    -560.1959825483      9.61E-03 Normal BFGS step
   75    -560.1964680075      7.93E-03 Normal BFGS step
   76    -560.1968471295      7.68E-03 Normal BFGS step
   77    -560.1972980425      5.74E-03 Normal BFGS step
   78    -560.1974466761      5.77E-03 Normal BFGS step
   79    -560.1975514011      2.94E-03 Normal BFGS step
   80    -560.1976381281      2.72E-03 Normal BFGS step
   81    -560.1977182573      2.14E-03 Normal BFGS step
   82    -560.1977630394      2.89E-03 Normal BFGS step
   83    -560.1978293344      2.94E-03 Normal BFGS step
   84    -560.1979523779      1.14E-02 Normal BFGS step
   85    -560.1980591458      1.15E-02 Normal BFGS step
   86    -560.1982056626      3.98E-03 Normal BFGS step
   87    -560.1984082181      5.68E-03 Normal BFGS step
   88    -560.1985406262      1.24E-02 Normal BFGS step
   89    -560.1986909515      5.21E-03 Normal BFGS step
   90    -560.1988179761      4.73E-03 Normal BFGS step
   91    -560.1988829613      1.15E-02 Normal BFGS step
   92    -560.1989548729      7.46E-03 Normal BFGS step
   93    -560.1990799801      4.29E-03 Normal BFGS step
   94    -560.1991987339      4.28E-03 Normal BFGS step
   95    -560.1993178819      5.69E-03 Normal BFGS step
   96    -560.1994182028      3.72E-03 Normal BFGS step
   97    -560.1995580398      4.37E-03 Normal BFGS step
   98    -560.1997359072      6.32E-03 Normal BFGS step
   99    -560.1999828015      1.04E-02 Normal BFGS step
  100    -560.2002111990      6.77E-03 Normal BFGS step
  101    -560.2003923360      9.54E-03 Normal BFGS step
  102    -560.2004495932      1.30E-02 Normal BFGS step
  103    -560.2007149288      5.40E-03 Normal BFGS step
  104    -560.2007802844      5.98E-03 Normal BFGS step
  105    -560.2008429214      5.77E-03 Normal BFGS step
  106    -560.2008503596      5.32E-03 Normal BFGS step
  107    -560.2008865720      1.91E-03 Normal BFGS step
  108    -560.2008930333      2.06E-03 Normal BFGS step
  109    -560.2009011987      1.11E-03 Normal BFGS step
  110    -560.2009043883      1.57E-03 Normal BFGS step
  111    -560.2009085058      1.15E-03 Normal BFGS step
  112    -560.2009094669      9.59E-04 Normal BFGS step
  113    -560.2009104953      7.59E-04 Normal BFGS step
  114    -560.2009109334      4.58E-04 Normal BFGS step
  115    -560.2009113207      1.48E-04 Normal BFGS step
  116    -560.2009114382      1.74E-04 Normal BFGS step
  117    -560.2009115398      1.74E-04 Normal BFGS step
  118    -560.2009115849      1.41E-04 Normal BFGS step
  119    -560.2009116135      9.89E-05 Convergence criterion met
 ---------------------------------------
 One-Electron    Energy = -1581.2593163476
 Total Coulomb   Energy =   689.1670083157
 Alpha Exchange  Energy =   -38.9333299493
 Beta  Exchange  Energy =   -37.9279938328
 DFT   Exchange  Energy =     0.0000000000
 DFT Correlation Energy =     0.0000000000
 Nuclear Repu.   Energy =   408.7527202005
 Nuclear Attr.   Energy = -2150.3310758995
 Kinetic         Energy =   569.0717595518
 SCF time:  CPU 20.64 s  wall 58.24 s

 Q-Chem warning in module 0, line  204:

 Quadrupole field failed to resolve orbital degeneracies.


 Q-Chem warning in module 0, line  204:

 Quadrupole field failed to resolve orbital degeneracies.

 SCF   energy in the small basis set = -560.20091161
 Total energy in the small basis set = -560.20091161
 ----------------------------------------------------
  Cycle       Energy    
 ----------------------------------------------------
    1     -69.1485292725     -6.91E+01
 A restricted Hartree-Fock SCF calculation will be
 performed using Geometric Direct Minimization
 SCF converges when RMS gradient is below 1.0E-05
 ---------------------------------------
  Cycle       Energy        RMS Gradient
 ---------------------------------------
    1    -565.1876023861      9.00E-01 Descent step
    2    -566.2017886090      1.01E+00 Descent step
    3    -567.0320193571      4.32E-01 Descent step
    4    -567.4003280193      2.35E-01 Descent step
    5    -567.5992289199      1.76E-01 Descent step
    6    -567.7222159927      2.79E-01 Descent step
    7    -567.8050976028      2.47E-01 Descent step
    8    -567.8327013896      3.44E-01 Descent step
    9    -567.9168252320      1.99E-01 Descent step
   10    -567.9464888941      3.80E-01 Descent step
   11    -568.0256754467      2.47E-01 Descent step
   12    -568.0816997597      3.12E-01 Descent step
   13    -568.1457013582      2.50E-01 Descent step
   14    -568.1806899343      5.70E-01 Descent step
   15    -568.1960444946      6.04E-01 Descent step
   16    -568.2249613470      5.31E-01 Descent step
   17    -568.2346155305      5.41E-01 Descent step
   18    -568.2535613557      4.93E-01 Descent step
   19    -568.2553505207      5.34E-01 Descent step
   20    -568.2686087864      4.98E-01 Descent step
   21    -568.2659178927      3.20E-03 Line search: overstep
   22    -568.3334405202      2.89E-02 Descent step
   23    -568.3428745270      5.81E-02 Normal BFGS step
   24    -568.3384914052      1.23E-02 Line search: overstep
   25    -568.3475665624      7.50E-02 Descent step
   26    -568.3345303251      4.56E-03 Line search: overstep
   27    -568.3491609512      1.90E-02 Dog-leg BFGS step
   28    -568.3524963873      2.05E-02 Dog-leg BFGS step
   29    -568.3551324681      6.03E-02 Descent step
   30    -568.3471331214      8.09E-03 Line search: overstep
   31    -568.3570143423      2.14E-02 Dog-leg BFGS step
   32    -568.3612116137      6.37E-02 Descent step
   33    -568.3510292634      6.99E-03 Line search: overstep
   34    -568.3630239764      2.23E-02 Dog-leg BFGS step
   35    -568.3675347328      7.90E-02 Descent step
   36    -568.3579388629      6.47E-03 Line search: overstep
   37    -568.3701289734      2.68E-02 Dog-leg BFGS step
   38    -568.3751673891      8.98E-02 Descent step
   39    -568.3663406686      6.31E-03 Line search: overstep
   40    -568.3782467146      3.27E-02 Dog-leg BFGS step
   41    -568.3836518993      9.65E-02 Descent step
   42    -568.3762256708      6.50E-03 Line search: overstep
   43    -568.3871717805      3.71E-02 Dog-leg BFGS step
   44    -568.3927512263      9.78E-02 Descent step
   45    -568.3866270626      6.91E-03 Line search: overstep
   46    -568.3966535926      3.44E-02 Dog-leg BFGS step
   47    -568.4022314725      9.23E-02 Descent step
   48    -568.3968233901      7.55E-03 Line search: overstep
   49    -568.4064405729      3.41E-02 Dog-leg BFGS step
   50    -568.4119494470      1.10E-01 Descent step
   51    -568.4065844251      8.40E-03 Line search: overstep
   52    -568.4163353150      3.38E-02 Dog-leg BFGS step
   53    -568.4218746316      1.20E-01 Descent step
   54    -568.4161032908      9.51E-03 Line search: overstep
   55    -568.4262263407      3.29E-02 Dog-leg BFGS step
   56    -568.4318666941      1.20E-01 Descent step
   57    -568.4255791885      1.10E-02 Line search: overstep
   58    -568.4360348519      3.14E-02 Dog-leg BFGS step
   59    -568.4416077247      1.21E-01 Descent step
   60    -568.4349320693      1.34E-02 Line search: overstep
   61    -568.4456624911      2.93E-02 Dog-leg BFGS step
   62    -568.4512443578      1.18E-01 Descent step
   63    -568.4440037302      1.58E-02 Line search: overstep
   64    -568.4550812447      2.68E-02 Dog-leg BFGS step
   65    -568.4605729038      1.16E-01 Descent step
   66    -568.4528714045      1.60E-02 Line search: overstep
   67    -568.4642619901      2.50E-02 Dog-leg BFGS step
   68    -568.4697394262      1.12E-01 Descent step
   69    -568.4615064556      1.51E-02 Line search: overstep
   70    -568.4732228698      2.49E-02 Dog-leg BFGS step
   71    -568.4786178936      1.10E-01 Descent step
   72    -568.4700039105      1.35E-02 Line search: overstep
   73    -568.4819759655      2.55E-02 Dog-leg BFGS step
   74    -568.4874143893      1.05E-01 Descent step
   75    -568.4784875593      1.14E-02 Line search: overstep
   76    -568.4905758808      2.57E-02 Dog-leg BFGS step
   77    -568.4959035730      1.06E-01 Descent step
   78    -568.4870177223      3.14E-03 Line search: overstep
   79    -568.4990347324      2.55E-02 Dog-leg BFGS step
   80    -568.5043697395      1.06E-01 Descent step
   81    -568.4953733095      1.35E-02 Line search: overstep
   82    -568.5073857684      2.63E-02 Dog-leg BFGS step
   83    -568.5126167642      1.09E-01 Descent step
   84    -568.5035625725      3.37E-03 Line search: overstep
   85    -568.5156101356      2.67E-02 Dog-leg BFGS step
   86    -568.5208402213      1.08E-01 Descent step
   87    -568.5115025058      4.02E-03 Line search: overstep
   88    -568.5237009926      2.66E-02 Dog-leg BFGS step
   89    -568.5288172115      1.09E-01 Descent step
   90    -568.5191815498      3.99E-03 Line search: overstep
   91    -568.5316027104      2.60E-02 Dog-leg BFGS step
   92    -568.5366800249      1.05E-01 Descent step
   93    -568.5264883347      3.83E-03 Line search: overstep
   94    -568.5392715178      2.49E-02 Dog-leg BFGS step
   95    -568.5441972284      1.03E-01 Descent step
   96    -568.5333891382      3.99E-03 Line search: overstep
   97    -568.5466296958      2.32E-02 Dog-leg BFGS step
   98    -568.5514449934      9.74E-02 Descent step
   99    -568.5397725703      7.49E-03 Line search: overstep
  100    -568.5536164666      2.12E-02 Dog-leg BFGS step
  101    -568.5582163070      9.24E-02 Descent step
  102    -568.5455942987      6.78E-03 Line search: overstep
  103    -568.5601547530      1.94E-02 Dog-leg BFGS step
  104    -568.5645473086      8.47E-02 Descent step
  105    -568.5507741612      5.89E-03 Line search: overstep
  106    -568.5661864678      1.80E-02 Dog-leg BFGS step
  107    -568.5702807475      7.77E-02 Descent step
  108    -568.5552660449      5.58E-03 Line search: overstep
  109    -568.5716518858      1.62E-02 Dog-leg BFGS step
  110    -568.5754305295      6.86E-02 Dog-leg BFGS step
  111    -568.5638830667      7.70E-03 Line search: overstep
  112    -568.5767069542      2.13E-02 Descent step
  113    -568.5772429265      6.57E-02 Dog-leg BFGS step
  114    -568.5807455042      1.75E-01 Dog-leg BFGS step
  115    -568.5880114560      5.71E-02 Normal BFGS step
  116    -568.5880031725      2.80E-02 Line search: overstep
  117    -568.5895741097      3.83E-02 Dog-leg BFGS step
  118    -568.5885313136      7.15E-02 Line search: overstep
  119    -568.5907185252      1.72E-02 Dog-leg BFGS step
  120    -568.5905296045      1.10E-02 Line search: overstep
  121    -568.5909738595      1.67E-02 Descent step
  122    -568.5911221778      1.72E-02 Normal BFGS step
  123    -568.5921019347      1.15E-02 Normal BFGS step
  124    -568.5926541601      4.73E-02 Normal BFGS step
  125    -568.5939884424      2.34E-02 Normal BFGS step
  126    -568.5942292154      3.42E-02 Normal BFGS step
  127    -568.5960506574      1.74E-02 Normal BFGS step
  128    -568.5968298869      6.50E-02 Normal BFGS step
  129    -568.6000922499      4.34E-02 Normal BFGS step
  130    -568.6010353852      4.82E-02 Normal BFGS step
  131    -568.6033988368      4.09E-02 Normal BFGS step
  132    -568.6040133537      5.56E-02 Normal BFGS step
  133    -568.6056539175      2.94E-02 Normal BFGS step
  134    -568.6065272581      3.25E-02 Normal BFGS step
  135    -568.6080390971      1.52E-02 Dog-leg BFGS step
  136    -568.6088096924      2.41E-02 Normal BFGS step
  137    -568.6107211776      1.57E-02 Normal BFGS step
  138    -568.6112226199      3.11E-02 Normal BFGS step
  139    -568.6124625843      2.09E-02 Normal BFGS step
  140    -568.6126657626      3.66E-02 Normal BFGS step
  141    -568.6132279316      2.76E-02 Normal BFGS step
  142    -568.6136333583      2.88E-02 Normal BFGS step
  143    -568.6142423080      2.14E-02 Normal BFGS step
  144    -568.6143691633      2.95E-02 Normal BFGS step
  145    -568.6148209577      2.48E-02 Normal BFGS step
  146    -568.6147691402      3.68E-03 Line search: overstep
  147    -568.6151544548      8.56E-03 Normal BFGS step
  148    -568.6152412253      1.43E-02 Normal BFGS step
  149    -568.6154876511      1.07E-02 Normal BFGS step
  150    -568.6155195042      1.30E-02 Normal BFGS step
  151    -568.6156259030      6.07E-03 Normal BFGS step
  152    -568.6155390043      1.21E-03 Line search: overstep
  153    -568.6156585076      2.60E-03 Normal BFGS step
  154    -568.6156622858      4.73E-03 Normal BFGS step
  155    -568.6156771876      3.02E-03 Normal BFGS step
  156    -568.6156720986      4.76E-04 Line search: overstep
  157    -568.6156846406      2.01E-03 Normal BFGS step
  158    -568.6156858671      3.55E-03 Normal BFGS step
  159    -568.6156888449      2.59E-03 Normal BFGS step
  160    -568.6156884078      2.58E-04 Line search: overstep
  161    -568.6156910929      8.88E-04 Normal BFGS step
  162    -568.6156920481      5.57E-04 Normal BFGS step
  163    -568.6156926594      8.31E-04 Normal BFGS step
  164    -568.6156930184      6.65E-04 Normal BFGS step
  165    -568.6156932540      5.91E-04 Normal BFGS step
  166    -568.6156935340      7.37E-04 Normal BFGS step
  167    -568.6156937237      6.76E-04 Normal BFGS step
  168    -568.6156937321      3.70E-04 Normal BFGS step
  169    -568.6156938438      2.56E-04 Normal BFGS step
  170    -568.6156938370      3.43E-05 Line search: overstep
  171    -568.6156939159      9.26E-05 Normal BFGS step
  172    -568.6156939280      1.39E-04 Normal BFGS step
  173    -568.6156939938      1.47E-04 Normal BFGS step
  174    -568.6156940308      1.55E-04 Normal BFGS step
  175    -568.6156940728      1.20E-04 Normal BFGS step
  176    -568.6156941064      8.85E-05 Normal BFGS step
  177    -568.6156942221      5.50E-05 Normal BFGS step
  178    -568.6156943539      8.31E-05 Normal BFGS step
  179    -568.6156942102      1.06E-06 Convergence criterion met
 ---------------------------------------
 One-Electron    Energy = -1577.6480492558
 Total Coulomb   Energy =   674.5504222190
 Alpha Exchange  Energy =   -37.5817157594
 Beta  Exchange  Energy =   -36.6890716144
 DFT   Exchange  Energy =     0.0000000000
 DFT Correlation Energy =     0.0000000000
 Nuclear Repu.   Energy =   408.7527202005
 Nuclear Attr.   Energy = -2141.8755343241
 Kinetic         Energy =   564.2274850683
 SCF time:  CPU 2299.17 s  wall 2395.78 s

 Q-Chem warning in module 0, line  204:

 Quadrupole field failed to resolve orbital degeneracies.


 Q-Chem warning in module 0, line  204:

 Quadrupole field failed to resolve orbital degeneracies.

 SCF   energy in the final basis set = -568.61569421
 Total energy in the final basis set = -568.61569421
  
     ##========================================##
     ||                                        ||
     ||              R A S M A N 2             ||
     ||________________________________________||
     ||                                        ||
     ||  Author:                               ||
     ||                                        ||
     ||        David Casanova (2010)           ||
     ||                                        ||
     ##========================================##
  
Setting single-point xc-functionals (if necessary)

  ***************************************************
  *  RAS-CI Dimensions:                             *
  *                                                 *
  *  Active Elec.:   6 ( 4, 2)   Active Orb.:  13   *
  *  Doubly Occ. :  45           Doubly Vir.: 436   *
  *  Frozen Occ. :  35           Frozen Vir.: 426   *
  *                                                 *
  *  Total CI configurations:   3420560             * 
  *    Active configurations:     55770             * 
  *      Hole configurations:   3048760             * 
  *  Particle configurations:    316030             * 
  *                                                 *
  *   Requested states:       20                    *
  *  Spin multiplicity: Any multiplicity            *
  *                                                 *
  ***************************************************
-----------------------------------------
    Memory requirements of RASCI

 Each CI-vector requires     26.10 MiB 
 Max. subspace vectors           3000      

 Reduced Lists                0.02 MiB 
 Excitation Lists             0.03 MiB 
 Excitation Lists Sign        0.03 MiB 
 CI-space (Max)           78881.03 MiB 
 Integrals                  522.21 MiB 
 Memory required (Max)    78881.10 MiB 
 Memory available          7811.55 MiB 

 Q-Chem warning in module rasman2/ras_mem_check.C, line 162:

 Static memory may be insufficient to store the subspace vectors


    Disk requirements of RASCI

 Fock matrix                  3.72 MiB 
 2-electron integrals         2.40 MiB 
 CI-space                156580.81 MiB 
 Disk required           156586.93 MiB 
-----------------------------------------
  
RAS1 HF-like energy:           -560.8036912527
 Computing integrals
 Computing J and K matrices
 Computing addressing
 Making amplitude guesses
 
Direct CI diagonalization
 ---------------------------------------------------
 Iter    Rts Conv    Rts Left    Ttl Dev     Max Dev
 ---------------------------------------------------
   1         0          20      0.000661    0.000036
   2         0          20      0.000933    0.000059
   3         0          20      0.000775    0.000083
   4         0          20      0.000570    0.000045
   5         0          20      0.000808    0.000062
   6         0          20      0.001079    0.000095
   7         0          20      0.001232    0.000124
   8         0          20      0.001209    0.000131
   9         0          20      0.000956    0.000073
  10         0          20      0.001215    0.000153
  11         0          20      0.001132    0.000117
  12         0          20      0.000926    0.000134
  13         0          20      0.000841    0.000107
  14         0          20      0.000828    0.000084
  15         0          20      0.000800    0.000124
  16         0          20      0.000637    0.000102
  17         0          20      0.000514    0.000083
  18         0          20      0.000656    0.000151
  19         0          20      0.000741    0.000114
  20         0          20      0.000522    0.000073
  21         0          20      0.000568    0.000132
  22         0          20      0.000488    0.000073
  23         0          20      0.000454    0.000085
  24         0          20      0.000417    0.000071
  25         1          19      0.000298    0.000058
  26         2          18      0.000270    0.000045
  27         2          18      0.000334    0.000082
  28         4          16      0.000277    0.000060
  29         4          16      0.000242    0.000038
  30         5          15      0.000269    0.000065
  31         5          15      0.000210    0.000054
  32         5          15      0.000171    0.000039
  33         8          12      0.000127    0.000029
  34        11           9      0.000104    0.000020
  35        13           7      0.000080    0.000016
  36        13           7      0.000060    0.000012
  37        13           7      0.000048    0.000010
  38        13           7      0.000038    0.000008
  39        12           8      0.000049    0.000018
  40        12           8      0.000039    0.000014
  41        12           8      0.000030    0.000011
  42        15           5      0.000024    0.000009
  43        15           5      0.000018    0.000006
  44        15           5      0.000015    0.000005
  45        17           3      0.000012    0.000004
  46        19           1      0.000011    0.000003
  47        19           1      0.000010    0.000002
  48        19           1      0.000009    0.000002
  49        19           1      0.000008    0.000001
  50        19           1      0.000008    0.000001
  51        20           0      0.000008    0.000001    Roots Converged
 ---------------------------------------------------
   
**************************************************
 RAS-CI total energy for state   1:   -568.615793314482
  Excitation energy (eV) =  0.000000000000
 Warning : Irrep of orbital(   2) could not be determined
 Warning : Irrep of orbital(   3) could not be determined
 Warning : Irrep of orbital(   4) could not be determined
 Warning : Irrep of orbital(   5) could not be determined
 Warning : Irrep of orbital(   6) could not be determined
 Warning : Irrep of orbital(   7) could not be determined
 Warning : Irrep of orbital(   8) could not be determined
 Warning : Irrep of orbital(   9) could not be determined
 Warning : Irrep of orbital(  11) could not be determined
 Warning : Irrep of orbital(  12) could not be determined
 Warning : Irrep of orbital(  13) could not be determined
 Warning : Irrep of orbital(  14) could not be determined
 Warning : Irrep of orbital(   2) could not be determined
 Warning : Irrep of orbital(   3) could not be determined
 Warning : Irrep of orbital(   4) could not be determined
 Warning : Irrep of orbital(   5) could not be determined
 Warning : Irrep of orbital(   6) could not be determined
 Warning : Irrep of orbital(   7) could not be determined
 Warning : Irrep of orbital(   8) could not be determined
 Warning : Irrep of orbital(   9) could not be determined
 Warning : Irrep of orbital(  11) could not be determined
 Warning : Irrep of orbital(  12) could not be determined
 Warning : Irrep of orbital(  13) could not be determined
 Warning : Irrep of orbital(  14) could not be determined
  State symmetry: B     (C2       )
  <S^2>      :  2.0000
  Dipole Moment:   -0.0001 X    -0.0000 Y     0.1658 Z
 NATURAL OCCUPATION NUMBERS (higher than 1.0E-05)
            1           2           3           4           5           6
    1   2.0000000   2.0000000   2.0000000   2.0000000   2.0000000   2.0000000
            7           8           9          10          11          12
    1   2.0000000   2.0000000   2.0000000   2.0000000   2.0000000   2.0000000
           13          14          15          16          17          18
    1   2.0000000   2.0000000   2.0000000   2.0000000   2.0000000   2.0000000
           19          20          21          22          23          24
    1   2.0000000   2.0000000   2.0000000   2.0000000   2.0000000   2.0000000
           25          26          27          28          29          30
    1   2.0000000   2.0000000   2.0000000   2.0000000   2.0000000   2.0000000
           31          32          33          34          35          36
    1   2.0000000   2.0000000   2.0000000   2.0000000   2.0000000   1.9999987
           37          38          39          40          41          42
    1   1.9999985   1.9999955   1.9999937   1.9999924   1.9999879   1.9999872
           43          44          45          46          47          48
    1   1.9999782   1.9996948   1.9996922   1.9994063   1.9993986   0.9999453
           49          50          51          52          53          54
    1   0.9999452   0.0006333   0.0006311   0.0003043   0.0002945   0.0000328
           55          56          57
    1   0.0000310   0.0000277   0.0000135
 Created directory ./qchem358330/plots

  Amplitudes : 
  
 | HOLE  | ALPHA         | BETA          | PART  |    AMPLITUDE 
--------------------------------------------------
 |       | 1111000000000 | 1100000000000 |       |     9.9904933997091E-01
--------------------------------------------------
*** Contributions RASCI wfn    Active:  99.81
                                 Hole:   0.19
                                 Part:   0.00

      Mulliken population analysis 
 ---------------------------------------------------
   Atom    Charge (a.u.)   Spin (a.u.)  
 ---------------------------------------------------
   1  C    0.100244       -0.000039 
   2  O   -0.125684       -0.000005 
   3  C   -0.047436       -0.000329 
   4  C   -0.047431       -0.000324 
   5  C   -0.028546       -0.002465 
   6  C   -0.025080       -0.002766 
   7  C   -0.010837        0.007102 
   8  C    0.003338        0.006122 
   9  C    0.039056        0.992241 
  10  H    0.047406        0.000089 
  11  H    0.066776       -0.000021 
  12  H    0.042481       -0.000108 
  13  H    0.035870       -0.000400 
  14  H   -0.110308        0.000554 
  15  C   -0.028545       -0.002465 
  16  C   -0.025076       -0.002768 
  17  C    0.003334        0.006122 
  18  C   -0.010838        0.007102 
  19  C    0.039052        0.992244 
  20  H    0.047405        0.000090 
  21  H    0.042480       -0.000108 
  22  H    0.066775       -0.000021 
  23  H    0.035870       -0.000401 
  24  H   -0.110306        0.000555 
 ---------------------------------------------------
   Sum:   -0.000000        2.000000 
 ---------------------------------------------------
 
  
 NATURAL OCCUPATION NUMBERS (higher than 1.0E-05)
            1           2           3           4           5           6
    1   2.0000000   2.0000000   2.0000000   2.0000000   2.0000000   2.0000000
            7           8           9          10          11          12
    1   2.0000000   2.0000000   2.0000000   2.0000000   2.0000000   2.0000000
           13          14          15          16          17          18
    1   2.0000000   2.0000000   2.0000000   2.0000000   2.0000000   2.0000000
           19          20          21          22          23          24
    1   2.0000000   2.0000000   2.0000000   2.0000000   2.0000000   2.0000000
           25          26          27          28          29          30
    1   2.0000000   2.0000000   2.0000000   2.0000000   2.0000000   2.0000000
           31          32          33          34          35          36
    1   2.0000000   2.0000000   2.0000000   2.0000000   2.0000000   1.9999987
           37          38          39          40          41          42
    1   1.9999985   1.9999955   1.9999937   1.9999924   1.9999879   1.9999872
           43          44          45          46          47          48
    1   1.9999782   1.9996948   1.9996922   1.9994063   1.9993986   0.9999453
           49          50          51          52          53          54
    1   0.9999452   0.0006333   0.0006311   0.0003043   0.0002945   0.0000328
           55          56          57
    1   0.0000310   0.0000277   0.0000135
  
*** Unpaired Electrons
 Yamaguchi Nd:         2.01
 Head-Gordon Nu:       2.00
 Head-Gordon Nu_nl:    2.00
  
**************************************************
 RAS-CI total energy for state   2:   -568.598661718412
  Excitation energy (eV) =  0.466174447295
  State symmetry: B     (C2       )
  <S^2>      :  2.0000
  Dipole Moment:    0.0050 X     0.0000 Y     0.0201 Z
  Trans. Moment:    0.0000 X    -0.0000 Y    -0.0007 Z
  Strength   :  0.000000
  Natural transition orbitals ( 1 -> 2 ):
   e-/hole pair  1 alpha:  ampl =  0.201073 (  4.0%)   [13 : 14]
   e-/hole pair  2 alpha:  ampl =  0.198997 (  4.0%)   [12 : 15]
   e-/hole pair  1 beta :  ampl =  0.200950 (  4.0%)   [13 : 14]
   e-/hole pair  2 beta :  ampl =  0.198881 (  4.0%)   [12 : 15]
   Sum of square amplitudes: 0.17

 NATURAL OCCUPATION NUMBERS (higher than 1.0E-05)
            1           2           3           4           5           6
    1   2.0000000   2.0000000   2.0000000   2.0000000   2.0000000   2.0000000
            7           8           9          10          11          12
    1   2.0000000   2.0000000   2.0000000   2.0000000   2.0000000   2.0000000
           13          14          15          16          17          18
    1   2.0000000   2.0000000   2.0000000   2.0000000   2.0000000   2.0000000
           19          20          21          22          23          24
    1   2.0000000   2.0000000   2.0000000   2.0000000   2.0000000   2.0000000
           25          26          27          28          29          30
    1   2.0000000   2.0000000   2.0000000   2.0000000   2.0000000   2.0000000
           31          32          33          34          35          36
    1   2.0000000   2.0000000   2.0000000   2.0000000   2.0000000   1.9999998
           37          38          39          40          41          42
    1   1.9999980   1.9999974   1.9999933   1.9999908   1.9999882   1.9988307
           43          44          45          46          47          48
    1   1.9988064   1.9865086   1.9856398   1.5201331   1.5101070   0.9999544
           49          50          51          52          53          54
    1   0.9999158   0.4896984   0.4800309   0.0141759   0.0137988   0.0012033
           55          56          57
    1   0.0011743   0.0000232   0.0000219

  Amplitudes : 
  
 | HOLE  | ALPHA         | BETA          | PART  |    AMPLITUDE 
--------------------------------------------------
 |  45   | 1111000100000 | 1100000000000 |       |    -1.0358728901122E-01
 |  45   | 1111000000000 | 1100000100000 |       |     1.0341161279118E-01
 |  40   | 1110100000000 | 1110000000000 |       |    -1.0784074349037E-01
 |  44   | 1110100000000 | 1110000000000 |       |     1.2409192202550E-01
 |  41   | 1110010000000 | 1110000000000 |       |    -1.2368623099024E-01
 |  45   | 1110010000000 | 1110000000000 |       |    -1.3649640431389E-01
 |  39   | 1110001000000 | 1110000000000 |       |     1.7360777829027E-01
 |  41   | 1110001000000 | 1110000000000 |       |     1.9011263794204E-01
 |  45   | 1110001000000 | 1110000000000 |       |     2.0126597929853E-01
 |  38   | 1110000100000 | 1110000000000 |       |     1.7693688922993E-01
 |  40   | 1110000100000 | 1110000000000 |       |    -1.8782827262699E-01
 |  42   | 1110000100000 | 1110000000000 |       |    -1.1056404318007E-01
 |  44   | 1110000100000 | 1110000000000 |       |     2.0396473883786E-01
 |  45   | 1110000100000 | 1101000000000 |       |     1.0354423215920E-01
 |  40   | 1101100000000 | 1101000000000 |       |     1.0783299262567E-01
 |  44   | 1101100000000 | 1101000000000 |       |    -1.2409156483574E-01
 |  41   | 1101010000000 | 1101000000000 |       |     1.2367358454882E-01
 |  45   | 1101010000000 | 1101000000000 |       |     1.3651903573741E-01
 |  39   | 1101001000000 | 1101000000000 |       |    -1.7362778317716E-01
 |  41   | 1101001000000 | 1101000000000 |       |    -1.9013378049483E-01
 |  45   | 1101001000000 | 1101000000000 |       |    -2.0124863099396E-01
 |  45   | 1101000100000 | 1110000000000 |       |    -1.0345466966319E-01
 |  38   | 1101000100000 | 1101000000000 |       |    -1.7693951592256E-01
 |  40   | 1101000100000 | 1101000000000 |       |     1.8784769264709E-01
 |  42   | 1101000100000 | 1101000000000 |       |     1.1057388036442E-01
 |  44   | 1101000100000 | 1101000000000 |       |    -2.0397890828779E-01
--------------------------------------------------
*** Contributions RASCI wfn    Active:   0.00
                                 Hole: 100.00
                                 Part:   0.00

      Mulliken population analysis 
 ---------------------------------------------------
   Atom    Charge (a.u.)   Spin (a.u.)  
 ---------------------------------------------------
   1  C    0.107203        0.006154 
   2  O   -0.125193        0.000516 
   3  C   -0.042535        0.007542 
   4  C   -0.042443        0.007686 
   5  C   -0.030404        0.008340 
   6  C    0.017043        0.334112 
   7  C   -0.076614        0.455631 
   8  C   -0.001369        0.006738 
   9  C    0.050207        0.180934 
  10  H    0.048268        0.001200 
  11  H    0.069451        0.002401 
  12  H    0.040995        0.001706 
  13  H    0.039828        0.007142 
  14  H   -0.106028        0.005591 
  15  C   -0.030355        0.008185 
  16  C    0.016233        0.327564 
  17  C   -0.001277        0.006579 
  18  C   -0.075327        0.446668 
  19  C    0.049985        0.167615 
  20  H    0.048258        0.001183 
  21  H    0.041028        0.001675 
  22  H    0.069401        0.002356 
  23  H    0.039754        0.007003 
  24  H   -0.106113        0.005481 
 ---------------------------------------------------
   Sum:   -0.000000        2.000000 
 ---------------------------------------------------
 
  
 NATURAL OCCUPATION NUMBERS (higher than 1.0E-05)
            1           2           3           4           5           6
    1   2.0000000   2.0000000   2.0000000   2.0000000   2.0000000   2.0000000
            7           8           9          10          11          12
    1   2.0000000   2.0000000   2.0000000   2.0000000   2.0000000   2.0000000
           13          14          15          16          17          18
    1   2.0000000   2.0000000   2.0000000   2.0000000   2.0000000   2.0000000
           19          20          21          22          23          24
    1   2.0000000   2.0000000   2.0000000   2.0000000   2.0000000   2.0000000
           25          26          27          28          29          30
    1   2.0000000   2.0000000   2.0000000   2.0000000   2.0000000   2.0000000
           31          32          33          34          35          36
    1   2.0000000   2.0000000   2.0000000   2.0000000   2.0000000   1.9999998
           37          38          39          40          41          42
    1   1.9999980   1.9999974   1.9999933   1.9999908   1.9999882   1.9988307
           43          44          45          46          47          48
    1   1.9988064   1.9865086   1.9856398   1.5201331   1.5101070   0.9999544
           49          50          51          52          53          54
    1   0.9999158   0.4896984   0.4800309   0.0141759   0.0137988   0.0012033
           55          56          57
    1   0.0011743   0.0000232   0.0000219
  
*** Unpaired Electrons
 Yamaguchi Nd:         5.06
 Head-Gordon Nu:       4.00
 Head-Gordon Nu_nl:    4.16
  
**************************************************
 RAS-CI total energy for state   3:   -568.598660284258
  Excitation energy (eV) =  0.466213472588
  State symmetry: A     (C2       )
  <S^2>      :  2.0000
  Dipole Moment:   -0.0051 X    -0.0000 Y     0.0200 Z
  Trans. Moment:   -0.0003 X    -0.0001 Y    -0.0000 Z
  Strength   :  0.000000
  Natural transition orbitals ( 1 -> 3 ):
   e-/hole pair  1 alpha:  ampl =  0.201920 (  4.1%)   [13 : 14]
   e-/hole pair  2 alpha:  ampl =  0.199855 (  4.0%)   [12 : 15]
   e-/hole pair  1 beta :  ampl =  0.202039 (  4.1%)   [13 : 14]
   e-/hole pair  2 beta :  ampl =  0.199974 (  4.0%)   [12 : 15]
   Sum of square amplitudes: 0.17

 NATURAL OCCUPATION NUMBERS (higher than 1.0E-05)
            1           2           3           4           5           6
    1   2.0000000   2.0000000   2.0000000   2.0000000   2.0000000   2.0000000
            7           8           9          10          11          12
    1   2.0000000   2.0000000   2.0000000   2.0000000   2.0000000   2.0000000
           13          14          15          16          17          18
    1   2.0000000   2.0000000   2.0000000   2.0000000   2.0000000   2.0000000
           19          20          21          22          23          24
    1   2.0000000   2.0000000   2.0000000   2.0000000   2.0000000   2.0000000
           25          26          27          28          29          30
    1   2.0000000   2.0000000   2.0000000   2.0000000   2.0000000   2.0000000
           31          32          33          34          35          36
    1   2.0000000   2.0000000   2.0000000   2.0000000   2.0000000   1.9999998
           37          38          39          40          41          42
    1   1.9999981   1.9999978   1.9999934   1.9999905   1.9999877   1.9988143
           43          44          45          46          47          48
    1   1.9987894   1.9865008   1.9856295   1.5201616   1.5101303   0.9999411
           49          50          51          52          53          54
    1   0.9999290   0.4896715   0.4800060   0.0141878   0.0138051   0.0012209
           55          56          57
    1   0.0011899   0.0000240   0.0000219

  Amplitudes : 
  
 | HOLE  | ALPHA         | BETA          | PART  |    AMPLITUDE 
--------------------------------------------------
 |  45   | 1111001000000 | 1100000000000 |       |    -1.0064466739904E-01
 |  44   | 1111000100000 | 1100000000000 |       |    -1.0180877286713E-01
 |  45   | 1111000000000 | 1100001000000 |       |     1.0056623195781E-01
 |  44   | 1111000000000 | 1100000100000 |       |     1.0197646431778E-01
 |  41   | 1110100000000 | 1110000000000 |       |     1.1392484218385E-01
 |  45   | 1110100000000 | 1110000000000 |       |     1.2643196382206E-01
 |  40   | 1110010000000 | 1110000000000 |       |     1.1681566751590E-01
 |  44   | 1110010000000 | 1110000000000 |       |    -1.3383627629914E-01
 |  38   | 1110001000000 | 1110000000000 |       |     1.7190216790099E-01
 |  40   | 1110001000000 | 1110000000000 |       |    -1.8148239251162E-01
 |  42   | 1110001000000 | 1110000000000 |       |    -1.0658615493335E-01
 |  44   | 1110001000000 | 1110000000000 |       |     1.9653959573622E-01
 |  45   | 1110001000000 | 1101000000000 |       |     1.0056028213995E-01
 |  39   | 1110000100000 | 1110000000000 |       |     1.7812759265162E-01
 |  41   | 1110000100000 | 1110000000000 |       |     1.9577379760881E-01
 |  45   | 1110000100000 | 1110000000000 |       |     2.0748519602387E-01
 |  44   | 1110000100000 | 1101000000000 |       |     1.0183466054363E-01
 |  41   | 1101100000000 | 1101000000000 |       |    -1.1391894392914E-01
 |  45   | 1101100000000 | 1101000000000 |       |    -1.2641043217426E-01
 |  40   | 1101010000000 | 1101000000000 |       |    -1.1680886333340E-01
 |  44   | 1101010000000 | 1101000000000 |       |     1.3383074221366E-01
 |  45   | 1101001000000 | 1110000000000 |       |    -1.0065061722117E-01
 |  38   | 1101001000000 | 1101000000000 |       |    -1.7191052525743E-01
 |  40   | 1101001000000 | 1101000000000 |       |     1.8148615895335E-01
 |  42   | 1101001000000 | 1101000000000 |       |     1.0661309881585E-01
 |  44   | 1101001000000 | 1101000000000 |       |    -1.9654508820302E-01
 |  44   | 1101000100000 | 1110000000000 |       |    -1.0195057664553E-01
 |  39   | 1101000100000 | 1101000000000 |       |    -1.7812050056923E-01
 |  41   | 1101000100000 | 1101000000000 |       |    -1.9576277912491E-01
 |  45   | 1101000100000 | 1101000000000 |       |    -2.0749747724096E-01
--------------------------------------------------
*** Contributions RASCI wfn    Active:   0.00
                                 Hole: 100.00
                                 Part:   0.00

      Mulliken population analysis 
 ---------------------------------------------------
   Atom    Charge (a.u.)   Spin (a.u.)  
 ---------------------------------------------------
   1  C    0.107210        0.006141 
   2  O   -0.125193        0.000516 
   3  C   -0.042446        0.007666 
   4  C   -0.042541        0.007519 
   5  C   -0.030354        0.008182 
   6  C    0.016244        0.326876 
   7  C   -0.075346        0.445795 
   8  C   -0.001275        0.006591 
   9  C    0.049989        0.169197 
  10  H    0.048259        0.001181 
  11  H    0.069403        0.002358 
  12  H    0.041025        0.001678 
  13  H    0.039759        0.007005 
  14  H   -0.106111        0.005475 
  15  C   -0.030401        0.008340 
  16  C    0.017067        0.333424 
  17  C   -0.001367        0.006754 
  18  C   -0.076647        0.454755 
  19  C    0.050208        0.182514 
  20  H    0.048269        0.001198 
  21  H    0.040992        0.001708 
  22  H    0.069452        0.002403 
  23  H    0.039830        0.007141 
  24  H   -0.106026        0.005583 
 ---------------------------------------------------
   Sum:   -0.000000        2.000000 
 ---------------------------------------------------
 
  
 NATURAL OCCUPATION NUMBERS (higher than 1.0E-05)
            1           2           3           4           5           6
    1   2.0000000   2.0000000   2.0000000   2.0000000   2.0000000   2.0000000
            7           8           9          10          11          12
    1   2.0000000   2.0000000   2.0000000   2.0000000   2.0000000   2.0000000
           13          14          15          16          17          18
    1   2.0000000   2.0000000   2.0000000   2.0000000   2.0000000   2.0000000
           19          20          21          22          23          24
    1   2.0000000   2.0000000   2.0000000   2.0000000   2.0000000   2.0000000
           25          26          27          28          29          30
    1   2.0000000   2.0000000   2.0000000   2.0000000   2.0000000   2.0000000
           31          32          33          34          35          36
    1   2.0000000   2.0000000   2.0000000   2.0000000   2.0000000   1.9999998
           37          38          39          40          41          42
    1   1.9999981   1.9999978   1.9999934   1.9999905   1.9999877   1.9988143
           43          44          45          46          47          48
    1   1.9987894   1.9865008   1.9856295   1.5201616   1.5101303   0.9999411
           49          50          51          52          53          54
    1   0.9999290   0.4896715   0.4800060   0.0141878   0.0138051   0.0012209
           55          56          57
    1   0.0011899   0.0000240   0.0000219
  
*** Unpaired Electrons
 Yamaguchi Nd:         5.06
 Head-Gordon Nu:       4.00
 Head-Gordon Nu_nl:    4.16
  
**************************************************
 RAS-CI total energy for state   4:   -568.597324198654
  Excitation energy (eV) =  0.502570211664
  State symmetry: A     (C2       )
  <S^2>      :  2.0000
  Dipole Moment:    0.0059 X     0.0001 Y    -0.0659 Z
  Trans. Moment:    0.0495 X    -0.0114 Y    -0.0001 Z
  Strength   :  0.000032
  Natural transition orbitals ( 1 -> 4 ):
   e-/hole pair  1 alpha:  ampl =  0.238818 (  5.7%)   [13 : 14]
   e-/hole pair  2 alpha:  ampl =  0.236630 (  5.6%)   [12 : 15]
   e-/hole pair  1 beta :  ampl =  0.340643 ( 11.6%)   [13 : 14]
   e-/hole pair  2 beta :  ampl =  0.337309 ( 11.4%)   [12 : 15]
   Sum of square amplitudes: 0.35

 NATURAL OCCUPATION NUMBERS (higher than 1.0E-05)
            1           2           3           4           5           6
    1   2.0000000   2.0000000   2.0000000   2.0000000   2.0000000   2.0000000
            7           8           9          10          11          12
    1   2.0000000   2.0000000   2.0000000   2.0000000   2.0000000   2.0000000
           13          14          15          16          17          18
    1   2.0000000   2.0000000   2.0000000   2.0000000   2.0000000   2.0000000
           19          20          21          22          23          24
    1   2.0000000   2.0000000   2.0000000   2.0000000   2.0000000   2.0000000
           25          26          27          28          29          30
    1   2.0000000   2.0000000   2.0000000   2.0000000   2.0000000   2.0000000
           31          32          33          34          35          36
    1   2.0000000   2.0000000   2.0000000   2.0000000   2.0000000   1.9999998
           37          38          39          40          41          42
    1   1.9999988   1.9999973   1.9999934   1.9998815   1.9998737   1.9995577
           43          44          45          46          47          48
    1   1.9995410   1.9867252   1.9858879   1.5189030   1.5096406   1.0234448
           49          50          51          52          53          54
    1   1.0225621   0.4669326   0.4590056   0.0139749   0.0135960   0.0002330
           55          56
    1   0.0002288   0.0000111

  Amplitudes : 
  
 | HOLE  | ALPHA         | BETA          | PART  |    AMPLITUDE 
--------------------------------------------------
 |  41   | 1111001000000 | 1100000000000 |       |     1.2246200026824E-01
 |  45   | 1111001000000 | 1100000000000 |       |     1.1353108347754E-01
 |  38   | 1111000100000 | 1100000000000 |       |     1.0118982628669E-01
 |  40   | 1111000100000 | 1100000000000 |       |    -1.1922123502730E-01
 |  44   | 1111000100000 | 1100000000000 |       |     1.1437874376121E-01
 |  39   | 1111000000000 | 1100001000000 |       |    -1.3086836259374E-01
 |  41   | 1111000000000 | 1100001000000 |       |    -1.5325451404547E-01
 |  45   | 1111000000000 | 1100001000000 |       |    -1.6954578122460E-01
 |  38   | 1111000000000 | 1100000100000 |       |    -1.3414197635586E-01
 |  40   | 1111000000000 | 1100000100000 |       |     1.5111904075954E-01
 |  44   | 1111000000000 | 1100000100000 |       |    -1.7142225353469E-01
 |  38   | 1110001000000 | 1110000000000 |       |     1.1398995637026E-01
 |  40   | 1110001000000 | 1110000000000 |       |    -1.3104356600041E-01
 |  44   | 1110001000000 | 1110000000000 |       |     1.3857535343762E-01
 |  39   | 1110001000000 | 1101000000000 |       |    -1.1489346164912E-01
 |  41   | 1110001000000 | 1101000000000 |       |    -1.3782959478878E-01
 |  45   | 1110001000000 | 1101000000000 |       |    -1.4153347247582E-01
 |  39   | 1110000100000 | 1110000000000 |       |     1.1880922974438E-01
 |  41   | 1110000100000 | 1110000000000 |       |     1.4203001254673E-01
 |  45   | 1110000100000 | 1110000000000 |       |     1.4564979302218E-01
 |  38   | 1110000100000 | 1101000000000 |       |    -1.1764636510876E-01
 |  40   | 1110000100000 | 1101000000000 |       |     1.3513038931892E-01
 |  44   | 1110000100000 | 1101000000000 |       |    -1.4288625288467E-01
 |  39   | 1101001000000 | 1110000000000 |       |     1.1492783881352E-01
 |  41   | 1101001000000 | 1110000000000 |       |     1.3788691952523E-01
 |  45   | 1101001000000 | 1110000000000 |       |     1.4154339222667E-01
 |  38   | 1101001000000 | 1101000000000 |       |    -1.1399703260776E-01
 |  40   | 1101001000000 | 1101000000000 |       |     1.3101845133663E-01
 |  44   | 1101001000000 | 1101000000000 |       |    -1.3860669711681E-01
 |  38   | 1101000100000 | 1110000000000 |       |     1.1768543753395E-01
 |  40   | 1101000100000 | 1110000000000 |       |    -1.3520988646820E-01
 |  44   | 1101000100000 | 1110000000000 |       |     1.4291474441158E-01
 |  39   | 1101000100000 | 1101000000000 |       |    -1.1882599842007E-01
 |  41   | 1101000100000 | 1101000000000 |       |    -1.4202812501508E-01
 |  45   | 1101000100000 | 1101000000000 |       |    -1.4569324095370E-01
--------------------------------------------------
*** Contributions RASCI wfn    Active:   0.00
                                 Hole: 100.00
                                 Part:   0.00

      Mulliken population analysis 
 ---------------------------------------------------
   Atom    Charge (a.u.)   Spin (a.u.)  
 ---------------------------------------------------
   1  C    0.107065        0.005201 
   2  O   -0.125202        0.000437 
   3  C   -0.042459        0.006425 
   4  C   -0.042372        0.006539 
   5  C   -0.030077        0.005522 
   6  C    0.031551        0.266839 
   7  C   -0.088882        0.356953 
   8  C   -0.001219        0.004755 
   9  C    0.048635        0.340944 
  10  H    0.048345        0.001087 
  11  H    0.069439        0.002163 
  12  H    0.040918        0.001192 
  13  H    0.039624        0.006301 
  14  H   -0.106947        0.004842 
  15  C   -0.030038        0.005428 
  16  C    0.030551        0.262090 
  17  C   -0.001138        0.004731 
  18  C   -0.087492        0.350706 
  19  C    0.048465        0.352521 
  20  H    0.048334        0.001073 
  21  H    0.040949        0.001174 
  22  H    0.069394        0.002127 
  23  H    0.039562        0.006190 
  24  H   -0.107006        0.004762 
 ---------------------------------------------------
   Sum:   -0.000000        2.000000 
 ---------------------------------------------------
 
  
 NATURAL OCCUPATION NUMBERS (higher than 1.0E-05)
            1           2           3           4           5           6
    1   2.0000000   2.0000000   2.0000000   2.0000000   2.0000000   2.0000000
            7           8           9          10          11          12
    1   2.0000000   2.0000000   2.0000000   2.0000000   2.0000000   2.0000000
           13          14          15          16          17          18
    1   2.0000000   2.0000000   2.0000000   2.0000000   2.0000000   2.0000000
           19          20          21          22          23          24
    1   2.0000000   2.0000000   2.0000000   2.0000000   2.0000000   2.0000000
           25          26          27          28          29          30
    1   2.0000000   2.0000000   2.0000000   2.0000000   2.0000000   2.0000000
           31          32          33          34          35          36
    1   2.0000000   2.0000000   2.0000000   2.0000000   2.0000000   1.9999998
           37          38          39          40          41          42
    1   1.9999988   1.9999973   1.9999934   1.9998815   1.9998737   1.9995577
           43          44          45          46          47          48
    1   1.9995410   1.9867252   1.9858879   1.5189030   1.5096406   1.0234448
           49          50          51          52          53          54
    1   1.0225621   0.4669326   0.4590056   0.0139749   0.0135960   0.0002330
           55          56          57
    1   0.0002288   0.0000111   0.0000039
  
*** Unpaired Electrons
 Yamaguchi Nd:         5.01
 Head-Gordon Nu:       3.91
 Head-Gordon Nu_nl:    4.10
  
**************************************************
 RAS-CI total energy for state   5:   -568.597302029575
  Excitation energy (eV) =  0.503173462993
  State symmetry: B     (C2       )
  <S^2>      :  2.0000
  Dipole Moment:   -0.0059 X    -0.0001 Y    -0.0681 Z
  Trans. Moment:    0.0002 X    -0.0000 Y     0.0298 Z
  Strength   :  0.000011
  Natural transition orbitals ( 1 -> 5 ):
   e-/hole pair  1 alpha:  ampl =  0.239533 (  5.7%)   [13 : 14]
   e-/hole pair  2 alpha:  ampl =  0.237363 (  5.6%)   [12 : 15]
   e-/hole pair  1 beta :  ampl =  0.341049 ( 11.6%)   [13 : 14]
   e-/hole pair  2 beta :  ampl =  0.337619 ( 11.4%)   [12 : 15]
   Sum of square amplitudes: 0.35

 NATURAL OCCUPATION NUMBERS (higher than 1.0E-05)
            1           2           3           4           5           6
    1   2.0000000   2.0000000   2.0000000   2.0000000   2.0000000   2.0000000
            7           8           9          10          11          12
    1   2.0000000   2.0000000   2.0000000   2.0000000   2.0000000   2.0000000
           13          14          15          16          17          18
    1   2.0000000   2.0000000   2.0000000   2.0000000   2.0000000   2.0000000
           19          20          21          22          23          24
    1   2.0000000   2.0000000   2.0000000   2.0000000   2.0000000   2.0000000
           25          26          27          28          29          30
    1   2.0000000   2.0000000   2.0000000   2.0000000   2.0000000   2.0000000
           31          32          33          34          35          36
    1   2.0000000   2.0000000   2.0000000   2.0000000   2.0000000   1.9999998
           37          38          39          40          41          42
    1   1.9999985   1.9999981   1.9999934   1.9998998   1.9998951   1.9995854
           43          44          45          46          47          48
    1   1.9995677   1.9867393   1.9859033   1.5194274   1.5101253   1.0233285
           49          50          51          52          53          54
    1   1.0224270   0.4665559   0.4586132   0.0139666   0.0135750   0.0001907
           55          56
    1   0.0001867   0.0000103

  Amplitudes : 
  
 | HOLE  | ALPHA         | BETA          | PART  |    AMPLITUDE 
--------------------------------------------------
 |  40   | 1111001000000 | 1100000000000 |       |     1.1588892341018E-01
 |  44   | 1111001000000 | 1100000000000 |       |    -1.1106944007620E-01
 |  39   | 1111000100000 | 1100000000000 |       |    -1.0278964972823E-01
 |  41   | 1111000100000 | 1100000000000 |       |    -1.2632062349428E-01
 |  45   | 1111000100000 | 1100000000000 |       |    -1.1714733041666E-01
 |  38   | 1111000000000 | 1100001000000 |       |     1.3056782479616E-01
 |  40   | 1111000000000 | 1100001000000 |       |    -1.4656030320342E-01
 |  44   | 1111000000000 | 1100001000000 |       |     1.6603789652637E-01
 |  39   | 1111000000000 | 1100000100000 |       |     1.3607949823723E-01
 |  41   | 1111000000000 | 1100000100000 |       |     1.5800322605357E-01
 |  45   | 1111000000000 | 1100000100000 |       |     1.7434314539677E-01
 |  39   | 1110001000000 | 1110000000000 |       |    -1.1461868862746E-01
 |  41   | 1110001000000 | 1110000000000 |       |    -1.3702137272604E-01
 |  45   | 1110001000000 | 1110000000000 |       |    -1.4044808555916E-01
 |  38   | 1110001000000 | 1101000000000 |       |     1.1464813873077E-01
 |  40   | 1110001000000 | 1101000000000 |       |    -1.3126793056436E-01
 |  44   | 1110001000000 | 1101000000000 |       |     1.3856898977354E-01
 |  38   | 1110000100000 | 1110000000000 |       |    -1.1734111984290E-01
 |  40   | 1110000100000 | 1110000000000 |       |     1.3429604049031E-01
 |  44   | 1110000100000 | 1110000000000 |       |    -1.4188892450863E-01
 |  39   | 1110000100000 | 1101000000000 |       |     1.1945081850329E-01
 |  41   | 1110000100000 | 1101000000000 |       |     1.4219592260388E-01
 |  45   | 1110000100000 | 1101000000000 |       |     1.4575540467058E-01
 |  38   | 1101001000000 | 1110000000000 |       |    -1.1460246198528E-01
 |  40   | 1101001000000 | 1110000000000 |       |     1.3118129604940E-01
 |  44   | 1101001000000 | 1110000000000 |       |    -1.3853834682921E-01
 |  39   | 1101001000000 | 1101000000000 |       |     1.1460395716547E-01
 |  41   | 1101001000000 | 1101000000000 |       |     1.3702801516186E-01
 |  45   | 1101001000000 | 1101000000000 |       |     1.4040403577945E-01
 |  39   | 1101000100000 | 1110000000000 |       |    -1.1941832946229E-01
 |  41   | 1101000100000 | 1110000000000 |       |    -1.4212792694414E-01
 |  45   | 1101000100000 | 1110000000000 |       |    -1.4573507114301E-01
 |  38   | 1101000100000 | 1101000000000 |       |     1.1733303430824E-01
 |  40   | 1101000100000 | 1101000000000 |       |    -1.3432303674741E-01
 |  44   | 1101000100000 | 1101000000000 |       |     1.4185583310208E-01
--------------------------------------------------
*** Contributions RASCI wfn    Active:   0.11
                                 Hole:  99.89
                                 Part:   0.00

      Mulliken population analysis 
 ---------------------------------------------------
   Atom    Charge (a.u.)   Spin (a.u.)  
 ---------------------------------------------------
   1  C    0.107070        0.005173 
   2  O   -0.125201        0.000443 
   3  C   -0.042358        0.006722 
   4  C   -0.042445        0.006608 
   5  C   -0.030001        0.005641 
   6  C    0.030897        0.263738 
   7  C   -0.087900        0.346569 
   8  C   -0.001137        0.004619 
   9  C    0.048465        0.354716 
  10  H    0.048331        0.001028 
  11  H    0.069395        0.002122 
  12  H    0.040972        0.001199 
  13  H    0.039632        0.006416 
  14  H   -0.107090        0.004580 
  15  C   -0.030039        0.005735 
  16  C    0.031894        0.268489 
  17  C   -0.001218        0.004642 
  18  C   -0.089288        0.352813 
  19  C    0.048635        0.343140 
  20  H    0.048341        0.001042 
  21  H    0.040941        0.001217 
  22  H    0.069439        0.002158 
  23  H    0.039695        0.006527 
  24  H   -0.107031        0.004661 
 ---------------------------------------------------
   Sum:   -0.000000        2.000000 
 ---------------------------------------------------
 
  
 NATURAL OCCUPATION NUMBERS (higher than 1.0E-05)
            1           2           3           4           5           6
    1   2.0000000   2.0000000   2.0000000   2.0000000   2.0000000   2.0000000
            7           8           9          10          11          12
    1   2.0000000   2.0000000   2.0000000   2.0000000   2.0000000   2.0000000
           13          14          15          16          17          18
    1   2.0000000   2.0000000   2.0000000   2.0000000   2.0000000   2.0000000
           19          20          21          22          23          24
    1   2.0000000   2.0000000   2.0000000   2.0000000   2.0000000   2.0000000
           25          26          27          28          29          30
    1   2.0000000   2.0000000   2.0000000   2.0000000   2.0000000   2.0000000
           31          32          33          34          35          36
    1   2.0000000   2.0000000   2.0000000   2.0000000   2.0000000   1.9999998
           37          38          39          40          41          42
    1   1.9999985   1.9999981   1.9999934   1.9998998   1.9998951   1.9995854
           43          44          45          46          47          48
    1   1.9995677   1.9867393   1.9859033   1.5194274   1.5101253   1.0233285
           49          50          51          52          53          54
    1   1.0224270   0.4665559   0.4586132   0.0139666   0.0135750   0.0001907
           55          56          57
    1   0.0001867   0.0000103   0.0000047
  
*** Unpaired Electrons
 Yamaguchi Nd:         5.00
 Head-Gordon Nu:       3.91
 Head-Gordon Nu_nl:    4.09
  
**************************************************
 RAS-CI total energy for state   6:   -568.592525417591
  Excitation energy (eV) =  0.633151688163
  State symmetry: A     (C2       )
  <S^2>      :  2.0000
  Dipole Moment:   -0.0281 X    -0.0059 Y     0.3282 Z
  Trans. Moment:    0.0003 X     0.0000 Y    -0.0001 Z
  Strength   :  0.000000
  Natural transition orbitals ( 1 -> 6 ):
   e-/hole pair  1 alpha:  ampl =  0.217595 (  4.7%)   [13 : 14]
   e-/hole pair  2 alpha:  ampl =  0.185470 (  3.4%)   [12 : 15]
   e-/hole pair  1 beta :  ampl =  0.217343 (  4.7%)   [13 : 14]
   e-/hole pair  2 beta :  ampl =  0.185184 (  3.4%)   [12 : 15]
   Sum of square amplitudes: 0.16

 NATURAL OCCUPATION NUMBERS (higher than 1.0E-05)
            1           2           3           4           5           6
    1   2.0000000   2.0000000   2.0000000   2.0000000   2.0000000   2.0000000
            7           8           9          10          11          12
    1   2.0000000   2.0000000   2.0000000   2.0000000   2.0000000   2.0000000
           13          14          15          16          17          18
    1   2.0000000   2.0000000   2.0000000   2.0000000   2.0000000   2.0000000
           19          20          21          22          23          24
    1   2.0000000   2.0000000   2.0000000   2.0000000   2.0000000   2.0000000
           25          26          27          28          29          30
    1   2.0000000   2.0000000   2.0000000   2.0000000   2.0000000   2.0000000
           31          32          33          34          35          36
    1   2.0000000   2.0000000   2.0000000   2.0000000   2.0000000   1.9999998
           37          38          39          40          41          42
    1   1.9999990   1.9999983   1.9999926   1.9999831   1.9999745   1.9989011
           43          44          45          46          47          48
    1   1.9986635   1.9983759   1.9962385   1.5819077   1.4259586   0.9999177
           49          50          51          52          53          54
    1   0.9998862   0.5740397   0.4180723   0.0032110   0.0020808   0.0015835
           55          56          57
    1   0.0011576   0.0000301   0.0000208

  Amplitudes : 
  
 | HOLE  | ALPHA         | BETA          | PART  |    AMPLITUDE 
--------------------------------------------------
 |  38   | 1111100000000 | 1100000000000 |       |    -1.3857705311633E-01
 |  39   | 1111010000000 | 1100000000000 |       |     1.3503578343542E-01
 |  38   | 1111000000000 | 1100100000000 |       |     1.3834404859085E-01
 |  39   | 1111000000000 | 1100010000000 |       |    -1.3470444399664E-01
 |  39   | 1110100000000 | 1110000000000 |       |     2.7912740912607E-01
 |  45   | 1110100000000 | 1110000000000 |       |    -1.9351507919840E-01
 |  38   | 1110100000000 | 1101000000000 |       |     1.3950471222369E-01
 |  38   | 1110010000000 | 1110000000000 |       |    -2.7133460964680E-01
 |  44   | 1110010000000 | 1110000000000 |       |     1.8618700123146E-01
 |  39   | 1110010000000 | 1101000000000 |       |    -1.3587538224172E-01
 |  38   | 1110001000000 | 1110000000000 |       |    -1.4582086237503E-01
 |  44   | 1110001000000 | 1110000000000 |       |     1.2281392883502E-01
 |  39   | 1110000100000 | 1110000000000 |       |    -1.3492053388016E-01
 |  45   | 1110000100000 | 1110000000000 |       |     1.1613105804142E-01
 |  38   | 1101100000000 | 1110000000000 |       |    -1.3741638946361E-01
 |  39   | 1101100000000 | 1101000000000 |       |    -2.7914951933275E-01
 |  45   | 1101100000000 | 1101000000000 |       |     1.9352478123825E-01
 |  39   | 1101010000000 | 1110000000000 |       |     1.3386484517019E-01
 |  38   | 1101010000000 | 1101000000000 |       |     2.7133097867956E-01
 |  44   | 1101010000000 | 1101000000000 |       |    -1.8619364012382E-01
 |  38   | 1101001000000 | 1101000000000 |       |     1.4580174752755E-01
 |  44   | 1101001000000 | 1101000000000 |       |    -1.2280295417474E-01
 |  39   | 1101000100000 | 1101000000000 |       |     1.3493489111613E-01
 |  45   | 1101000100000 | 1101000000000 |       |    -1.1613299381664E-01
--------------------------------------------------
*** Contributions RASCI wfn    Active:   0.00
                                 Hole: 100.00
                                 Part:   0.00

      Mulliken population analysis 
 ---------------------------------------------------
   Atom    Charge (a.u.)   Spin (a.u.)  
 ---------------------------------------------------
   1  C    0.099433        0.001602 
   2  O   -0.125788        0.000005 
   3  C   -0.042616        0.009968 
   4  C   -0.040564        0.013440 
   5  C   -0.048375        0.490388 
   6  C   -0.032184        0.011232 
   7  C   -0.018833        0.011798 
   8  C    0.023082        0.417704 
   9  C    0.048999        0.276310 
  10  H    0.047696        0.001822 
  11  H    0.065648        0.001396 
  12  H    0.040446        0.002567 
  13  H    0.034846        0.002372 
  14  H   -0.107356        0.005449 
  15  C   -0.042967        0.357449 
  16  C   -0.030151        0.008227 
  17  C    0.017661        0.304030 
  18  C   -0.016703        0.008216 
  19  C    0.046230        0.065921 
  20  H    0.047542        0.001431 
  21  H    0.040996        0.001920 
  22  H    0.065971        0.001034 
  23  H    0.035172        0.001752 
  24  H   -0.108186        0.003965 
 ---------------------------------------------------
   Sum:    0.000000        2.000000 
 ---------------------------------------------------
 
  
 NATURAL OCCUPATION NUMBERS (higher than 1.0E-05)
            1           2           3           4           5           6
    1   2.0000000   2.0000000   2.0000000   2.0000000   2.0000000   2.0000000
            7           8           9          10          11          12
    1   2.0000000   2.0000000   2.0000000   2.0000000   2.0000000   2.0000000
           13          14          15          16          17          18
    1   2.0000000   2.0000000   2.0000000   2.0000000   2.0000000   2.0000000
           19          20          21          22          23          24
    1   2.0000000   2.0000000   2.0000000   2.0000000   2.0000000   2.0000000
           25          26          27          28          29          30
    1   2.0000000   2.0000000   2.0000000   2.0000000   2.0000000   2.0000000
           31          32          33          34          35          36
    1   2.0000000   2.0000000   2.0000000   2.0000000   2.0000000   1.9999998
           37          38          39          40          41          42
    1   1.9999990   1.9999983   1.9999926   1.9999831   1.9999745   1.9989011
[...]
   315   -1.248181826102e-01
   316    4.099881198421e-02
   317   -1.977733812959e-02
   318   -1.100473755036e-01
   319    3.641053660058e-02
   320   -1.519162488382e-02
   321   -2.213697614999e-01
   322    7.070896705419e-02
   323   -3.113485047160e-02
   324    1.081784832495e-03
   325   -1.164680503086e-03
   326    7.111922409005e-04
   327   -7.304945273362e-04
   328   -4.372404890640e-04
   329    3.702730944889e-03
   330   -3.113941899230e-03
   331    1.137433482807e-03
   332   -2.773959166926e-03
   333    2.112679855061e-04
   334    2.306645023609e-04
   335    2.244999024976e-04
   336    9.459339103042e-05
   337    6.286236914251e-04
   338    6.979332216306e-04
   339    9.064493178429e-04
   340   -7.484745720054e-04
   341    5.610678135968e-04
   342    1.374093901125e-03
   343   -3.597555677102e-03
   344   -1.016426404931e-03
   345   -4.784719293627e-03
   346   -7.880628002658e-02
   347    7.459653792324e-03
   348   -7.344280175457e-02
   349   -6.834756905591e-02
   350    7.373795187165e-03
   351   -6.518611636127e-02
   352   -1.352657088315e-01
   353    3.247713306167e-03
   354   -1.313322199307e-01
   355    4.873062327203e-04
   356   -1.236338624342e-03
   357    7.034598928316e-04
   358   -5.970937879454e-04
   359   -6.327097494765e-04
   360    8.775682635568e-04
   361   -4.095170331522e-03
   362    1.868234500816e-03
   363   -2.327099770958e-03
   364   -1.864661500069e-03
   365    2.177537436951e-04
   366    1.196952637325e-04
   367    6.918243808502e-04
   368    6.044559125879e-04
   369    3.649053700897e-04
   370    6.291809112827e-04
   371   -4.618998871421e-04
   372   -3.171084916039e-04
   373   -7.042364245665e-04
   374    5.667764596754e-04
   375    5.503468663137e-03
   376   -4.837075116036e-03
   377   -9.090347324726e-02
   378   -3.965089352789e-02
   379   -8.684634430188e-02
   380   -8.454275311628e-02
   381   -3.589702873200e-02
   382   -7.970998245507e-02
   383   -1.487506534825e-01
   384   -6.666896593842e-02
   385   -1.503144615665e-01
   386   -9.347810249390e-04
   387    1.181111667969e-03
   388   -5.600584148241e-04
   389    8.393543690379e-04
   390    3.052357825490e-04
   391   -1.545522219540e-03
   392    3.378355625178e-03
   393   -7.332329217916e-04
   394    1.738580115833e-03
   395    1.392356068703e-03
   396    7.781264194569e-05
   397    1.717984359105e-04
   398    1.046896276651e-03
   399    4.306107590273e-04
   400    4.695440582329e-04
   401    1.047342541263e-03
   402    2.775706227330e-05
   403   -4.590512425890e-04
   404   -1.027532492258e-03
   405    1.197923494737e-03
   406    7.375987783456e-03
   407   -5.090572523230e-03
   408   -1.105748721399e-01
   409    3.112415708790e-04
   410   -3.306280282662e-03
   411   -1.022533804532e-01
   412   -4.468683131221e-05
   413   -4.086620483401e-03
   414   -1.841482975480e-01
   415    6.263049450513e-03
   416    1.789895678601e-04
   417   -6.046385066614e-04
   418    1.119032867016e-03
   419   -5.693070295500e-04
   420    6.932525082876e-04
   421    4.088220757555e-04
   422   -2.063105851529e-03
   423    2.424857047021e-03
   424   -1.225192481089e-03
   425    2.033370738673e-03
   426    1.187203075804e-03
   427   -7.310415336501e-05
   428    1.268093464677e-04
   429    1.920510324947e-04
   430    1.800458939208e-04
   431    8.559811700033e-04
   432    9.997935966348e-04
   433   -2.924382862197e-04
   434   -2.823446779124e-03
   435   -6.539740612211e-03
   436    1.291762451082e-02
   437    7.968159562471e-03
   438    4.015329402406e-02
   439   -5.643761688070e-02
   440    1.534879264735e-03
   441   -2.858356234985e-02
   442   -5.616523199448e-02
   443    2.237472719513e-03
   444   -2.867011717882e-02
   445   -7.842153495277e-02
   446   -3.910359659132e-04
   447   -3.850614255945e-02
   448    7.380429674464e-04
   449   -1.256704265421e-03
   450    2.854129234194e-04
   451   -1.194647234276e-03
   452   -2.820972358932e-04
   453    2.366630665955e-03
   454   -3.020778757179e-03
   455    1.655579477340e-03
   456   -1.992167087635e-03
   457   -1.006183222499e-03
   458   -4.176562358450e-04
   459   -1.140292689729e-04
   460   -1.545152068436e-04
   461    5.191397055558e-04
   462   -1.138016964830e-04
   463    2.650833948378e-04
   464    1.296386738599e-04
   465    3.398589191672e-02
   466    4.562016505799e-02
   467    2.297057864651e-01
   468    2.083620863605e-03
   469   -1.586985598660e-03
   470   -3.669440201247e-03
   471   -3.433677157123e-02
   472   -4.420484207998e-02
   473   -2.293471259216e-01
   474   -1.151884584635e-03
   475    1.647964517432e-03
   476    3.997789975999e-03
   477    2.486084198567e-02
   478    3.522488585748e-02
   479    1.652570419687e-01
   480   -1.302645141937e-03
   481    1.917785644177e-03
   482    2.398552515696e-03
   483   -2.823072183224e-02
   484   -3.662404132890e-02
   485   -1.864792045186e-01
   486    1.671907839174e-03
   487   -1.800806181927e-03
   488   -2.664593668102e-03
   489   -2.973137887223e-02
   490   -3.973487847795e-02
   491   -1.709199923291e-01
   492    2.373502846129e-03
   493    9.661102857433e-05
   494    9.764327202645e-04
Sym=X
Ene= 0.038131
Spin=Alpha
Occup=0
     1   -5.225793334993e-08
     2   -1.166590245160e-07
     3    1.659218504923e-07
     4    5.883112993757e-07
     5   -2.479754967215e-07
     6    8.221867306963e-02
     7    1.220759612407e-02
     8    3.955898087069e-07
     9    8.642310356089e-02
    10    1.137108286445e-02
    11    3.557321632777e-07
    12    1.017688175047e-01
    13    1.663360973045e-02
    14    2.517912944271e-07
    15   -2.384413951054e-08
    16    7.421967026396e-05
    17   -2.641925242574e-05
    18    1.582737073424e-09
    19   -2.330304189923e-09
    20   -9.782337726840e-08
    21    1.401989527797e-03
    22    6.557009687482e-04
    23    2.547138074681e-08
    24   -1.003570093446e-09
    25   -1.457870840175e-09
    26   -1.774218306265e-03
    27   -2.138176626856e-04
    28   -1.570224739800e-08
    29    5.047049777143e-09
    30    8.034752397030e-05
    31   -2.235616386407e-04
    32    1.378871897494e-08
    33    3.202137942679e-08
    34   -2.399732885394e-08
    35   -1.804852612007e-07
    36    6.661084985963e-08
    37   -8.916855223706e-03
    38   -7.523041721462e-04
    39    1.782668726674e-06
    40   -9.389810831894e-03
    41   -1.659473683559e-04
    42    1.560976086595e-06
    43   -3.662933244697e-03
    44   -1.785147363318e-03
    45    2.170157238898e-06
    46   -3.275882353694e-09
    47   -9.727082212289e-05
    48   -1.572670547731e-05
    49   -1.059146174079e-10
    50   -1.201355908439e-10
    51    1.559723152877e-08
    52   -1.044083537955e-03
    53   -1.679790409795e-04
    54    7.525128335554e-10
    55    9.153524957478e-10
    56    3.030352393390e-08
    57   -1.844657689596e-05
    58    7.955945533196e-06
    59    3.746992768374e-10
    60   -1.113348420959e-10
    61   -5.801863705323e-07
    62   -4.138110610054e-06
    63   -3.180204545328e-03
    64   -7.322577613157e-03
    65    1.370722496993e-02
    66    2.001712729221e-02
    67    2.712174669248e-02
    68    7.827697938869e-03
    69   -5.523539556973e-03
    70   -4.079118680325e-03
    71    1.010146824133e-02
    72   -5.944978734481e-03
    73   -1.716607575661e-04
    74    2.693900996140e-03
    75   -6.213392955806e-03
    76   -1.813817201810e-02
    77    2.874630672627e-04
    78   -1.257381821857e-03
    79    3.700226891525e-04
    80   -7.910958206764e-04
    81   -8.763219890452e-05
    82    2.865026570831e-04
    83   -5.007640059962e-03
    84    1.523322616150e-03
    85   -2.412248755476e-03
    86   -5.098722992935e-04
    87    2.142110228724e-04
    88   -5.535839747789e-05
    89   -8.897169640546e-05
    90   -1.200521317746e-04
    91    1.662731964870e-04
    92    4.330732922581e-05
    93    2.057458519591e-05
    94    3.180201743476e-03
    95    7.322573341426e-03
    96   -1.370722887392e-02
    97   -2.001712613475e-02
    98   -2.712156256742e-02
    99    7.827426538732e-03
   100   -5.523774899804e-03
   101    4.079454898416e-03
   102    1.010114341130e-02
   103   -5.945204835253e-03
   104    1.720347771680e-04
   105    2.693639208948e-03
   106   -6.213765942499e-03
   107    1.813866032600e-02
   108   -2.874579035447e-04
   109   -1.257372206141e-03
   110    3.700204208344e-04
   111    7.910869780994e-04
   112    8.764128419511e-05
   113   -2.864647360375e-04
   114   -5.007669051513e-03
   115    1.523307640543e-03
   116    2.412237147504e-03
   117    5.098777862698e-04
   118   -2.142097542215e-04
   119   -5.535436774428e-05
   120   -8.898053489131e-05
   121    1.200546921346e-04
   122   -1.662657408107e-04
   123    4.330634288592e-05
   124    2.056696951414e-05
   125    1.109854772982e-03
   126    2.688412589377e-03
   127   -6.535554198682e-03
   128    6.328169025677e-03
   129   -3.409054966955e-02
   130    1.528474682046e-01
   131   -5.582586333798e-02
   132    2.337958017583e-02
   133    1.391617329884e-01
   134   -5.343246376971e-02
   135    1.919808489364e-02
   136    2.584679221149e-01
   137   -9.007246142949e-02
   138    5.038073257689e-02
   139    1.658019436018e-05
   140    1.288316698509e-03
   141   -2.153245236919e-04
   142   -2.292720908764e-04
   143   -6.517419227612e-04
   144    1.720145057264e-03
   145    2.168537207797e-03
   146   -5.597009495274e-04
   147   -2.919097910979e-03
   148    3.112237828806e-05
   149   -8.799605475789e-05
   150   -2.438806024350e-04
   151    3.608805643053e-04
   152    6.311373037028e-04
   153    1.056860336993e-03
   154   -1.076671283541e-03
   155    9.251476393901e-04
   156    9.573847856149e-04
   157    2.135587804574e-03
   158   -2.826839787624e-03
   159   -8.032643437259e-03
   160   -1.023280657986e-02
   161    6.907412411255e-02
   162    2.730213334838e-02
   163   -8.933236528054e-02
   164    6.633471431908e-02
   165    2.481769863944e-02
   166   -8.228217397244e-02
   167    1.036584756066e-01
   168    4.846561350372e-02
   169   -1.513931009697e-01
   170    5.769847049325e-04
   171    3.985394983605e-04
   172   -3.720690947736e-04
   173   -4.061037357280e-04
   174   -1.357110344708e-04
   175    6.339439251592e-04
   176    2.476812071129e-03
   177   -1.455712276214e-04
   178   -1.731839735717e-03
   179   -5.653660616274e-04
   180    4.073337281800e-05
   181   -5.616383423109e-05
   182   -9.443333112390e-04
   183    5.180925861462e-04
   184    1.640742875443e-04
   185   -8.037352475309e-04
   186    8.232143531537e-05
   187    1.265202252621e-04
   188    2.861383345175e-04
   189   -7.301963681957e-04
   190   -1.019039758790e-05
   191   -3.209523453292e-04
   192    9.131008925216e-02
   193   -1.093175709375e-02
   194   -1.153618758607e-02
   195    8.455713340863e-02
   196   -9.427026651742e-03
   197   -1.190743175780e-02
   198    1.508242705189e-01
   199   -2.221093887224e-02
   200   -1.066784466600e-02
   201   -7.651544292011e-04
   202   -9.069870804189e-04
   203    5.354030520136e-04
   204    6.932139786578e-04
   205    2.056721123940e-04
   206   -2.668341053687e-03
   207   -3.090464740398e-03
   208    1.553553406733e-03
   209    3.021733759392e-03
   210    4.180898686027e-04
   211   -4.697008061375e-06
   212   -3.865299632836e-05
   213   -1.840038620703e-04
   214    3.407120143770e-04
   215    5.815683724544e-04
   216   -8.882827809827e-04
   217    3.661046365547e-04
   218   -2.452303136116e-04
   219   -5.796561762140e-04
   220    9.866620681492e-04
   221    2.727000348967e-04
   222    6.612557951523e-03
   223    8.693813716671e-02
   224    3.321546204808e-02
   225   -8.932002347030e-02
   226    8.187163583419e-02
   227    3.037483118718e-02
   228   -8.174303868688e-02
   229    1.383054108998e-01
   230    5.606226207761e-02
   231   -1.538184531051e-01
   232   -6.596175640803e-04
   233   -1.376797823387e-03
   234    5.888094498102e-04
   235    6.411661837540e-04
   236    4.040862527285e-04
   237   -1.103098088955e-03
   238   -5.244231774459e-03
   239    4.927769286851e-04
   240    2.353408411672e-03
   241    2.163197308898e-03
   242    2.812713459515e-05
   243   -2.336485621146e-04
   244   -9.917910658289e-04
   245    6.022246866662e-04
   246    4.724636060225e-04
   247   -9.967167748444e-04
   248   -2.471817868325e-05
   249   -3.238776986643e-03
   250   -7.497334024368e-03
   251    1.471002002386e-02
   252    9.878333749410e-03
   253    4.640628964725e-02
   254    6.729544852904e-02
   255    1.468684863110e-05
   256   -2.893389555916e-02
   257    6.575184553764e-02
   258   -1.914307028304e-04
   259   -2.833763340608e-02
   260    9.820317497942e-02
   261    9.696751616421e-04
   262   -4.220438754566e-02
   263    6.901088802008e-04
   264    1.228414778702e-03
   265   -2.870847004150e-04
   266   -1.230462957978e-03
   267   -1.764669274887e-04
   268    2.121308765496e-03
   269    2.734706376020e-03
   270   -1.790987777325e-03
   271   -2.027014280694e-03
   272   -8.290337328729e-04
   273   -5.043499407784e-04
   274    1.389710642509e-04
   275    1.670386366245e-04
   276    5.718970068511e-04
   277   -1.473368008490e-04
   278   -2.872564157424e-04
   279   -1.601626578135e-04
   280    4.914605807341e-02
   281    6.297776293921e-02
   282    3.374998436446e-01
   283   -4.019259425269e-03
   284    2.669911701480e-03
   285   -4.146199094177e-03
   286    3.209256784940e-02
   287    3.826375260327e-02
   288    2.213610498517e-01
   289    6.055883380882e-04
   290   -1.907680403106e-03
   291    3.902010542354e-03
   292   -3.263807806302e-02
   293   -4.019420067899e-02
   294   -2.262351238437e-01
   295    1.328582768157e-03
   296   -1.814838740529e-03
   297    3.930583862098e-03
   298   -2.192800022426e-02
   299   -2.787249919537e-02
   300   -1.497983089160e-01
   301   -1.181141115877e-03
   302    1.269339607573e-03
   303   -2.487830336465e-03
   304   -3.255440633567e-02
   305   -4.236285480533e-02
   306   -1.951179324540e-01
   307   -2.660117182908e-03
   308   -6.742895934005e-05
   309    1.157821164816e-03
   310   -1.109852806730e-03
   311   -2.688408996402e-03
   312    6.535555481509e-03
   313   -6.328138840184e-03
   314    3.409044774185e-02
   315    1.528471679980e-01
   316   -5.582571562119e-02
   317   -2.337922119400e-02
   318    1.391614488934e-01
   319   -5.343230493328e-02
   320   -1.919772738819e-02
   321    2.584674034443e-01
   322   -9.007227153406e-02
   323   -5.038027134653e-02
   324   -1.658289216964e-05
   325    1.288307696998e-03
   326   -2.153260083737e-04
   327    2.292799236779e-04
   328    6.517511614220e-04
   329   -1.720167712819e-03
   330    2.168550581628e-03
   331   -5.597087641061e-04
   332    2.919091946137e-03
   333   -3.113192511419e-05
   334    8.799497744967e-05
   335   -2.438864954907e-04
   336    3.608765457924e-04
   337   -6.311332468194e-04
   338   -1.056852975463e-03
   339   -1.076671163178e-03
   340    9.251518697887e-04
   341   -9.574074149998e-04
   342   -2.135639638116e-03
   343    2.826935531643e-03
   344    8.032734233618e-03
   345    1.023309997108e-02
   346    6.907474352238e-02
   347    2.730227877717e-02
   348    8.933392905330e-02
   349    6.633530219145e-02
   350    2.481783171643e-02
   351    8.228360618036e-02
   352    1.036595145376e-01
   353    4.846593027885e-02
   354    1.513957386171e-01
   355   -5.769935494566e-04
   356    3.985418533114e-04
   357   -3.720781551286e-04
   358    4.061131431555e-04
   359    1.357092706865e-04
   360   -6.339459890052e-04
   361    2.476842956122e-03
   362   -1.455805816123e-04
   363    1.731867427838e-03
   364    5.653766989107e-04
   365   -4.073803104543e-05
   366   -5.616432110106e-05
   367   -9.443482783697e-04
   368   -5.181035186233e-04
   369   -1.640743025558e-04
   370   -8.037422985495e-04
   371    8.232272891984e-05
   372    2.452288602045e-04
   373    5.796507679140e-04
   374   -9.866264379677e-04
   375   -2.728358160606e-04
   376   -6.612344338413e-03
   377    8.693820035470e-02
   378    3.321521803229e-02
   379    8.931966820093e-02
   380    8.187172476857e-02
   381    3.037460458882e-02
   382    8.174270597236e-02
   383    1.383053592992e-01
   384    5.606188730664e-02
   385    1.538179448046e-01
   386    6.596155465023e-04
   387   -1.376800560409e-03
   388    5.888101940641e-04
   389   -6.411659327664e-04
   390   -4.040868816556e-04
   391    1.103114900321e-03
   392   -5.244239566153e-03
   393    4.927923287483e-04
   394   -2.353411858387e-03
   395   -2.163200265940e-03
   396   -2.812954427318e-05
   397   -2.336459935602e-04
   398   -9.917856368031e-04
   399   -6.022229818127e-04
   400   -4.724679287368e-04
   401   -9.967170996487e-04
   402   -2.471953253403e-05
   403   -1.265166509272e-04
   404   -2.861305377000e-04
   405    7.301906379893e-04
   406    1.017343529434e-05
   407    3.208772198764e-04
   408    9.131141397386e-02
   409   -1.093173784318e-02
   410    1.153592956485e-02
   411    8.455834221391e-02
   412   -9.427007138152e-03
   413    1.190720671580e-02
   414    1.508264920452e-01
   415   -2.221095224467e-02
   416    1.066739432163e-02
   417    7.651594814463e-04
   418   -9.069985866430e-04
   419    5.354084617640e-04
   420   -6.932222686466e-04
   421   -2.056771976590e-04
   422    2.668381147040e-03
   423   -3.090470880859e-03
   424    1.553570092237e-03
   425   -3.021775978290e-03
   426   -4.180940726448e-04
   427    4.699307173341e-06
   428   -3.865397312538e-05
   429   -1.840036777035e-04
   430   -3.407112234971e-04
   431   -5.815775854865e-04
   432   -8.882954675414e-04
   433    3.661095479803e-04
   434    3.238796978322e-03
   435    7.497384323651e-03
   436   -1.471017153667e-02
   437   -9.878175893908e-03
   438   -4.640688816511e-02
   439    6.729595015984e-02
   440    1.460165021433e-05
   441    2.893411161233e-02
   442    6.575231333260e-02
   443   -1.915062421973e-04
   444    2.833785422662e-02
   445    9.820395943368e-02
   446    9.695830656229e-04
   447    4.220465981560e-02
   448   -6.901094115531e-04
   449    1.228426806982e-03
   450   -2.870820567530e-04
   451    1.230467939844e-03
   452    1.764706039836e-04
   453   -2.121314595255e-03
   454    2.734734183142e-03
   455   -1.790996302154e-03
   456    2.027005180756e-03
   457    8.290485915351e-04
   458    5.043527228002e-04
   459    1.389732550288e-04
   460    1.670394789712e-04
   461   -5.719001398877e-04
   462    1.473386767688e-04
   463   -2.872596948411e-04
   464   -1.601631706182e-04
   465   -4.914592300445e-02
   466   -6.297758420386e-02
   467   -3.374989147390e-01
   468   -4.019237822590e-03
   469    2.669902669574e-03
   470    4.146186606464e-03
   471    3.263795827624e-02
   472    4.019406081638e-02
   473    2.262342657338e-01
   474    1.328587138848e-03
   475   -1.814834416219e-03
   476   -3.930567234678e-03
   477   -3.209309004208e-02
   478   -3.826441397360e-02
   479   -2.213645787069e-01
   480    6.055906717730e-04
   481   -1.907717477700e-03
   482   -3.902066519201e-03
   483    2.192836384346e-02
   484    2.787295919013e-02
   485    1.498008058295e-01
   486   -1.181166620816e-03
   487    1.269366236855e-03
   488    2.487863577505e-03
   489    3.255463447966e-02
   490    4.236313202210e-02
   491    1.951194076036e-01
   492   -2.660132288470e-03
   493   -6.743240731567e-05
   494   -1.157831867068e-03
[5D7F]

======= END OF MOLDEN-FORMATTED INPUT FILE =======


        *************************************************************
        *                                                           *
        *  Thank you very much for using Q-Chem.  Have a nice day.  *
        *                                                           *
        *************************************************************


