                  Welcome to Q-Chem
     A Quantum Leap Into The Future Of Chemistry


 Q-Chem 6.2 (devel), Q-Chem, Inc., Pleasanton, CA (2024)

 E. Epifanovsky,  A. T. B. Gilbert,  Xintian Feng,  Joonho Lee,  Yuezhi Mao,  
 N. Mardirossian,  P. Pokhilko,  A. White,  M. Wormit,  M. P. Coons,  
 A. L. Dempwolff,  Zhengting Gan,  D. Hait,  P. R. Horn,  L. D. Jacobson,  
 I. Kaliman,  J. Kussmann,  A. W. Lange,  Ka Un Lao,  D. S. Levine,  Jie Liu,  
 S. C. McKenzie,  A. F. Morrison,  K. D. Nanda,  F. Plasser,  D. R. Rehn,  
 M. L. Vidal,  Zhi-Qiang You,  Ying Zhu,  Huseyin Aksu,  B. Alam,  
 B. Albrecht,  A. Aldossary,  E. Alguire,  J. H. Andersen,  
 J. E. Arias-Martinez,  V. Athavale,  D. Barton,  K. Begam,  A. Behn,  
 N. Bellonzi,  Y. A. Bernard,  E. J. Berquist,  H. Burton,  A. Carreras,  
 K. Carter-Fenk,  Mathew Chow,  Romit Chakraborty,  Chandrima Chakravarty,  
 Junhan Chen,  A. D. Chien,  K. D. Closser,  V. Cofer-Shabica,  L. Cunha,  
 S. Dasgupta,  Jia Deng,  Joseph Dickinson,  M. de Wergifosse,  
 M. Diedenhofen,  Hainam Do,  Wenjie Dou,  S. Ehlert,  Po-Tung Fang,  
 S. Fatehi,  Qingguo Feng,  Jonathan Fetherolf,  T. Friedhoff,  
 Thomas Froitzheim,  Sarai Folkestad,  B. Ganoe,  J. Gayvert,  Qinghui Ge,  
 G. Gidofalvi,  M. Gimferrer,  M. Goldey,  Montgomery Gray,  J. Gomes,  
 C. Gonzalez-Espinoza,  S. Gulania,  A. Gunina,  J. A. Gyamfi,  
 M. W. D. Hanson-Heine,  P. H. P. Harbach,  A. W. Hauser,  M. F. Herbst,  
 M. Hernandez Vera,  M. Hodecker,  Z. C. Holden,  S. Houck,  Xunkun Huang,  
 Kerwin Hui,  B. C. Huynh,  K. Ikeda,  M. Ivanov,  Nayanthara K. Jayadev,  
 Hyunjun Ji,  Zuxin Jin,  Hanjie Jiang,  Subrata Jana,  B. Kaduk,  
 S. Kaehler,  R. Kang,  K. Khistyaev,  Jaehoon Kim,  Yongbin Kim,  
 P. Klunzinger,  Z. Koczor-Benda,  Joong Hoon Koh,  D. Kosenkov,  
 Saikiran Kotaru,  L. Koulias,  T. Kowalczyk,  C. M. Krauter,  K. Kue,  
 A. Kunitsa,  T. Kus,  A. Landau,  K. V. Lawler,  D. Lefrancois,  S. Lehtola,  
 Rain Li,  Shaozhi Li,  Tao E. Li,  Yi-Pei Li,  Jiashu Liang,  M. Liebenthal,  
 Hung-Hsuan Lin,  You-Sheng Lin,  Fenglai Liu,  Kuan-Yu Liu,  Xiao Liu,  
 M. Loipersberger,  A. Luenser,  C. Malbon,  Aniket Mandal,  Manisha,  
 A. Manjanath,  P. Manohar,  E. Mansoor,  S. F. Manzer,  Shan-Ping Mao,  
 A. V. Marenich,  T. Markovich,  S. Mason,  F. Matz,  S. A. Maurer,  
 Samuel May,  Alexandra McIsaac,  P. F. McLaughlin,  M. F. S. J. Menger,  
 J.-M. Mewes,  S. A. Mewes,  P. Morgante,  Mohammad Mostafanejad,  
 Madhubani Mukherjee,  J. W. Mullinax,  Quyen Nguyen,  Avik Kumar Ojha,  
 K. J. Oosterbaan,  Eno Paenurk,  Xiaoliang Pan,  G. Paran,  V. Parravicini,  
 Alexander C. Paul,  Suranjan K. Paul,  F. Pavosevic,  Zheng Pei,  S. Prager,  
 E. I. Proynov,  E. Ramos,  B. Rana,  A. E. Rask,  A. Rettig,  R. M. Richard,  
 F. Rob,  E. Rossomme,  T. Scheele,  M. Scheurer,  M. Schneider,  
 P. E. Schneider,  Tim K. Schramm,  N. Sergueev,  S. M. Sharada,  
 Hengyuan Shen,  W. Skomorowski,  D. W. Small,  C. J. Stein,  
 Alistair J. Sterling,  Yingli Su,  Yu-Chuan Su,  E. J. Sundstrom,  
 J. Talbot,  Zhen Tao,  J. Thirman,  Hung-Yi Tsai,  T. Tsuchimochi,  
 N. M. Tubman,  C. Utku,  S. P. Veccham,  O. Vydrov,  Rahel Weiss,  
 J. Wenzel,  Jonathan Wong,  J. Witte,  H. Wu,  Yanze Wu,  A. Yamada,  
 Chou-Hsun Yang,  Kun Yao,  S. Yeganeh,  S. R. Yost,  Qi Yu,  A. Zech,  
 F. Zeller,  Chongxiao Zhao,  Igor Ying Zhang,  Xing Zhang,  Yu Zhang,  
 D. Zuev,  A. Aspuru-Guzik,  A. T. Bell,  N. A. Besley,  K. B. Bravaya,  
 B. R. Brooks,  D. Casanova,  Jeng-Da Chai,  Hsing-Ta Chen,  S. Coriani,  
 C. J. Cramer,  A. E. DePrince, III,  R. A. DiStasio Jr.,  A. Dreuw,  
 B. D. Dunietz,  T. R. Furlani,  W. A. Goddard III,  S. Grimme,  
 S. Hammes-Schiffer,  T. Head-Gordon,  W. J. Hehre,  Chao-Ping Hsu,  
 T.-C. Jagau,  Yousung Jung,  A. Klamt,  Jing Kong,  D. S. Lambrecht,  
 Xiangyuan Li,  WanZhen Liang,  N. J. Mayhall,  C. W. McCurdy,  J. B. Neaton,  
 T. Neudecker,  C. Ochsenfeld,  J. A. Parkhill,  R. Peverati,  
 V. A. Rassolov,  Haisheng Ren,  Yihan Shao,  L. V. Slipchenko,  
 R. P. Steele,  J. E. Subotnik,  A. J. W. Thom,  A. Tkatchenko,  
 D. G. Truhlar,  T. Van Voorhis,  Fan Wang,  T. A. Wesolowski,  K. B. Whaley,  
 H. L. Woodcock III,  P. M. Zimmerman,  S. Faraji,  P. M. W. Gill,  
 M. Head-Gordon,  J. M. Herbert,  A. I. Krylov

 Contributors to earlier versions of Q-Chem not listed above: 
 R. D. Adamson,  B. Austin,  R. Baer,  J. Baker,  G. J. O. Beran,  
 K. Brandhorst,  S. T. Brown,  E. F. C. Byrd,  Arup K. Chakraborty,  
 G. K. L. Chan,  Chun-Min Chang,  Yunqing Chen,  C.-L. Cheng,  
 Siu Hung Chien,  D. M. Chipman,  D. L. Crittenden,  H. Dachsel,  
 R. J. Doerksen,  A. D. Dutoi,  R. G. Edgar,  J. Fosso-Tande,  
 L. Fusti-Molnar,  D. Ghosh,  A. Ghysels,  A. Golubeva-Zadorozhnaya,  
 J. Gonthier,  M. S. Gordon,  S. R. Gwaltney,  G. Hawkins,  J. E. Herr,  
 A. Heyden,  S. Hirata,  E. G. Hohenstein,  G. Kedziora,  F. J. Keil,  
 C. Kelley,  Jihan Kim,  R. A. King,  R. Z. Khaliullin,  P. P. Korambath,  
 W. Kurlancheek,  A. Laurent,  A. M. Lee,  M. S. Lee,  S. V. Levchenko,  
 Ching Yeh Lin,  D. Liotard,  E. Livshits,  R. C. Lochan,  I. Lotan,  
 L. A. Martinez-Martinez,  P. E. Maslen,  N. Nair,  D. P. O'Neill,  
 D. Neuhauser,  E. Neuscamman,  C. M. Oana,  R. Olivares-Amaya,  R. Olson,  
 T. M. Perrine,  B. Peters,  P. A. Pieniazek,  A. Prociuk,  Y. M. Rhee,  
 J. Ritchie,  M. A. Rohrdanz,  E. Rosta,  N. J. Russ,  H. F. Schaefer III,  
 M. W. Schmidt,  N. E. Schultz,  S. Sharma,  N. Shenvi,  C. D. Sherrill,  
 A. C. Simmonett,  A. Sodt,  T. Stein,  D. Stuck,  K. S. Thanthiriwatte,  
 V. Vanovschi,  L. Vogt,  Tao Wang,  A. Warshel,  M. A. Watson,  
 C. F. Williams,  Q. Wu,  X. Xu,  Jun Yang,  W. Zhang,  Yan Zhao

   Please cite Q-Chem as follows:
  "Software for the frontiers of quantum chemistry:
   An overview of developments in the Q-Chem 5 package"
   J. Chem. Phys. 155, 084801 (2021)
   https://doi.org/10.1063/5.0055522 (open access)

 Q-Chem 6.2.1 for Intel X86 EM64T Linux

 Parts of Q-Chem use Armadillo 9.900.5 (Nocturnal Misbehaviour).
 http://arma.sourceforge.net/

 Q-Chem begins on Mon Nov  4 11:16:52 2024  

 Host: atlas-272
0

     Scratch files written to QCSCRATCH/qchem184656//
 Processing $rem in /scratch/abel/SOFTWARE/qchem_trunk/config/preferences:
 Processing $rem in /dipc/acebg/.qchemrc:

 Checking the input file for inconsistencies... 	...done.

--------------------------------------------------------------
User input:
--------------------------------------------------------------
$comment
 TD-DFT/TDA CALCULATION
$end

$molecule
 READ benzoquinone.molecule
$end

$rem
!**REFERENCE***     
JOBTYPE            SP
EXCHANGE           B3LYP   !gen:specify in $xc_functional
CORRELATION        NONE
BASIS              def2-TZVP 

!***SCF REFERENCE***
INPUT_BOHR          TRUE
!SKIP_SCFMAN        FALSE
!UNRESTRICTED       FALSE !rectricted-TDDFT not avail in doublets
!SCF_GUESS          core
!SCF_GUESS_MIX      FALSE
!SCF_GUESS_ALWAYS   FALSE
MAX_SCF_CYCLES     999
!SCF_CONVERGENCE    10
!SCF_ALGORITHM      DIIS_GDM !DIIS,DM,DIIS_DM,GDM,DIIS_GDM,GD

!SYMMETRY           TRUE !use of symmetry for calculating integrals
!SYM_IGNORE         FALSE !turn off using symmetry
!SYM_TOL            5 !tolerance for determining point group

!THRESH             14
!SCF_FINAL_PRINT    2 !0,1,2,3

!****CIS****
CIS_N_ROOTS        50
!CIS_CONVERGENCE   10
MAX_CIS_CYCLES     200
!CIS_SINGLETS      true
!CIS_TRIPLETS      true
CALC_SOC           2 !not available in doublets in TDDFT
!STS_ANGMOM        true
!RPA                FALSE !RPA=1 TDA calc used as guess of TDDFT

!Spin-orbit coupling calculations are implemented for
!restricted, unrestricted CIS/TDDFT, and SF TDDFT
!using Wigner-Eckart theorem: Try CALC_SOC = 2.

!****MEMORY****
MEM_TOTAL           220000        !Default 2000 MB
!MEM_STATIC         10000         !Default 64 MB
CIS_DYNAMIC_MEM     TRUE

!**Molecular Properties and Analysis **
!POP_MULLIKEN       FALSE   !Run Mulliken population analysis
!LOWDIN_POPULATION  FALSE  !Run Löwdin population analysis
!GUI                0
!STATE_ANALYSIS     TRUE
!MOLDEN_FORMAT      FALSE
!PRINT_ORBITALS     5
$end

--------------------------------------------------------------
 ----------------------------------------------------------------
             Standard Nuclear Orientation (Bohr)
    I     Atom           X                Y                Z
 ----------------------------------------------------------------
    1      O       0.0000000000    -0.0000000000     5.0873465738
    2      C       0.0000000000    -0.0000000000     2.6403222818
    3      C       2.3453549260    -0.0000000000     1.3021362826
    4      C      -2.3453549260     0.0000000000     1.3021362826
    5      C      -2.3309491506     0.0000000000    -1.2666211182
    6      C       2.3309491506    -0.0000000000    -1.2666211182
    7      C      -0.0000000000     0.0000000000    -2.7415020535
    8      O      -0.0000000000     0.0000000000    -5.0815679785
    9      H       4.0818321701    -0.0000000000     2.3803198434
   10      H      -4.0818321701     0.0000000000     2.3803198434
   11      H       4.0900977079    -0.0000000000    -2.3129858956
   12      H      -4.0900977079     0.0000000000    -2.3129858956
 ----------------------------------------------------------------
 Molecular Point Group                 C2v   NOp =  4
 Largest Abelian Subgroup              C2v   NOp =  4
 Nuclear Repulsion Energy =         323.04806769 hartrees
 There are       29 alpha and       27 beta electrons
 Requested basis set is def2-TZVP
 There are 104 shells and 272 basis functions

 Total QAlloc Memory Limit 220000 MB
 Mega-Array Size       188 MB
 MEM_STATIC part       192 MB


                       Distance Matrix (Bohrs)
             O (  1)   C (  2)   C (  3)   C (  4)   C (  5)   C (  6)
   C (  2)  2.447024
   C (  3)  4.452921  2.700265
   C (  4)  4.452921  2.700265  4.690710
   C (  5)  6.768030  4.549454  5.335385  2.568798
   C (  6)  6.768030  4.549454  2.568798  5.335385  4.661898
   C (  7)  7.828849  5.381824  4.674580  4.674580  2.758369  2.758369
   O (  8) 10.168915  7.721890  6.800909  6.800909  4.470698  4.470698
   H (  9)  4.897892  4.090105  2.043975  6.516994  7.377258  4.045463
   H ( 10)  4.897892  4.090105  6.516994  2.043975  4.045463  7.377258
   H ( 11)  8.455402  6.423719  4.014130  7.381339  6.505745  2.046823
   H ( 12)  8.455402  6.423719  7.381339  4.014130  2.046823  6.505745
             C (  7)   O (  8)   H (  9)   H ( 10)   H ( 11)
   O (  8)  2.340066
   H (  9)  6.549383  8.505359
   H ( 10)  6.549383  8.505359  8.163664
   H ( 11)  4.112484  4.939023  4.693313  9.423776
   H ( 12)  4.112484  4.939023  9.423776  4.693313  8.180195
 
 A cutoff of  1.0D-12 yielded   5055 shell pairs
 There are     35213 function pairs (     46376 Cartesian)
 Smallest overlap matrix eigenvalue = 1.49E-05

 Scale SEOQF with 1.000000e-01/1.000000e+00/1.000000e-01

 Standard Electronic Orientation quadrupole field applied
 Nucleus-field energy     =    -0.0000000149 hartrees
 Guess from superposition of atomic densities
 Warning:  Energy on first SCF cycle will be non-variational
 SAD guess density has 56.000000 electrons

 -----------------------------------------------------------------------
  General SCF calculation program by
  Eric Jon Sundstrom, Paul Horn, Yuezhi Mao, Dmitri Zuev, Alec White,
  David Stuck, Shaama M.S., Shane Yost, Joonho Lee, David Small,
  Daniel Levine, Susi Lehtola, Hugh Burton, Evgeny Epifanovsky,
  Bang C. Huynh
 -----------------------------------------------------------------------
 Exchange:     0.2000 Hartree-Fock + 0.0800 Slater + 0.7200 B88
 Correlation:  0.1900 VWN1RPA + 0.8100 LYP
 Using SG-1 standard quadrature grid
 A unrestricted SCF calculation will be
 performed using DIIS
 SCF converges when DIIS error is below 1.0e-08
 ---------------------------------------
  Cycle       Energy         DIIS error
 ---------------------------------------
    1    -383.2150229807      1.71e-02  
    2    -381.4132072792      1.85e-03  
    3    -381.3332630933      2.66e-03  
    4    -381.4839368221      1.08e-03  
    5    -381.4318134541      1.57e-03  
    6    -381.5263420359      2.24e-04  
    7    -381.5250176827      3.22e-04  
    8    -381.5255168061      3.10e-04  
    9    -381.5257569507      3.07e-04  
   10    -381.5263537367      3.00e-04  
   11    -381.5273480181      2.72e-04  
   12    -381.5280425742      2.54e-04  
   13    -381.5287241485      2.38e-04  
   14    -381.5292406120      2.28e-04  
   15    -381.5292189969      2.27e-04  
   16    -381.5300135097      1.86e-04  
   17    -381.5297440398      2.29e-04  
   18    -381.5290263375      2.63e-04  
   19    -381.5314624290      1.42e-04  
   20    -381.5318388645      1.16e-04  
   21    -381.5321332402      8.93e-05  
   22    -381.5324839077      3.02e-05  
   23    -381.5325248412      3.20e-06  
   24    -381.5325276896      1.78e-06  
   25    -381.5325288473      1.28e-06  
   26    -381.5325292017      3.96e-07  
   27    -381.5325292031      3.37e-07  
   28    -381.5325292088      9.36e-08  
   29    -381.5325292091      3.89e-08  
   30    -381.5325292091      1.07e-08  
   31    -381.5325292092      2.47e-09  Convergence criterion met
 ---------------------------------------
 SCF time:   CPU 465.01s  wall 470.00s 
<S^2> =          2.026906346
 SCF   energy =  -381.53252921
 Total energy =  -381.53252921
 MAX_CIS_SUBSPACE fits in available memory
 Direct TDDFT/TDA calculation will be performed
 Exchange:     0.2000 Hartree-Fock + 0.0800 Slater + 0.7200 B88
 Correlation:  0.1900 VWN1RPA + 0.8100 LYP
 Using SG-1 standard quadrature grid
 CIS energy converged when residual is below 10e- 6
 ---------------------------------------------------
 Iter    Rts Conv    Rts Left    Ttl Dev     Max Dev
 ---------------------------------------------------
   1         0          50      0.027758    0.002275
   2         0          50      0.004836    0.000450
   3         0          50      0.000866    0.000101
   4        20          30      0.000474    0.000312
   5        41           9      0.000289    0.000160
   6        46           4      0.000096    0.000045
   7        48           2      0.000036    0.000015
   8        48           2      0.000019    0.000004
   9        49           1      0.000016    0.000001
  10        50           0      0.000015    0.000001    Roots Converged
 ---------------------------------------------------
 
 ---------------------------------------------------
         TDDFT/TDA Excitation Energies              
 ---------------------------------------------------

 Excited state   1: excitation energy (eV) =       0.3816
 Total energy for state   1:                  -381.51850482 au
    <S**2>     :  2.0397
    Trans. Mom.:  0.0000 X   0.0000 Y  -0.2584 Z
    Strength   :     0.0006241731
    D(   27) --> S(    1) amplitude =  0.9978 beta

 Excited state   2: excitation energy (eV) =       0.5983
 Total energy for state   2:                  -381.51054237 au
    <S**2>     :  2.0229
    Trans. Mom.: -0.0000 X  -0.0000 Y   0.0000 Z
    Strength   :     0.0000000000
    D(   20) --> S(    1) amplitude = -0.2076 beta
    D(   23) --> S(    1) amplitude = -0.2412 beta
    D(   25) --> S(    1) amplitude =  0.9467 beta

 Excited state   3: excitation energy (eV) =       0.9932
 Total energy for state   3:                  -381.49602862 au
    <S**2>     :  2.0358
    Trans. Mom.: -0.0000 X   0.0172 Y   0.0000 Z
    Strength   :     0.0000071607
    D(   26) --> S(    1) amplitude =  0.9996 beta

 Excited state   4: excitation energy (eV) =       1.5554
 Total energy for state   4:                  -381.47536810 au
    <S**2>     :  2.0727
    Trans. Mom.:  0.0000 X  -0.0000 Y  -0.0000 Z
    Strength   :     0.0000000000
    D(   27) --> S(    2) amplitude =  0.9852 beta

 Excited state   5: excitation energy (eV) =       3.1015
 Total energy for state   5:                  -381.41855038 au
    <S**2>     :  2.0608
    Trans. Mom.: -0.0856 X   0.0000 Y   0.0000 Z
    Strength   :     0.0005564610
    S(    2) --> V(    1) amplitude = -0.4371 alpha
    D(   26) --> S(    2) amplitude =  0.8843 beta

 Excited state   6: excitation energy (eV) =       3.3128
 Total energy for state   6:                  -381.41078466 au
    <S**2>     :  2.0324
    Trans. Mom.:  0.0000 X  -0.0000 Y   0.0000 Z
    Strength   :     0.0000000000
    D(   20) --> S(    1) amplitude =  0.5406 beta
    D(   23) --> S(    1) amplitude =  0.7773 beta
    D(   25) --> S(    1) amplitude =  0.3186 beta

 Excited state   7: excitation energy (eV) =       3.4883
 Total energy for state   7:                  -381.40433669 au
    <S**2>     :  2.0486
    Trans. Mom.: -0.0000 X  -0.0000 Y  -0.5022 Z
    Strength   :     0.0215516443
    S(    2) --> V(    2) amplitude =  0.4814 alpha
    D(   24) --> S(    1) amplitude =  0.2928 beta
    D(   25) --> S(    2) amplitude =  0.8041 beta

 Excited state   8: excitation energy (eV) =       3.7739
 Total energy for state   8:                  -381.39384082 au
    <S**2>     :  2.0510
    Trans. Mom.:  0.6070 X  -0.0000 Y  -0.0000 Z
    Strength   :     0.0340629355
    S(    2) --> V(    1) amplitude =  0.6918 alpha
    D(   16) --> S(    1) amplitude =  0.1501 beta
    D(   21) --> S(    1) amplitude = -0.3912 beta
    D(   22) --> S(    1) amplitude = -0.4168 beta
    D(   26) --> S(    2) amplitude =  0.3707 beta

 Excited state   9: excitation energy (eV) =       3.8662
 Total energy for state   9:                  -381.39044749 au
    <S**2>     :  2.0386
    Trans. Mom.:  0.0000 X   0.0000 Y   0.3984 Z
    Strength   :     0.0150374101
    S(    2) --> V(    2) amplitude = -0.3599 alpha
    D(   24) --> S(    1) amplitude =  0.9003 beta

 Excited state  10: excitation energy (eV) =       4.0887
 Total energy for state  10:                  -381.38227331 au
    <S**2>     :  2.0442
    Trans. Mom.:  0.5418 X   0.0000 Y  -0.0000 Z
    Strength   :     0.0294051677
    S(    2) --> V(    1) amplitude =  0.5298 alpha
    D(   16) --> S(    1) amplitude = -0.2387 beta
    D(   18) --> S(    1) amplitude = -0.2008 beta
    D(   21) --> S(    1) amplitude =  0.3780 beta
    D(   22) --> S(    1) amplitude =  0.6281 beta
    D(   26) --> S(    2) amplitude =  0.2185 beta

 Excited state  11: excitation energy (eV) =       4.5682
 Total energy for state  11:                  -381.36465030 au
    <S**2>     :  2.0383
    Trans. Mom.:  0.0000 X  -0.0000 Y   0.0000 Z
    Strength   :     0.0000000000
    D(   20) --> S(    1) amplitude =  0.8131 beta
    D(   23) --> S(    1) amplitude = -0.5802 beta

 Excited state  12: excitation energy (eV) =       4.7117
 Total energy for state  12:                  -381.35937737 au
    <S**2>     :  3.5061
    Trans. Mom.: -0.0000 X   0.0000 Y  -0.5944 Z
    Strength   :     0.0407901653
    D(   27) --> V(    1) amplitude =  0.7158 alpha
    S(    2) --> V(    2) amplitude = -0.3517 alpha
    D(   23) --> S(    2) amplitude = -0.2059 beta
    D(   24) --> S(    1) amplitude = -0.1683 beta
    D(   26) --> V(    1) amplitude =  0.4840 beta

 Excited state  13: excitation energy (eV) =       4.7314
 Total energy for state  13:                  -381.35865431 au
    <S**2>     :  3.7029
    Trans. Mom.: -0.0000 X  -0.0015 Y   0.0000 Z
    Strength   :     0.0000002572
    S(    1) --> V(    1) amplitude =  0.9212 alpha
    D(   27) --> V(    1) amplitude =  0.3764 beta

 Excited state  14: excitation energy (eV) =       4.7658
 Total energy for state  14:                  -381.35738784 au
    <S**2>     :  2.0378
    Trans. Mom.:  0.0853 X  -0.0000 Y  -0.0000 Z
    Strength   :     0.0008487208
    D(   16) --> S(    1) amplitude = -0.3009 beta
    D(   21) --> S(    1) amplitude =  0.6946 beta
    D(   22) --> S(    1) amplitude = -0.6406 beta

 Excited state  15: excitation energy (eV) =       4.9748
 Total energy for state  15:                  -381.34970731 au
    <S**2>     :  2.3180
    Trans. Mom.:  0.0000 X   0.0109 Y   0.0000 Z
    Strength   :     0.0000144105
    S(    1) --> V(    1) amplitude = -0.3811 alpha
    D(   27) --> V(    1) amplitude =  0.9208 beta

 Excited state  16: excitation energy (eV) =       5.2766
 Total energy for state  16:                  -381.33861611 au
    <S**2>     :  3.4272
    Trans. Mom.: -0.0000 X  -0.0000 Y  -0.0000 Z
    Strength   :     0.0000000000
    S(    1) --> V(    2) amplitude =  0.9297 alpha
    D(   24) --> S(    2) amplitude = -0.2061 beta
    D(   27) --> V(    2) amplitude =  0.2490 beta

 Excited state  17: excitation energy (eV) =       5.4376
 Total energy for state  17:                  -381.33270035 au
    <S**2>     :  2.3596
    Trans. Mom.:  0.0000 X  -0.0000 Y   1.2315 Z
    Strength   :     0.2020410702
    S(    2) --> V(    2) amplitude =  0.5811 alpha
    D(   19) --> S(    1) amplitude =  0.4689 beta
    D(   25) --> S(    2) amplitude = -0.4169 beta
    D(   26) --> V(    1) amplitude =  0.4388 beta

 Excited state  18: excitation energy (eV) =       5.5679
 Total energy for state  18:                  -381.32791095 au
    <S**2>     :  2.1199
    Trans. Mom.:  0.0000 X   0.0000 Y  -0.5771 Z
    Strength   :     0.0454354512
    S(    2) --> V(    2) amplitude = -0.2478 alpha
    D(   19) --> S(    1) amplitude =  0.8640 beta
    D(   24) --> S(    1) amplitude = -0.1654 beta
    D(   25) --> S(    2) amplitude =  0.1845 beta
    D(   26) --> V(    1) amplitude = -0.3333 beta

 Excited state  19: excitation energy (eV) =       5.5897
 Total energy for state  19:                  -381.32711333 au
    <S**2>     :  2.0607
    Trans. Mom.: -0.0000 X   0.0000 Y   0.0000 Z
    Strength   :     0.0000000000
    S(    1) --> V(    2) amplitude =  0.3166 alpha
    D(   24) --> S(    2) amplitude =  0.8113 beta
    D(   27) --> V(    2) amplitude = -0.4675 beta

 Excited state  20: excitation energy (eV) =       5.8228
 Total energy for state  20:                  -381.31854372 au
    <S**2>     :  2.0867
    Trans. Mom.: -0.0000 X  -0.0831 Y  -0.0000 Z
    Strength   :     0.0009855623
    D(   22) --> S(    2) amplitude =  0.9758 beta

 Excited state  21: excitation energy (eV) =       5.8851
 Total energy for state  21:                  -381.31625573 au
    <S**2>     :  2.3867
    Trans. Mom.: -0.0000 X  -0.0000 Y  -0.3777 Z
    Strength   :     0.0205647934
    D(   26) --> V(    2) amplitude = -0.3227 alpha
    D(   23) --> S(    2) amplitude =  0.8525 beta
    D(   25) --> V(    2) amplitude = -0.1775 beta
    D(   26) --> V(    1) amplitude =  0.1904 beta

 Excited state  22: excitation energy (eV) =       5.9711
 Total energy for state  22:                  -381.31309710 au
    <S**2>     :  2.5292
    Trans. Mom.:  0.0000 X   0.0000 Y   0.0000 Z
    Strength   :     0.0000000000
    D(   24) --> S(    2) amplitude =  0.5359 beta
    D(   27) --> V(    2) amplitude =  0.8195 beta

 Excited state  23: excitation energy (eV) =       6.0138
 Total energy for state  23:                  -381.31152603 au
    <S**2>     :  3.7858
    Trans. Mom.:  0.0110 X   0.0000 Y   0.0000 Z
    Strength   :     0.0000179601
    D(   26) --> V(    1) amplitude =  0.4123 alpha
    D(   27) --> V(    2) amplitude = -0.3475 alpha
    D(   25) --> V(    1) amplitude =  0.7908 beta
    D(   26) --> V(    2) amplitude = -0.1810 beta

 Excited state  24: excitation energy (eV) =       6.1750
 Total energy for state  24:                  -381.30560095 au
    <S**2>     :  2.0510
    Trans. Mom.:  0.3200 X  -0.0000 Y  -0.0000 Z
    Strength   :     0.0154963208
    D(   16) --> S(    1) amplitude =  0.2831 beta
    D(   18) --> S(    1) amplitude =  0.8702 beta
    D(   21) --> S(    1) amplitude =  0.3326 beta

 Excited state  25: excitation energy (eV) =       6.1805
 Total energy for state  25:                  -381.30540103 au
    <S**2>     :  2.0440
    Trans. Mom.:  0.0000 X   0.0330 Y  -0.0000 Z
    Strength   :     0.0001645784
    S(    2) --> V(    3) amplitude =  0.9932 alpha

 Excited state  26: excitation energy (eV) =       6.5878
 Total energy for state  26:                  -381.29043136 au
    <S**2>     :  3.8356
    Trans. Mom.: -0.3013 X   0.0000 Y   0.0000 Z
    Strength   :     0.0146491385
    D(   26) --> V(    1) amplitude =  0.1626 alpha
    D(   27) --> V(    2) amplitude =  0.7175 alpha
    D(   25) --> V(    1) amplitude =  0.3473 beta
    D(   26) --> V(    2) amplitude =  0.5363 beta

 Excited state  27: excitation energy (eV) =       6.7256
 Total energy for state  27:                  -381.28536961 au
    <S**2>     :  2.0427
    Trans. Mom.:  0.0000 X  -0.0000 Y   0.0000 Z
    Strength   :     0.0000000000
    S(    2) --> V(    4) amplitude =  0.9970 alpha

 Excited state  28: excitation energy (eV) =       6.7714
 Total energy for state  28:                  -381.28368411 au
    <S**2>     :  2.1133
    Trans. Mom.:  0.1338 X  -0.0000 Y   0.0000 Z
    Strength   :     0.0029684265
    D(   16) --> S(    1) amplitude =  0.8299 beta
    D(   18) --> S(    1) amplitude = -0.3921 beta
    D(   21) --> S(    1) amplitude =  0.3004 beta
    D(   26) --> V(    2) amplitude = -0.2156 beta

 Excited state  29: excitation energy (eV) =       6.8130
 Total energy for state  29:                  -381.28215775 au
    <S**2>     :  2.0602
    Trans. Mom.: -0.0000 X   0.0000 Y   0.2801 Z
    Strength   :     0.0130976221
    D(   17) --> S(    1) amplitude =  0.8720 beta
    D(   20) --> S(    2) amplitude = -0.3597 beta
    D(   26) --> V(    1) amplitude =  0.1836 beta

 Excited state  30: excitation energy (eV) =       6.9735
 Total energy for state  30:                  -381.27625651 au
    <S**2>     :  2.0620
    Trans. Mom.:  0.0000 X   0.1221 Y   0.0000 Z
    Strength   :     0.0025489063
    S(    2) --> V(    5) amplitude =  0.9514 alpha
    S(    2) --> V(    6) amplitude = -0.1658 alpha
    D(   21) --> S(    2) amplitude =  0.2197 beta

 Excited state  31: excitation energy (eV) =       7.0039
 Total energy for state  31:                  -381.27513914 au
    <S**2>     :  2.2256
    Trans. Mom.: -0.1287 X   0.0000 Y  -0.0000 Z
    Strength   :     0.0028407507
    D(   26) --> V(    1) amplitude =  0.8036 alpha
    D(   27) --> V(    2) amplitude =  0.2325 alpha
    D(   25) --> V(    1) amplitude = -0.4113 beta
    D(   26) --> V(    2) amplitude = -0.2712 beta

 Excited state  32: excitation energy (eV) =       7.0548
 Total energy for state  32:                  -381.27327010 au
    <S**2>     :  2.1558
    Trans. Mom.:  0.0000 X   0.0596 Y  -0.0000 Z
    Strength   :     0.0006143106
    D(   25) --> V(    1) amplitude = -0.2189 alpha
    S(    2) --> V(    5) amplitude = -0.2244 alpha
    D(   21) --> S(    2) amplitude =  0.9213 beta

 Excited state  33: excitation energy (eV) =       7.0979
 Total energy for state  33:                  -381.27168554 au
    <S**2>     :  3.4208
    Trans. Mom.: -0.0000 X  -0.0000 Y  -0.1481 Z
    Strength   :     0.0038122397
    D(   26) --> V(    2) amplitude =  0.4046 alpha
    S(    2) --> V(    8) amplitude = -0.2326 alpha
    D(   23) --> S(    2) amplitude =  0.3449 beta
    D(   25) --> V(    2) amplitude =  0.7832 beta

 Excited state  34: excitation energy (eV) =       7.3414
 Total energy for state  34:                  -381.26273636 au
    <S**2>     :  3.4314
    Trans. Mom.:  0.0679 X   0.0000 Y   0.0000 Z
    Strength   :     0.0008288045
    S(    1) --> V(    3) amplitude =  0.2044 alpha
    D(   27) --> V(    3) amplitude =  0.9633 beta

 Excited state  35: excitation energy (eV) =       7.4918
 Total energy for state  35:                  -381.25721230 au
    <S**2>     :  2.1025
    Trans. Mom.: -0.0000 X   0.0000 Y   1.8769 Z
    Strength   :     0.6465999678
    D(   26) --> V(    2) amplitude = -0.1861 alpha
    D(   27) --> V(    1) amplitude =  0.3807 alpha
    S(    2) --> V(    2) amplitude =  0.1510 alpha
    S(    2) --> V(    8) amplitude =  0.1672 alpha
    D(   17) --> S(    1) amplitude =  0.3145 beta
    D(   20) --> S(    2) amplitude =  0.5904 beta
    D(   25) --> S(    2) amplitude = -0.1904 beta
    D(   26) --> V(    1) amplitude = -0.4248 beta

 Excited state  36: excitation energy (eV) =       7.4987
 Total energy for state  36:                  -381.25695822 au
    <S**2>     :  2.6869
    Trans. Mom.: -0.0000 X   0.0806 Y  -0.0000 Z
    Strength   :     0.0011949158
    D(   25) --> V(    1) amplitude =  0.9227 alpha
    S(    2) --> V(    6) amplitude = -0.2502 alpha
    D(   21) --> S(    2) amplitude =  0.2166 beta

 Excited state  37: excitation energy (eV) =       7.5290
 Total energy for state  37:                  -381.25584191 au
    <S**2>     :  2.0850
    Trans. Mom.: -0.0000 X   0.1060 Y  -0.0000 Z
    Strength   :     0.0020720941
    D(   25) --> V(    1) amplitude =  0.2578 alpha
    S(    2) --> V(    5) amplitude =  0.1572 alpha
    S(    2) --> V(    6) amplitude =  0.9430 alpha

 Excited state  38: excitation energy (eV) =       7.5658
 Total energy for state  38:                  -381.25449202 au
    <S**2>     :  2.6136
    Trans. Mom.: -0.1055 X   0.0000 Y   0.0000 Z
    Strength   :     0.0020625495
    S(    1) --> V(    3) amplitude =  0.9630 alpha
    D(   27) --> V(    3) amplitude = -0.2094 beta

 Excited state  39: excitation energy (eV) =       7.6539
 Total energy for state  39:                  -381.25125338 au
    <S**2>     :  2.0758
    Trans. Mom.:  0.0000 X   0.0000 Y  -0.0000 Z
    Strength   :     0.0000000000
    D(   19) --> S(    2) amplitude =  0.9835 beta

 Excited state  40: excitation energy (eV) =       7.7653
 Total energy for state  40:                  -381.24715866 au
    <S**2>     :  2.2644
    Trans. Mom.:  0.0000 X   0.0000 Y   0.7498 Z
    Strength   :     0.1069479556
    D(   26) --> V(    2) amplitude =  0.3347 alpha
    D(   27) --> V(    1) amplitude =  0.3398 alpha
    S(    2) --> V(    8) amplitude =  0.6302 alpha
    D(   20) --> S(    2) amplitude = -0.4726 beta
    D(   26) --> V(    1) amplitude = -0.2105 beta

 Excited state  41: excitation energy (eV) =       7.8472
 Total energy for state  41:                  -381.24415011 au
    <S**2>     :  3.3277
    Trans. Mom.:  0.0000 X   0.0000 Y  -0.3753 Z
    Strength   :     0.0270838918
    S(    1) --> V(    4) amplitude =  0.1549 alpha
    D(   27) --> V(    4) amplitude =  0.9743 beta

 Excited state  42: excitation energy (eV) =       7.8737
 Total energy for state  42:                  -381.24317490 au
    <S**2>     :  2.0896
    Trans. Mom.:  1.2201 X   0.0000 Y  -0.0000 Z
    Strength   :     0.2871733400
    D(   26) --> V(    1) amplitude =  0.3045 alpha
    D(   27) --> V(    2) amplitude = -0.4787 alpha
    D(   25) --> V(    1) amplitude = -0.2068 beta
    D(   26) --> V(    2) amplitude =  0.7025 beta

 Excited state  43: excitation energy (eV) =       8.0106
 Total energy for state  43:                  -381.23814452 au
    <S**2>     :  2.5795
    Trans. Mom.:  0.0000 X  -0.0000 Y  -0.0000 Z
    Strength   :     0.0000000000
    D(   27) --> V(    3) amplitude = -0.2657 alpha
    S(    2) --> V(    7) amplitude =  0.8404 alpha
    D(   26) --> V(    3) amplitude = -0.4379 beta

 Excited state  44: excitation energy (eV) =       8.0853
 Total energy for state  44:                  -381.23539998 au
    <S**2>     :  2.7112
    Trans. Mom.:  0.0000 X   0.0000 Y   0.3095 Z
    Strength   :     0.0189750563
    S(    1) --> V(    4) amplitude =  0.9698 alpha
    D(   27) --> V(    4) amplitude = -0.1506 beta

 Excited state  45: excitation energy (eV) =       8.1226
 Total energy for state  45:                  -381.23402869 au
    <S**2>     :  3.0112
    Trans. Mom.: -0.0000 X  -0.0000 Y  -0.0000 Z
    Strength   :     0.0000000000
    S(    2) --> V(    7) amplitude =  0.5002 alpha
    D(   25) --> V(    4) amplitude =  0.1845 beta
    D(   26) --> V(    3) amplitude =  0.8236 beta

 Excited state  46: excitation energy (eV) =       8.1643
 Total energy for state  46:                  -381.23249716 au
    <S**2>     :  2.1260
    Trans. Mom.: -0.0000 X   0.0000 Y  -1.1864 Z
    Strength   :     0.2815211493
    D(   26) --> V(    2) amplitude =  0.3496 alpha
    D(   27) --> V(    1) amplitude = -0.3261 alpha
    S(    2) --> V(    8) amplitude =  0.5546 alpha
    D(   20) --> S(    2) amplitude =  0.4386 beta
    D(   26) --> V(    1) amplitude =  0.3210 beta

 Excited state  47: excitation energy (eV) =       8.2581
 Total energy for state  47:                  -381.22904976 au
    <S**2>     :  2.4097
    Trans. Mom.:  0.0000 X   0.0341 Y   0.0000 Z
    Strength   :     0.0002346063
    D(   18) --> S(    2) amplitude =  0.7512 beta
    D(   24) --> V(    1) amplitude = -0.5775 beta

 Excited state  48: excitation energy (eV) =       8.2808
 Total energy for state  48:                  -381.22821439 au
    <S**2>     :  3.5054
    Trans. Mom.:  0.3483 X   0.0000 Y   0.0000 Z
    Strength   :     0.0246164554
    S(    1) --> V(    5) amplitude =  0.2001 alpha
    S(    1) --> V(    6) amplitude =  0.1502 alpha
    D(   27) --> V(    5) amplitude =  0.8813 beta
    D(   27) --> V(    6) amplitude = -0.3350 beta

 Excited state  49: excitation energy (eV) =       8.2922
 Total energy for state  49:                  -381.22779573 au
    <S**2>     :  2.7588
    Trans. Mom.:  0.0000 X   0.0000 Y  -0.0000 Z
    Strength   :     0.0000000000
    D(   25) --> V(    2) amplitude =  0.9244 alpha
    D(   17) --> S(    2) amplitude =  0.2641 beta

 Excited state  50: excitation energy (eV) =       8.4021
 Total energy for state  50:                  -381.22375821 au
    <S**2>     :  2.4941
    Trans. Mom.:  0.0000 X   0.0000 Y   0.0000 Z
    Strength   :     0.0000000000
    D(   27) --> V(    3) amplitude =  0.9367 alpha
    S(    2) --> V(    7) amplitude =  0.1695 alpha
    D(   26) --> V(    3) amplitude = -0.2610 beta
 
 ---------------------------------------------------
 Starting SETmanPost()
  SETman timing summary (seconds)
  CPU time              1587.14s
  System time              0.00s
  Wall time             1605.10s



            *********SPIN-ORBIT COUPLING JOB USING WIGNER–ECKART THEOREM BEGINS HERE*********

 Calculating one electron integrals:  Completed calculation of one electron integrals!
 Calculating MF integrals:  Completed calculation of MF integrals!
 Calculating S^2 values of the spin-states: S^2 values computed!
 Computing transition densities and evaluating SOCME with Libwe: 

**************************************************
 State A: Root 0
 State B: Root 1


 Analysing Sz ans S^2 of the pair of states...
 Ket state:  Computed S^2 = 2.026906346 will be treated as 2.000000000 Sz = 1.000000000
 Bra state:  Computed S^2 = 2.039685655 will be treated as 2.000000000 Sz = 1.000000000
 Clebsh-Gordan coefficient: <1.000,1.000;1.000,0.000|1.000,1.000> = 0.707

_______________________________
 One-electron SO (cm-1)
 Reduced matrix elements:
 <S|| Hso(L-) ||S'> = (0.000000,-0.000000)
 <S|| Hso(L0) ||S'> = (0.000000,0.000000)
 <S|| Hso(L+) ||S'> = (0.000000,0.000000)

 SOCC = 0.000000


 Actual matrix elements:
       |Sz=-1.00>           |Sz=0.00>           |Sz=1.00>
 <Sz=-1.00|(-0.000000,-0.000000)(0.000000,0.000000)(0.000000,0.000000)
 <Sz=0.00|(-0.000000,0.000000)(-0.000000,0.000000)(0.000000,0.000000)
 <Sz=1.00|(0.000000,0.000000)(-0.000000,0.000000)(-0.000000,0.000000)
_______________________________
 Mean-field SO (cm-1)
 Reduced matrix elements:
 <S|| Hso(L-) ||S'> = (0.000000,-0.000000)
 <S|| Hso(L0) ||S'> = (0.000000,0.000000)
 <S|| Hso(L+) ||S'> = (0.000000,0.000000)

 Singlet part of <S|| Hso(L0) ||S'> = (0.000000,0.000000) (excluded from all matrix elements)
 L-/L+ Averaged reduced matrix elements:
 <S|| Hso(L-) ||S'> = (0.000000,-0.000000)
 <S|| Hso(L+) ||S'> = (0.000000,0.000000)

 SOCC = 0.000000


 Actual matrix elements:
       |Sz=-1.00>           |Sz=0.00>           |Sz=1.00>
 <Sz=-1.00|(-0.000000,-0.000000)(0.000000,0.000000)(0.000000,0.000000)
 <Sz=0.00|(-0.000000,0.000000)(-0.000000,0.000000)(0.000000,0.000000)
 <Sz=1.00|(0.000000,0.000000)(-0.000000,0.000000)(-0.000000,0.000000)
_______________________________

**************************************************

**************************************************
 State A: Root 0
 State B: Root 2


 Analysing Sz ans S^2 of the pair of states...
 Ket state:  Computed S^2 = 2.026906 will be treated as 2.000000 Sz = 1.000000
 Bra state:  Computed S^2 = 2.022856 will be treated as 2.000000 Sz = 1.000000
 Clebsh-Gordan coefficient: <1.000,1.000;1.000,0.000|1.000,1.000> = 0.707

_______________________________
 One-electron SO (cm-1)
 Reduced matrix elements:
 <S|| Hso(L-) ||S'> = (0.000000,0.000000)
 <S|| Hso(L0) ||S'> = (0.000000,-93.292209)
 <S|| Hso(L+) ||S'> = (0.000000,-0.000000)

 SOCC = 93.292209


 Actual matrix elements:
       |Sz=-1.00>           |Sz=0.00>           |Sz=1.00>
 <Sz=-1.00|(-0.000000,65.967554)(0.000000,-0.000000)(0.000000,-0.000000)
 <Sz=0.00|(-0.000000,-0.000000)(-0.000000,-0.000000)(0.000000,-0.000000)
 <Sz=1.00|(0.000000,-0.000000)(-0.000000,-0.000000)(-0.000000,-65.967554)
_______________________________
 Mean-field SO (cm-1)
 Reduced matrix elements:
 <S|| Hso(L-) ||S'> = (0.000000,0.000000)
 <S|| Hso(L0) ||S'> = (0.000000,-59.355039)
 <S|| Hso(L+) ||S'> = (0.000000,-0.000000)

 Singlet part of <S|| Hso(L0) ||S'> = (-0.000000,-0.443748) (excluded from all matrix elements)
 L-/L+ Averaged reduced matrix elements:
 <S|| Hso(L-) ||S'> = (0.000000,0.000000)
 <S|| Hso(L+) ||S'> = (0.000000,-0.000000)

 SOCC = 59.355039


 Actual matrix elements:
       |Sz=-1.00>           |Sz=0.00>           |Sz=1.00>
 <Sz=-1.00|(-0.000000,41.970351)(0.000000,-0.000000)(0.000000,-0.000000)
 <Sz=0.00|(-0.000000,-0.000000)(-0.000000,-0.000000)(0.000000,-0.000000)
 <Sz=1.00|(0.000000,-0.000000)(-0.000000,-0.000000)(-0.000000,-41.970351)
_______________________________

**************************************************

**************************************************
 State A: Root 0
 State B: Root 3


 Analysing Sz ans S^2 of the pair of states...
 Ket state:  Computed S^2 = 2.026906 will be treated as 2.000000 Sz = 1.000000
 Bra state:  Computed S^2 = 2.035752 will be treated as 2.000000 Sz = 1.000000
 Clebsh-Gordan coefficient: <1.000,1.000;1.000,0.000|1.000,1.000> = 0.707

_______________________________
 One-electron SO (cm-1)
 Reduced matrix elements:
 <S|| Hso(L-) ||S'> = (-0.000000,-3.015480)
 <S|| Hso(L0) ||S'> = (0.000000,-0.000008)
 <S|| Hso(L+) ||S'> = (-0.000000,3.015480)

 SOCC = 4.264532


 Actual matrix elements:
       |Sz=-1.00>           |Sz=0.00>           |Sz=1.00>
 <Sz=-1.00|(0.000000,0.000006)(-0.000000,2.132266)(-0.000000,0.000000)
 <Sz=0.00|(0.000000,2.132266)(0.000000,-0.000000)(-0.000000,2.132266)
 <Sz=1.00|(-0.000000,-0.000000)(0.000000,2.132266)(0.000000,-0.000006)
_______________________________
 Mean-field SO (cm-1)
 Reduced matrix elements:
 <S|| Hso(L-) ||S'> = (-0.000000,-1.721359)
 <S|| Hso(L0) ||S'> = (0.000000,-0.000005)
 <S|| Hso(L+) ||S'> = (-0.000000,1.726155)

 Singlet part of <S|| Hso(L0) ||S'> = (-0.000000,-0.000000) (excluded from all matrix elements)
 L-/L+ Averaged reduced matrix elements:
 <S|| Hso(L-) ||S'> = (-0.000000,-1.723757)
 <S|| Hso(L+) ||S'> = (-0.000000,1.723757)

 SOCC = 2.437761


 Actual matrix elements:
       |Sz=-1.00>           |Sz=0.00>           |Sz=1.00>
 <Sz=-1.00|(0.000000,0.000004)(-0.000000,1.218880)(-0.000000,0.000000)
 <Sz=0.00|(0.000000,1.218880)(0.000000,-0.000000)(-0.000000,1.218880)
 <Sz=1.00|(-0.000000,-0.000000)(0.000000,1.218880)(0.000000,-0.000004)
_______________________________

**************************************************

**************************************************
 State A: Root 0
 State B: Root 4


 Analysing Sz ans S^2 of the pair of states...
 Ket state:  Computed S^2 = 2.026906 will be treated as 2.000000 Sz = 1.000000
 Bra state:  Computed S^2 = 2.072720 will be treated as 2.000000 Sz = 1.000000
 Clebsh-Gordan coefficient: <1.000,1.000;1.000,0.000|1.000,1.000> = 0.707

_______________________________
 One-electron SO (cm-1)
 Reduced matrix elements:
 <S|| Hso(L-) ||S'> = (-0.000000,0.000000)
 <S|| Hso(L0) ||S'> = (0.000000,-81.911947)
 <S|| Hso(L+) ||S'> = (-0.000000,-0.000000)

 SOCC = 81.911947


 Actual matrix elements:
       |Sz=-1.00>           |Sz=0.00>           |Sz=1.00>
 <Sz=-1.00|(0.000000,57.920493)(-0.000000,-0.000000)(-0.000000,-0.000000)
 <Sz=0.00|(0.000000,-0.000000)(0.000000,-0.000000)(-0.000000,-0.000000)
 <Sz=1.00|(-0.000000,-0.000000)(0.000000,-0.000000)(0.000000,-57.920493)
_______________________________
 Mean-field SO (cm-1)
 Reduced matrix elements:
 <S|| Hso(L-) ||S'> = (-0.000000,0.000000)
 <S|| Hso(L0) ||S'> = (0.000000,-52.545288)
 <S|| Hso(L+) ||S'> = (-0.000000,-0.000000)

 Singlet part of <S|| Hso(L0) ||S'> = (-0.000000,-0.074696) (excluded from all matrix elements)
 L-/L+ Averaged reduced matrix elements:
 <S|| Hso(L-) ||S'> = (-0.000000,0.000000)
 <S|| Hso(L+) ||S'> = (-0.000000,-0.000000)

 SOCC = 52.545288


 Actual matrix elements:
       |Sz=-1.00>           |Sz=0.00>           |Sz=1.00>
 <Sz=-1.00|(0.000000,37.155130)(-0.000000,-0.000000)(-0.000000,-0.000000)
 <Sz=0.00|(0.000000,-0.000000)(0.000000,-0.000000)(-0.000000,-0.000000)
 <Sz=1.00|(-0.000000,-0.000000)(0.000000,-0.000000)(0.000000,-37.155130)
_______________________________

**************************************************

**************************************************
 State A: Root 0
 State B: Root 5


 Analysing Sz ans S^2 of the pair of states...
 Ket state:  Computed S^2 = 2.026906 will be treated as 2.000000 Sz = 1.000000
 Bra state:  Computed S^2 = 2.060813 will be treated as 2.000000 Sz = 1.000000
 Clebsh-Gordan coefficient: <1.000,1.000;1.000,0.000|1.000,1.000> = 0.707

_______________________________
 One-electron SO (cm-1)
 Reduced matrix elements:
 <S|| Hso(L-) ||S'> = (2.680127,-0.000000)
 <S|| Hso(L0) ||S'> = (0.000000,0.000000)
 <S|| Hso(L+) ||S'> = (2.680127,0.000000)

 SOCC = 3.790272


 Actual matrix elements:
       |Sz=-1.00>           |Sz=0.00>           |Sz=1.00>
 <Sz=-1.00|(-0.000000,-0.000000)(1.895136,0.000000)(0.000000,0.000000)
 <Sz=0.00|(-1.895136,0.000000)(-0.000000,-0.000000)(1.895136,0.000000)
 <Sz=1.00|(0.000000,0.000000)(-1.895136,0.000000)(-0.000000,0.000000)
_______________________________
 Mean-field SO (cm-1)
 Reduced matrix elements:
 <S|| Hso(L-) ||S'> = (2.234061,-0.000000)
 <S|| Hso(L0) ||S'> = (0.000000,0.000000)
 <S|| Hso(L+) ||S'> = (2.254717,0.000000)

 Singlet part of <S|| Hso(L0) ||S'> = (0.000000,0.000000) (excluded from all matrix elements)
 L-/L+ Averaged reduced matrix elements:
 <S|| Hso(L-) ||S'> = (2.244389,-0.000000)
 <S|| Hso(L+) ||S'> = (2.244389,0.000000)

 SOCC = 3.174046


 Actual matrix elements:
       |Sz=-1.00>           |Sz=0.00>           |Sz=1.00>
 <Sz=-1.00|(-0.000000,-0.000000)(1.587023,0.000000)(0.000000,0.000000)
 <Sz=0.00|(-1.587023,0.000000)(-0.000000,-0.000000)(1.587023,0.000000)
 <Sz=1.00|(0.000000,0.000000)(-1.587023,0.000000)(-0.000000,0.000000)
_______________________________

**************************************************

**************************************************
 State A: Root 0
 State B: Root 6


 Analysing Sz ans S^2 of the pair of states...
 Ket state:  Computed S^2 = 2.026906 will be treated as 2.000000 Sz = 1.000000
 Bra state:  Computed S^2 = 2.032368 will be treated as 2.000000 Sz = 1.000000
 Clebsh-Gordan coefficient: <1.000,1.000;1.000,0.000|1.000,1.000> = 0.707

_______________________________
 One-electron SO (cm-1)
 Reduced matrix elements:
 <S|| Hso(L-) ||S'> = (0.000000,0.000000)
 <S|| Hso(L0) ||S'> = (0.000000,72.292841)
 <S|| Hso(L+) ||S'> = (0.000000,-0.000000)

 SOCC = 72.292841


 Actual matrix elements:
       |Sz=-1.00>           |Sz=0.00>           |Sz=1.00>
 <Sz=-1.00|(-0.000000,-51.118758)(0.000000,-0.000000)(0.000000,0.000000)
 <Sz=0.00|(-0.000000,-0.000000)(-0.000000,0.000000)(0.000000,-0.000000)
 <Sz=1.00|(0.000000,0.000000)(-0.000000,-0.000000)(-0.000000,51.118758)
_______________________________
 Mean-field SO (cm-1)
 Reduced matrix elements:
 <S|| Hso(L-) ||S'> = (0.000000,0.000000)
 <S|| Hso(L0) ||S'> = (0.000000,45.597422)
 <S|| Hso(L+) ||S'> = (0.000000,-0.000000)

 Singlet part of <S|| Hso(L0) ||S'> = (0.000000,0.337391) (excluded from all matrix elements)
 L-/L+ Averaged reduced matrix elements:
 <S|| Hso(L-) ||S'> = (0.000000,0.000000)
 <S|| Hso(L+) ||S'> = (0.000000,-0.000000)

 SOCC = 45.597422


 Actual matrix elements:
       |Sz=-1.00>           |Sz=0.00>           |Sz=1.00>
 <Sz=-1.00|(-0.000000,-32.242246)(0.000000,-0.000000)(0.000000,0.000000)
 <Sz=0.00|(-0.000000,-0.000000)(-0.000000,0.000000)(0.000000,-0.000000)
 <Sz=1.00|(0.000000,0.000000)(-0.000000,-0.000000)(-0.000000,32.242246)
_______________________________

**************************************************

**************************************************
 State A: Root 0
 State B: Root 7


 Analysing Sz ans S^2 of the pair of states...
 Ket state:  Computed S^2 = 2.026906 will be treated as 2.000000 Sz = 1.000000
 Bra state:  Computed S^2 = 2.048610 will be treated as 2.000000 Sz = 1.000000
 Clebsh-Gordan coefficient: <1.000,1.000;1.000,0.000|1.000,1.000> = 0.707

_______________________________
 One-electron SO (cm-1)
 Reduced matrix elements:
 <S|| Hso(L-) ||S'> = (0.000002,0.000000)
 <S|| Hso(L0) ||S'> = (0.000000,0.000000)
 <S|| Hso(L+) ||S'> = (0.000002,-0.000000)

 SOCC = 0.000003


 Actual matrix elements:
       |Sz=-1.00>           |Sz=0.00>           |Sz=1.00>
 <Sz=-1.00|(-0.000000,-0.000000)(0.000001,-0.000000)(0.000000,0.000000)
 <Sz=0.00|(-0.000001,-0.000000)(-0.000000,0.000000)(0.000001,-0.000000)
 <Sz=1.00|(0.000000,0.000000)(-0.000001,-0.000000)(-0.000000,0.000000)
_______________________________
 Mean-field SO (cm-1)
 Reduced matrix elements:
 <S|| Hso(L-) ||S'> = (0.000001,0.000000)
 <S|| Hso(L0) ||S'> = (0.000000,0.000000)
 <S|| Hso(L+) ||S'> = (0.000001,-0.000000)

 Singlet part of <S|| Hso(L0) ||S'> = (0.000000,0.000000) (excluded from all matrix elements)
 L-/L+ Averaged reduced matrix elements:
 <S|| Hso(L-) ||S'> = (0.000001,0.000000)
 <S|| Hso(L+) ||S'> = (0.000001,-0.000000)

 SOCC = 0.000002


 Actual matrix elements:
       |Sz=-1.00>           |Sz=0.00>           |Sz=1.00>
 <Sz=-1.00|(-0.000000,-0.000000)(0.000001,-0.000000)(0.000000,0.000000)
 <Sz=0.00|(-0.000001,-0.000000)(-0.000000,0.000000)(0.000001,-0.000000)
 <Sz=1.00|(0.000000,0.000000)(-0.000001,-0.000000)(-0.000000,0.000000)
_______________________________

**************************************************

**************************************************
 State A: Root 0
 State B: Root 8


 Analysing Sz ans S^2 of the pair of states...
 Ket state:  Computed S^2 = 2.026906 will be treated as 2.000000 Sz = 1.000000
 Bra state:  Computed S^2 = 2.050986 will be treated as 2.000000 Sz = 1.000000
 Clebsh-Gordan coefficient: <1.000,1.000;1.000,0.000|1.000,1.000> = 0.707

_______________________________
 One-electron SO (cm-1)
 Reduced matrix elements:
 <S|| Hso(L-) ||S'> = (-40.201061,-0.000000)
 <S|| Hso(L0) ||S'> = (0.000000,0.000000)
 <S|| Hso(L+) ||S'> = (-40.201061,0.000000)

 SOCC = 56.852885


 Actual matrix elements:
       |Sz=-1.00>           |Sz=0.00>           |Sz=1.00>
 <Sz=-1.00|(0.000000,-0.000000)(-28.426443,0.000000)(-0.000000,0.000000)
 <Sz=0.00|(28.426443,0.000000)(0.000000,-0.000000)(-28.426443,0.000000)
 <Sz=1.00|(-0.000000,-0.000000)(28.426443,0.000000)(0.000000,0.000000)
_______________________________
 Mean-field SO (cm-1)
 Reduced matrix elements:
 <S|| Hso(L-) ||S'> = (-25.312879,-0.000000)
 <S|| Hso(L0) ||S'> = (0.000000,0.000000)
 <S|| Hso(L+) ||S'> = (-25.574641,0.000000)

 Singlet part of <S|| Hso(L0) ||S'> = (-0.000000,-0.000000) (excluded from all matrix elements)
 L-/L+ Averaged reduced matrix elements:
 <S|| Hso(L-) ||S'> = (-25.443760,-0.000000)
 <S|| Hso(L+) ||S'> = (-25.443760,0.000000)

 SOCC = 35.982911


 Actual matrix elements:
       |Sz=-1.00>           |Sz=0.00>           |Sz=1.00>
 <Sz=-1.00|(0.000000,-0.000000)(-17.991455,0.000000)(-0.000000,0.000000)
 <Sz=0.00|(17.991455,0.000000)(0.000000,-0.000000)(-17.991455,0.000000)
 <Sz=1.00|(-0.000000,-0.000000)(17.991455,0.000000)(0.000000,0.000000)
_______________________________

**************************************************

**************************************************
 State A: Root 0
 State B: Root 9


 Analysing Sz ans S^2 of the pair of states...
 Ket state:  Computed S^2 = 2.026906 will be treated as 2.000000 Sz = 1.000000
 Bra state:  Computed S^2 = 2.038566 will be treated as 2.000000 Sz = 1.000000
 Clebsh-Gordan coefficient: <1.000,1.000;1.000,0.000|1.000,1.000> = 0.707

_______________________________
 One-electron SO (cm-1)
 Reduced matrix elements:
 <S|| Hso(L-) ||S'> = (0.000002,-0.000000)
 <S|| Hso(L0) ||S'> = (0.000000,-0.000000)
 <S|| Hso(L+) ||S'> = (0.000002,0.000000)

 SOCC = 0.000003


 Actual matrix elements:
       |Sz=-1.00>           |Sz=0.00>           |Sz=1.00>
 <Sz=-1.00|(-0.000000,0.000000)(0.000001,0.000000)(0.000000,-0.000000)
 <Sz=0.00|(-0.000001,0.000000)(-0.000000,-0.000000)(0.000001,0.000000)
 <Sz=1.00|(0.000000,-0.000000)(-0.000001,0.000000)(-0.000000,-0.000000)
_______________________________
 Mean-field SO (cm-1)
 Reduced matrix elements:
 <S|| Hso(L-) ||S'> = (0.000001,-0.000000)
 <S|| Hso(L0) ||S'> = (0.000000,-0.000000)
 <S|| Hso(L+) ||S'> = (0.000001,0.000000)

 Singlet part of <S|| Hso(L0) ||S'> = (-0.000000,-0.000000) (excluded from all matrix elements)
 L-/L+ Averaged reduced matrix elements:
 <S|| Hso(L-) ||S'> = (0.000001,-0.000000)
 <S|| Hso(L+) ||S'> = (0.000001,0.000000)

 SOCC = 0.000002


 Actual matrix elements:
       |Sz=-1.00>           |Sz=0.00>           |Sz=1.00>
 <Sz=-1.00|(-0.000000,0.000000)(0.000001,0.000000)(0.000000,-0.000000)
 <Sz=0.00|(-0.000001,0.000000)(-0.000000,-0.000000)(0.000001,0.000000)
 <Sz=1.00|(0.000000,-0.000000)(-0.000001,0.000000)(-0.000000,-0.000000)
_______________________________

**************************************************

**************************************************
 State A: Root 0
 State B: Root 10


 Analysing Sz ans S^2 of the pair of states...
 Ket state:  Computed S^2 = 2.026906 will be treated as 2.000000 Sz = 1.000000
 Bra state:  Computed S^2 = 2.044231 will be treated as 2.000000 Sz = 1.000000
 Clebsh-Gordan coefficient: <1.000,1.000;1.000,0.000|1.000,1.000> = 0.707

_______________________________
 One-electron SO (cm-1)
 Reduced matrix elements:
 <S|| Hso(L-) ||S'> = (54.524274,0.000000)
 <S|| Hso(L0) ||S'> = (0.000000,0.000000)
 <S|| Hso(L+) ||S'> = (54.524274,-0.000000)

 SOCC = 77.108968


 Actual matrix elements:
       |Sz=-1.00>           |Sz=0.00>           |Sz=1.00>
 <Sz=-1.00|(-0.000000,-0.000000)(38.554484,-0.000000)(0.000000,-0.000000)
 <Sz=0.00|(-38.554484,-0.000000)(-0.000000,0.000000)(38.554484,-0.000000)
 <Sz=1.00|(0.000000,0.000000)(-38.554484,-0.000000)(-0.000000,0.000000)
_______________________________
 Mean-field SO (cm-1)
 Reduced matrix elements:
 <S|| Hso(L-) ||S'> = (34.130421,0.000000)
 <S|| Hso(L0) ||S'> = (0.000000,0.000000)
 <S|| Hso(L+) ||S'> = (34.459637,-0.000000)

 Singlet part of <S|| Hso(L0) ||S'> = (0.000000,0.000000) (excluded from all matrix elements)
 L-/L+ Averaged reduced matrix elements:
 <S|| Hso(L-) ||S'> = (34.295029,0.000000)
 <S|| Hso(L+) ||S'> = (34.295029,-0.000000)

 SOCC = 48.500495


 Actual matrix elements:
       |Sz=-1.00>           |Sz=0.00>           |Sz=1.00>
 <Sz=-1.00|(-0.000000,-0.000000)(24.250247,-0.000000)(0.000000,-0.000000)
 <Sz=0.00|(-24.250247,-0.000000)(-0.000000,0.000000)(24.250247,-0.000000)
 <Sz=1.00|(0.000000,0.000000)(-24.250247,-0.000000)(-0.000000,0.000000)
_______________________________

**************************************************

**************************************************
 State A: Root 0
 State B: Root 11


 Analysing Sz ans S^2 of the pair of states...
 Ket state:  Computed S^2 = 2.026906 will be treated as 2.000000 Sz = 1.000000
 Bra state:  Computed S^2 = 2.038309 will be treated as 2.000000 Sz = 1.000000
 Clebsh-Gordan coefficient: <1.000,1.000;1.000,0.000|1.000,1.000> = 0.707

_______________________________
 One-electron SO (cm-1)
 Reduced matrix elements:
 <S|| Hso(L-) ||S'> = (0.000000,-0.000000)
 <S|| Hso(L0) ||S'> = (0.000000,39.392055)
 <S|| Hso(L+) ||S'> = (0.000000,0.000000)

 SOCC = 39.392055


 Actual matrix elements:
       |Sz=-1.00>           |Sz=0.00>           |Sz=1.00>
 <Sz=-1.00|(-0.000000,-27.854389)(0.000000,0.000000)(0.000000,0.000000)
 <Sz=0.00|(-0.000000,0.000000)(-0.000000,0.000000)(0.000000,0.000000)
 <Sz=1.00|(0.000000,0.000000)(-0.000000,0.000000)(-0.000000,27.854389)
_______________________________
 Mean-field SO (cm-1)
 Reduced matrix elements:
 <S|| Hso(L-) ||S'> = (0.000000,-0.000000)
 <S|| Hso(L0) ||S'> = (0.000000,24.552684)
 <S|| Hso(L+) ||S'> = (0.000000,0.000000)

 Singlet part of <S|| Hso(L0) ||S'> = (0.000000,0.178565) (excluded from all matrix elements)
 L-/L+ Averaged reduced matrix elements:
 <S|| Hso(L-) ||S'> = (0.000000,-0.000000)
 <S|| Hso(L+) ||S'> = (0.000000,0.000000)

 SOCC = 24.552684


 Actual matrix elements:
       |Sz=-1.00>           |Sz=0.00>           |Sz=1.00>
 <Sz=-1.00|(-0.000000,-17.361370)(0.000000,0.000000)(0.000000,0.000000)
 <Sz=0.00|(-0.000000,0.000000)(-0.000000,0.000000)(0.000000,0.000000)
 <Sz=1.00|(0.000000,0.000000)(-0.000000,0.000000)(-0.000000,17.361370)
_______________________________

**************************************************

**************************************************
 State A: Root 0
 State B: Root 12


 Analysing Sz ans S^2 of the pair of states...
 Ket state:  Computed S^2 = 2.026906 will be treated as 2.000000 Sz = 1.000000
WARNING! The deviation of S^2 from the correct value is large, indicating a significant spin contamination. The results may be unreliable
 Bra state:  Computed S^2 = 3.506071 will be treated as 2.000000 Sz = 1.000000
 Clebsh-Gordan coefficient: <1.000,1.000;1.000,0.000|1.000,1.000> = 0.707

_______________________________
 One-electron SO (cm-1)
 Reduced matrix elements:
 <S|| Hso(L-) ||S'> = (-0.000002,0.000000)
 <S|| Hso(L0) ||S'> = (0.000000,0.000000)
 <S|| Hso(L+) ||S'> = (-0.000002,-0.000000)

 SOCC = 0.000002


 Actual matrix elements:
       |Sz=-1.00>           |Sz=0.00>           |Sz=1.00>
 <Sz=-1.00|(0.000000,-0.000000)(-0.000001,-0.000000)(-0.000000,-0.000000)
 <Sz=0.00|(0.000001,-0.000000)(0.000000,0.000000)(-0.000001,-0.000000)
 <Sz=1.00|(-0.000000,0.000000)(0.000001,-0.000000)(0.000000,0.000000)
_______________________________
 Mean-field SO (cm-1)
 Reduced matrix elements:
 <S|| Hso(L-) ||S'> = (-0.000001,0.000000)
 <S|| Hso(L0) ||S'> = (0.000000,0.000000)
 <S|| Hso(L+) ||S'> = (-0.000001,-0.000000)

 Singlet part of <S|| Hso(L0) ||S'> = (0.000000,0.000000) (excluded from all matrix elements)
 L-/L+ Averaged reduced matrix elements:
 <S|| Hso(L-) ||S'> = (-0.000001,0.000000)
 <S|| Hso(L+) ||S'> = (-0.000001,-0.000000)

 SOCC = 0.000002


 Actual matrix elements:
       |Sz=-1.00>           |Sz=0.00>           |Sz=1.00>
 <Sz=-1.00|(0.000000,-0.000000)(-0.000001,-0.000000)(-0.000000,-0.000000)
 <Sz=0.00|(0.000001,-0.000000)(0.000000,0.000000)(-0.000001,-0.000000)
 <Sz=1.00|(-0.000000,0.000000)(0.000001,-0.000000)(0.000000,0.000000)
_______________________________

**************************************************

**************************************************
 State A: Root 0
 State B: Root 13


 Analysing Sz ans S^2 of the pair of states...
 Ket state:  Computed S^2 = 2.026906 will be treated as 2.000000 Sz = 1.000000
WARNING! The deviation of S^2 from the correct value is large, indicating a significant spin contamination. The results may be unreliable
 Bra state:  Computed S^2 = 3.702892 will be treated as 2.000000 Sz = 1.000000
 Clebsh-Gordan coefficient: <1.000,1.000;1.000,0.000|1.000,1.000> = 0.707

_______________________________
 One-electron SO (cm-1)
 Reduced matrix elements:
 <S|| Hso(L-) ||S'> = (-0.000000,9.862059)
 <S|| Hso(L0) ||S'> = (0.000000,-0.000000)
 <S|| Hso(L+) ||S'> = (-0.000000,-9.862059)

 SOCC = 13.947058


 Actual matrix elements:
       |Sz=-1.00>           |Sz=0.00>           |Sz=1.00>
 <Sz=-1.00|(0.000000,0.000000)(-0.000000,-6.973529)(-0.000000,-0.000000)
 <Sz=0.00|(0.000000,-6.973529)(0.000000,0.000000)(-0.000000,-6.973529)
 <Sz=1.00|(-0.000000,0.000000)(0.000000,-6.973529)(0.000000,-0.000000)
_______________________________
 Mean-field SO (cm-1)
 Reduced matrix elements:
 <S|| Hso(L-) ||S'> = (-0.000000,5.192114)
 <S|| Hso(L0) ||S'> = (0.000000,-0.000000)
 <S|| Hso(L+) ||S'> = (-0.000000,-5.204108)

 Singlet part of <S|| Hso(L0) ||S'> = (0.000000,0.000000) (excluded from all matrix elements)
 L-/L+ Averaged reduced matrix elements:
 <S|| Hso(L-) ||S'> = (-0.000000,5.198111)
 <S|| Hso(L+) ||S'> = (-0.000000,-5.198111)

 SOCC = 7.351239


 Actual matrix elements:
       |Sz=-1.00>           |Sz=0.00>           |Sz=1.00>
 <Sz=-1.00|(0.000000,0.000000)(-0.000000,-3.675620)(-0.000000,-0.000000)
 <Sz=0.00|(0.000000,-3.675620)(0.000000,0.000000)(-0.000000,-3.675620)
 <Sz=1.00|(-0.000000,0.000000)(0.000000,-3.675620)(0.000000,-0.000000)
_______________________________

**************************************************

**************************************************
 State A: Root 0
 State B: Root 14


 Analysing Sz ans S^2 of the pair of states...
 Ket state:  Computed S^2 = 2.026906 will be treated as 2.000000 Sz = 1.000000
 Bra state:  Computed S^2 = 2.037819 will be treated as 2.000000 Sz = 1.000000
 Clebsh-Gordan coefficient: <1.000,1.000;1.000,0.000|1.000,1.000> = 0.707

_______________________________
 One-electron SO (cm-1)
 Reduced matrix elements:
 <S|| Hso(L-) ||S'> = (34.985802,0.000000)
 <S|| Hso(L0) ||S'> = (0.000000,-0.000000)
 <S|| Hso(L+) ||S'> = (34.985802,-0.000000)

 SOCC = 49.477396


 Actual matrix elements:
       |Sz=-1.00>           |Sz=0.00>           |Sz=1.00>
 <Sz=-1.00|(-0.000000,0.000000)(24.738698,-0.000000)(0.000000,-0.000000)
 <Sz=0.00|(-24.738698,-0.000000)(-0.000000,0.000000)(24.738698,-0.000000)
 <Sz=1.00|(0.000000,0.000000)(-24.738698,-0.000000)(-0.000000,-0.000000)
_______________________________
 Mean-field SO (cm-1)
 Reduced matrix elements:
 <S|| Hso(L-) ||S'> = (22.027214,0.000000)
 <S|| Hso(L0) ||S'> = (0.000000,-0.000000)
 <S|| Hso(L+) ||S'> = (22.314719,-0.000000)

 Singlet part of <S|| Hso(L0) ||S'> = (-0.000000,-0.000000) (excluded from all matrix elements)
 L-/L+ Averaged reduced matrix elements:
 <S|| Hso(L-) ||S'> = (22.170967,0.000000)
 <S|| Hso(L+) ||S'> = (22.170967,-0.000000)

 SOCC = 31.354482


 Actual matrix elements:
       |Sz=-1.00>           |Sz=0.00>           |Sz=1.00>
 <Sz=-1.00|(-0.000000,0.000000)(15.677241,-0.000000)(0.000000,-0.000000)
 <Sz=0.00|(-15.677241,-0.000000)(-0.000000,0.000000)(15.677241,-0.000000)
 <Sz=1.00|(0.000000,0.000000)(-15.677241,-0.000000)(-0.000000,-0.000000)
_______________________________

**************************************************

**************************************************
 State A: Root 0
 State B: Root 15


 Analysing Sz ans S^2 of the pair of states...
 Ket state:  Computed S^2 = 2.026906 will be treated as 2.000000 Sz = 1.000000
 Bra state:  Computed S^2 = 2.318043 will be treated as 2.000000 Sz = 1.000000
 Clebsh-Gordan coefficient: <1.000,1.000;1.000,0.000|1.000,1.000> = 0.707

_______________________________
 One-electron SO (cm-1)
 Reduced matrix elements:
 <S|| Hso(L-) ||S'> = (0.000000,3.846330)
 <S|| Hso(L0) ||S'> = (0.000000,0.000001)
 <S|| Hso(L+) ||S'> = (0.000000,-3.846330)

 SOCC = 5.439532


 Actual matrix elements:
       |Sz=-1.00>           |Sz=0.00>           |Sz=1.00>
 <Sz=-1.00|(-0.000000,-0.000001)(0.000000,-2.719766)(0.000000,-0.000000)
 <Sz=0.00|(-0.000000,-2.719766)(-0.000000,0.000000)(0.000000,-2.719766)
 <Sz=1.00|(0.000000,0.000000)(-0.000000,-2.719766)(-0.000000,0.000001)
_______________________________
 Mean-field SO (cm-1)
 Reduced matrix elements:
 <S|| Hso(L-) ||S'> = (0.000000,1.942763)
 <S|| Hso(L0) ||S'> = (0.000000,0.000001)
 <S|| Hso(L+) ||S'> = (0.000000,-1.947535)

 Singlet part of <S|| Hso(L0) ||S'> = (0.000000,0.000000) (excluded from all matrix elements)
 L-/L+ Averaged reduced matrix elements:
 <S|| Hso(L-) ||S'> = (0.000000,1.945149)
 <S|| Hso(L+) ||S'> = (0.000000,-1.945149)

 SOCC = 2.750856


 Actual matrix elements:
       |Sz=-1.00>           |Sz=0.00>           |Sz=1.00>
 <Sz=-1.00|(-0.000000,-0.000001)(0.000000,-1.375428)(0.000000,-0.000000)
 <Sz=0.00|(-0.000000,-1.375428)(-0.000000,0.000000)(0.000000,-1.375428)
 <Sz=1.00|(0.000000,0.000000)(-0.000000,-1.375428)(-0.000000,0.000001)
_______________________________

**************************************************

**************************************************
 State A: Root 0
 State B: Root 16


 Analysing Sz ans S^2 of the pair of states...
 Ket state:  Computed S^2 = 2.026906 will be treated as 2.000000 Sz = 1.000000
WARNING! The deviation of S^2 from the correct value is large, indicating a significant spin contamination. The results may be unreliable
 Bra state:  Computed S^2 = 3.427151 will be treated as 2.000000 Sz = 1.000000
 Clebsh-Gordan coefficient: <1.000,1.000;1.000,0.000|1.000,1.000> = 0.707

_______________________________
 One-electron SO (cm-1)
 Reduced matrix elements:
 <S|| Hso(L-) ||S'> = (0.000000,0.000000)
 <S|| Hso(L0) ||S'> = (0.000000,84.743532)
 <S|| Hso(L+) ||S'> = (0.000000,-0.000000)

 SOCC = 84.743532


 Actual matrix elements:
       |Sz=-1.00>           |Sz=0.00>           |Sz=1.00>
 <Sz=-1.00|(-0.000000,-59.922726)(0.000000,-0.000000)(0.000000,0.000000)
 <Sz=0.00|(-0.000000,-0.000000)(-0.000000,0.000000)(0.000000,-0.000000)
 <Sz=1.00|(0.000000,0.000000)(-0.000000,-0.000000)(-0.000000,59.922726)
_______________________________
 Mean-field SO (cm-1)
 Reduced matrix elements:
 <S|| Hso(L-) ||S'> = (0.000000,0.000000)
 <S|| Hso(L0) ||S'> = (0.000000,52.714650)
 <S|| Hso(L+) ||S'> = (0.000000,-0.000000)

 Singlet part of <S|| Hso(L0) ||S'> = (-0.000000,-0.000569) (excluded from all matrix elements)
 L-/L+ Averaged reduced matrix elements:
 <S|| Hso(L-) ||S'> = (0.000000,0.000000)
 <S|| Hso(L+) ||S'> = (0.000000,-0.000000)

 SOCC = 52.714650


 Actual matrix elements:
       |Sz=-1.00>           |Sz=0.00>           |Sz=1.00>
 <Sz=-1.00|(-0.000000,-37.274887)(0.000000,-0.000000)(0.000000,0.000000)
 <Sz=0.00|(-0.000000,-0.000000)(-0.000000,0.000000)(0.000000,-0.000000)
 <Sz=1.00|(0.000000,0.000000)(-0.000000,-0.000000)(-0.000000,37.274887)
_______________________________

**************************************************

**************************************************
 State A: Root 0
 State B: Root 17


 Analysing Sz ans S^2 of the pair of states...
 Ket state:  Computed S^2 = 2.026906 will be treated as 2.000000 Sz = 1.000000
 Bra state:  Computed S^2 = 2.359619 will be treated as 2.000000 Sz = 1.000000
 Clebsh-Gordan coefficient: <1.000,1.000;1.000,0.000|1.000,1.000> = 0.707

_______________________________
 One-electron SO (cm-1)
 Reduced matrix elements:
 <S|| Hso(L-) ||S'> = (0.000000,0.000000)
 <S|| Hso(L0) ||S'> = (0.000000,0.000000)
 <S|| Hso(L+) ||S'> = (0.000000,-0.000000)

 SOCC = 0.000000


 Actual matrix elements:
       |Sz=-1.00>           |Sz=0.00>           |Sz=1.00>
 <Sz=-1.00|(-0.000000,-0.000000)(0.000000,-0.000000)(0.000000,0.000000)
 <Sz=0.00|(-0.000000,-0.000000)(-0.000000,0.000000)(0.000000,-0.000000)
 <Sz=1.00|(0.000000,0.000000)(-0.000000,-0.000000)(-0.000000,0.000000)
_______________________________
 Mean-field SO (cm-1)
 Reduced matrix elements:
 <S|| Hso(L-) ||S'> = (0.000000,0.000000)
 <S|| Hso(L0) ||S'> = (0.000000,0.000000)
 <S|| Hso(L+) ||S'> = (0.000000,-0.000000)

 Singlet part of <S|| Hso(L0) ||S'> = (0.000000,0.000000) (excluded from all matrix elements)
 L-/L+ Averaged reduced matrix elements:
 <S|| Hso(L-) ||S'> = (0.000000,0.000000)
 <S|| Hso(L+) ||S'> = (0.000000,-0.000000)

 SOCC = 0.000000


 Actual matrix elements:
       |Sz=-1.00>           |Sz=0.00>           |Sz=1.00>
 <Sz=-1.00|(-0.000000,-0.000000)(0.000000,-0.000000)(0.000000,0.000000)
 <Sz=0.00|(-0.000000,-0.000000)(-0.000000,0.000000)(0.000000,-0.000000)
 <Sz=1.00|(0.000000,0.000000)(-0.000000,-0.000000)(-0.000000,0.000000)
_______________________________

**************************************************

**************************************************
 State A: Root 0
 State B: Root 18


 Analysing Sz ans S^2 of the pair of states...
 Ket state:  Computed S^2 = 2.026906 will be treated as 2.000000 Sz = 1.000000
 Bra state:  Computed S^2 = 2.119862 will be treated as 2.000000 Sz = 1.000000
 Clebsh-Gordan coefficient: <1.000,1.000;1.000,0.000|1.000,1.000> = 0.707

_______________________________
 One-electron SO (cm-1)
 Reduced matrix elements:
 <S|| Hso(L-) ||S'> = (0.000000,-0.000000)
 <S|| Hso(L0) ||S'> = (0.000000,-0.000000)
 <S|| Hso(L+) ||S'> = (0.000000,0.000000)

 SOCC = 0.000000


 Actual matrix elements:
       |Sz=-1.00>           |Sz=0.00>           |Sz=1.00>
 <Sz=-1.00|(-0.000000,0.000000)(0.000000,0.000000)(0.000000,-0.000000)
 <Sz=0.00|(-0.000000,0.000000)(-0.000000,-0.000000)(0.000000,0.000000)
 <Sz=1.00|(0.000000,-0.000000)(-0.000000,0.000000)(-0.000000,-0.000000)
_______________________________
 Mean-field SO (cm-1)
 Reduced matrix elements:
 <S|| Hso(L-) ||S'> = (0.000000,-0.000000)
 <S|| Hso(L0) ||S'> = (0.000000,-0.000000)
 <S|| Hso(L+) ||S'> = (0.000000,0.000000)

 Singlet part of <S|| Hso(L0) ||S'> = (-0.000000,-0.000000) (excluded from all matrix elements)
 L-/L+ Averaged reduced matrix elements:
 <S|| Hso(L-) ||S'> = (0.000000,-0.000000)
 <S|| Hso(L+) ||S'> = (0.000000,0.000000)

 SOCC = 0.000000


 Actual matrix elements:
       |Sz=-1.00>           |Sz=0.00>           |Sz=1.00>
 <Sz=-1.00|(-0.000000,0.000000)(0.000000,0.000000)(0.000000,-0.000000)
 <Sz=0.00|(-0.000000,0.000000)(-0.000000,-0.000000)(0.000000,0.000000)
 <Sz=1.00|(0.000000,-0.000000)(-0.000000,0.000000)(-0.000000,-0.000000)
_______________________________

**************************************************

**************************************************
 State A: Root 0
 State B: Root 19


 Analysing Sz ans S^2 of the pair of states...
 Ket state:  Computed S^2 = 2.026906 will be treated as 2.000000 Sz = 1.000000
 Bra state:  Computed S^2 = 2.060739 will be treated as 2.000000 Sz = 1.000000
 Clebsh-Gordan coefficient: <1.000,1.000;1.000,0.000|1.000,1.000> = 0.707

_______________________________
 One-electron SO (cm-1)
 Reduced matrix elements:
 <S|| Hso(L-) ||S'> = (-0.000000,-0.000000)
 <S|| Hso(L0) ||S'> = (0.000000,-51.526305)
 <S|| Hso(L+) ||S'> = (-0.000000,0.000000)

 SOCC = 51.526305


 Actual matrix elements:
       |Sz=-1.00>           |Sz=0.00>           |Sz=1.00>
 <Sz=-1.00|(0.000000,36.434599)(-0.000000,0.000000)(-0.000000,-0.000000)
 <Sz=0.00|(0.000000,0.000000)(0.000000,-0.000000)(-0.000000,0.000000)
 <Sz=1.00|(-0.000000,-0.000000)(0.000000,0.000000)(0.000000,-36.434599)
_______________________________
 Mean-field SO (cm-1)
 Reduced matrix elements:
 <S|| Hso(L-) ||S'> = (-0.000000,-0.000000)
 <S|| Hso(L0) ||S'> = (0.000000,-31.421437)
 <S|| Hso(L+) ||S'> = (-0.000000,0.000000)

 Singlet part of <S|| Hso(L0) ||S'> = (-0.000000,-0.133775) (excluded from all matrix elements)
 L-/L+ Averaged reduced matrix elements:
 <S|| Hso(L-) ||S'> = (-0.000000,-0.000000)
 <S|| Hso(L+) ||S'> = (-0.000000,0.000000)

 SOCC = 31.421437


 Actual matrix elements:
       |Sz=-1.00>           |Sz=0.00>           |Sz=1.00>
 <Sz=-1.00|(0.000000,22.218311)(-0.000000,0.000000)(-0.000000,-0.000000)
 <Sz=0.00|(0.000000,0.000000)(0.000000,-0.000000)(-0.000000,0.000000)
 <Sz=1.00|(-0.000000,-0.000000)(0.000000,0.000000)(0.000000,-22.218311)
_______________________________

**************************************************

**************************************************
 State A: Root 0
 State B: Root 20


 Analysing Sz ans S^2 of the pair of states...
 Ket state:  Computed S^2 = 2.026906 will be treated as 2.000000 Sz = 1.000000
 Bra state:  Computed S^2 = 2.086730 will be treated as 2.000000 Sz = 1.000000
 Clebsh-Gordan coefficient: <1.000,1.000;1.000,0.000|1.000,1.000> = 0.707

_______________________________
 One-electron SO (cm-1)
 Reduced matrix elements:
 <S|| Hso(L-) ||S'> = (0.000000,52.939559)
 <S|| Hso(L0) ||S'> = (0.000000,-0.000000)
 <S|| Hso(L+) ||S'> = (0.000000,-52.939559)

 SOCC = 74.867842


 Actual matrix elements:
       |Sz=-1.00>           |Sz=0.00>           |Sz=1.00>
 <Sz=-1.00|(-0.000000,0.000000)(0.000000,-37.433921)(0.000000,-0.000000)
 <Sz=0.00|(-0.000000,-37.433921)(-0.000000,0.000000)(0.000000,-37.433921)
 <Sz=1.00|(0.000000,0.000000)(-0.000000,-37.433921)(-0.000000,-0.000000)
_______________________________
 Mean-field SO (cm-1)
 Reduced matrix elements:
 <S|| Hso(L-) ||S'> = (0.000000,33.913213)
 <S|| Hso(L0) ||S'> = (0.000000,-0.000000)
 <S|| Hso(L+) ||S'> = (0.000000,-34.061214)

 Singlet part of <S|| Hso(L0) ||S'> = (-0.000000,-0.000000) (excluded from all matrix elements)
 L-/L+ Averaged reduced matrix elements:
 <S|| Hso(L-) ||S'> = (0.000000,33.987213)
 <S|| Hso(L+) ||S'> = (0.000000,-33.987213)

 SOCC = 48.065178


 Actual matrix elements:
       |Sz=-1.00>           |Sz=0.00>           |Sz=1.00>
 <Sz=-1.00|(-0.000000,0.000000)(0.000000,-24.032589)(0.000000,-0.000000)
 <Sz=0.00|(-0.000000,-24.032589)(-0.000000,0.000000)(0.000000,-24.032589)
 <Sz=1.00|(0.000000,0.000000)(-0.000000,-24.032589)(-0.000000,-0.000000)
_______________________________

**************************************************

**************************************************
 State A: Root 0
 State B: Root 21


 Analysing Sz ans S^2 of the pair of states...
 Ket state:  Computed S^2 = 2.026906 will be treated as 2.000000 Sz = 1.000000
 Bra state:  Computed S^2 = 2.386706 will be treated as 2.000000 Sz = 1.000000
 Clebsh-Gordan coefficient: <1.000,1.000;1.000,0.000|1.000,1.000> = 0.707

_______________________________
 One-electron SO (cm-1)
 Reduced matrix elements:
 <S|| Hso(L-) ||S'> = (-0.000000,0.000000)
 <S|| Hso(L0) ||S'> = (0.000000,0.000000)
 <S|| Hso(L+) ||S'> = (-0.000000,-0.000000)

 SOCC = 0.000000


 Actual matrix elements:
       |Sz=-1.00>           |Sz=0.00>           |Sz=1.00>
 <Sz=-1.00|(0.000000,-0.000000)(-0.000000,-0.000000)(-0.000000,0.000000)
 <Sz=0.00|(0.000000,-0.000000)(0.000000,0.000000)(-0.000000,-0.000000)
 <Sz=1.00|(-0.000000,0.000000)(0.000000,-0.000000)(0.000000,0.000000)
_______________________________
 Mean-field SO (cm-1)
 Reduced matrix elements:
 <S|| Hso(L-) ||S'> = (-0.000000,0.000000)
 <S|| Hso(L0) ||S'> = (0.000000,0.000000)
 <S|| Hso(L+) ||S'> = (-0.000000,-0.000000)

 Singlet part of <S|| Hso(L0) ||S'> = (0.000000,0.000000) (excluded from all matrix elements)
 L-/L+ Averaged reduced matrix elements:
 <S|| Hso(L-) ||S'> = (-0.000000,0.000000)
 <S|| Hso(L+) ||S'> = (-0.000000,-0.000000)

 SOCC = 0.000000


 Actual matrix elements:
       |Sz=-1.00>           |Sz=0.00>           |Sz=1.00>
 <Sz=-1.00|(0.000000,-0.000000)(-0.000000,-0.000000)(-0.000000,0.000000)
 <Sz=0.00|(0.000000,-0.000000)(0.000000,0.000000)(-0.000000,-0.000000)
 <Sz=1.00|(-0.000000,0.000000)(0.000000,-0.000000)(0.000000,0.000000)
_______________________________

**************************************************

**************************************************
 State A: Root 0
 State B: Root 22


 Analysing Sz ans S^2 of the pair of states...
 Ket state:  Computed S^2 = 2.026906 will be treated as 2.000000 Sz = 1.000000
WARNING! The deviation of S^2 from the correct value is large, indicating a significant spin contamination. The results may be unreliable
 Bra state:  Computed S^2 = 2.529211 will be treated as 2.000000 Sz = 1.000000
 Clebsh-Gordan coefficient: <1.000,1.000;1.000,0.000|1.000,1.000> = 0.707

_______________________________
 One-electron SO (cm-1)
 Reduced matrix elements:
 <S|| Hso(L-) ||S'> = (0.000000,-0.000000)
 <S|| Hso(L0) ||S'> = (0.000000,21.177873)
 <S|| Hso(L+) ||S'> = (0.000000,0.000000)

 SOCC = 21.177873


 Actual matrix elements:
       |Sz=-1.00>           |Sz=0.00>           |Sz=1.00>
 <Sz=-1.00|(-0.000000,-14.975017)(0.000000,0.000000)(0.000000,0.000000)
 <Sz=0.00|(-0.000000,0.000000)(-0.000000,0.000000)(0.000000,0.000000)
 <Sz=1.00|(0.000000,0.000000)(-0.000000,0.000000)(-0.000000,14.975017)
_______________________________
 Mean-field SO (cm-1)
 Reduced matrix elements:
 <S|| Hso(L-) ||S'> = (0.000000,-0.000000)
 <S|| Hso(L0) ||S'> = (0.000000,13.553731)
 <S|| Hso(L+) ||S'> = (0.000000,0.000000)

 Singlet part of <S|| Hso(L0) ||S'> = (0.000000,0.003532) (excluded from all matrix elements)
 L-/L+ Averaged reduced matrix elements:
 <S|| Hso(L-) ||S'> = (0.000000,-0.000000)
 <S|| Hso(L+) ||S'> = (0.000000,0.000000)

 SOCC = 13.553731


 Actual matrix elements:
       |Sz=-1.00>           |Sz=0.00>           |Sz=1.00>
 <Sz=-1.00|(-0.000000,-9.583935)(0.000000,0.000000)(0.000000,0.000000)
 <Sz=0.00|(-0.000000,0.000000)(-0.000000,0.000000)(0.000000,0.000000)
 <Sz=1.00|(0.000000,0.000000)(-0.000000,0.000000)(-0.000000,9.583935)
_______________________________

**************************************************

**************************************************
 State A: Root 0
 State B: Root 23


 Analysing Sz ans S^2 of the pair of states...
 Ket state:  Computed S^2 = 2.026906 will be treated as 2.000000 Sz = 1.000000
WARNING! The deviation of S^2 from the correct value is large, indicating a significant spin contamination. The results may be unreliable
 Bra state:  Computed S^2 = 3.785835 will be treated as 6.000000 Sz = 1.000000
 Clebsh-Gordan coefficient: <1.000,1.000;1.000,0.000|2.000,1.000> = 0.707

_______________________________
 One-electron SO (cm-1)
 Reduced matrix elements:
 <S|| Hso(L-) ||S'> = (-2.654043,-0.000000)
 <S|| Hso(L0) ||S'> = (0.000000,0.000000)
 <S|| Hso(L+) ||S'> = (-2.654043,0.000000)

 SOCC = 4.845598


 Actual matrix elements:
       |Sz=-1.00>           |Sz=0.00>           |Sz=1.00>
 <Sz=-2.00|(-2.654043,0.000000)(0.000000,0.000000)(0.000000,0.000000)
 <Sz=-1.00|(-0.000000,0.000000)(-1.876692,0.000000)(-0.000000,0.000000)
 <Sz=0.00|(-1.083509,-0.000000)(0.000000,0.000000)(-1.083509,0.000000)
 <Sz=1.00|(-0.000000,-0.000000)(-1.876692,-0.000000)(-0.000000,0.000000)
 <Sz=2.00|(0.000000,0.000000)(0.000000,0.000000)(-2.654043,-0.000000)
_______________________________
 Mean-field SO (cm-1)
 Reduced matrix elements:
 <S|| Hso(L-) ||S'> = (-0.749683,-0.000000)
 <S|| Hso(L0) ||S'> = (0.000000,0.000000)
 <S|| Hso(L+) ||S'> = (-0.730970,0.000000)

 Singlet part of <S|| Hso(L0) ||S'> = (0.000000,0.000000) (excluded from all matrix elements)
 L-/L+ Averaged reduced matrix elements:
 <S|| Hso(L-) ||S'> = (-0.740327,-0.000000)
 <S|| Hso(L+) ||S'> = (-0.740327,0.000000)

 SOCC = 1.351645


 Actual matrix elements:
       |Sz=-1.00>           |Sz=0.00>           |Sz=1.00>
 <Sz=-2.00|(-0.740327,0.000000)(0.000000,0.000000)(0.000000,0.000000)
 <Sz=-1.00|(-0.000000,0.000000)(-0.523490,0.000000)(-0.000000,0.000000)
 <Sz=0.00|(-0.302237,-0.000000)(0.000000,0.000000)(-0.302237,0.000000)
 <Sz=1.00|(-0.000000,-0.000000)(-0.523490,-0.000000)(-0.000000,0.000000)
 <Sz=2.00|(0.000000,0.000000)(0.000000,0.000000)(-0.740327,-0.000000)
_______________________________

**************************************************

**************************************************
 State A: Root 0
 State B: Root 24


 Analysing Sz ans S^2 of the pair of states...
 Ket state:  Computed S^2 = 2.026906 will be treated as 2.000000 Sz = 1.000000
 Bra state:  Computed S^2 = 2.050999 will be treated as 2.000000 Sz = 1.000000
 Clebsh-Gordan coefficient: <1.000,1.000;1.000,0.000|1.000,1.000> = 0.707

_______________________________
 One-electron SO (cm-1)
 Reduced matrix elements:
 <S|| Hso(L-) ||S'> = (-30.894009,0.000000)
 <S|| Hso(L0) ||S'> = (0.000000,0.000000)
 <S|| Hso(L+) ||S'> = (-30.894009,-0.000000)

 SOCC = 43.690726


 Actual matrix elements:
       |Sz=-1.00>           |Sz=0.00>           |Sz=1.00>
 <Sz=-1.00|(0.000000,-0.000000)(-21.845363,-0.000000)(-0.000000,-0.000000)
 <Sz=0.00|(21.845363,-0.000000)(0.000000,0.000000)(-21.845363,-0.000000)
 <Sz=1.00|(-0.000000,0.000000)(21.845363,-0.000000)(0.000000,0.000000)
_______________________________
 Mean-field SO (cm-1)
 Reduced matrix elements:
 <S|| Hso(L-) ||S'> = (-18.885935,0.000000)
 <S|| Hso(L0) ||S'> = (0.000000,0.000000)
 <S|| Hso(L+) ||S'> = (-19.063564,-0.000000)

 Singlet part of <S|| Hso(L0) ||S'> = (0.000000,0.000000) (excluded from all matrix elements)
 L-/L+ Averaged reduced matrix elements:
 <S|| Hso(L-) ||S'> = (-18.974750,0.000000)
 <S|| Hso(L+) ||S'> = (-18.974750,-0.000000)

 SOCC = 26.834348


 Actual matrix elements:
       |Sz=-1.00>           |Sz=0.00>           |Sz=1.00>
 <Sz=-1.00|(0.000000,-0.000000)(-13.417174,-0.000000)(-0.000000,-0.000000)
 <Sz=0.00|(13.417174,-0.000000)(0.000000,0.000000)(-13.417174,-0.000000)
 <Sz=1.00|(-0.000000,0.000000)(13.417174,-0.000000)(0.000000,0.000000)
_______________________________

**************************************************

**************************************************
 State A: Root 0
 State B: Root 25


 Analysing Sz ans S^2 of the pair of states...
 Ket state:  Computed S^2 = 2.026906 will be treated as 2.000000 Sz = 1.000000
 Bra state:  Computed S^2 = 2.044044 will be treated as 2.000000 Sz = 1.000000
 Clebsh-Gordan coefficient: <1.000,1.000;1.000,0.000|1.000,1.000> = 0.707

_______________________________
 One-electron SO (cm-1)
 Reduced matrix elements:
 <S|| Hso(L-) ||S'> = (-0.000000,-9.702540)
 <S|| Hso(L0) ||S'> = (0.000000,-0.000000)
 <S|| Hso(L+) ||S'> = (-0.000000,9.702540)

 SOCC = 13.721464


 Actual matrix elements:
       |Sz=-1.00>           |Sz=0.00>           |Sz=1.00>
 <Sz=-1.00|(0.000000,0.000000)(-0.000000,6.860732)(-0.000000,0.000000)
 <Sz=0.00|(0.000000,6.860732)(0.000000,-0.000000)(-0.000000,6.860732)
 <Sz=1.00|(-0.000000,-0.000000)(0.000000,6.860732)(0.000000,-0.000000)
_______________________________
 Mean-field SO (cm-1)
 Reduced matrix elements:
 <S|| Hso(L-) ||S'> = (-0.000000,-7.281696)
 <S|| Hso(L0) ||S'> = (0.000000,-0.000000)
 <S|| Hso(L+) ||S'> = (-0.000000,7.286541)

 Singlet part of <S|| Hso(L0) ||S'> = (-0.000000,-0.000000) (excluded from all matrix elements)
 L-/L+ Averaged reduced matrix elements:
 <S|| Hso(L-) ||S'> = (-0.000000,-7.284118)
 <S|| Hso(L+) ||S'> = (-0.000000,7.284118)

 SOCC = 10.301299


 Actual matrix elements:
       |Sz=-1.00>           |Sz=0.00>           |Sz=1.00>
 <Sz=-1.00|(0.000000,0.000000)(-0.000000,5.150649)(-0.000000,0.000000)
 <Sz=0.00|(0.000000,5.150649)(0.000000,-0.000000)(-0.000000,5.150649)
 <Sz=1.00|(-0.000000,-0.000000)(0.000000,5.150649)(0.000000,-0.000000)
_______________________________

**************************************************

**************************************************
 State A: Root 0
 State B: Root 26


 Analysing Sz ans S^2 of the pair of states...
 Ket state:  Computed S^2 = 2.026906 will be treated as 2.000000 Sz = 1.000000
WARNING! The deviation of S^2 from the correct value is large, indicating a significant spin contamination. The results may be unreliable
 Bra state:  Computed S^2 = 3.835643 will be treated as 6.000000 Sz = 1.000000
 Clebsh-Gordan coefficient: <1.000,1.000;1.000,0.000|2.000,1.000> = 0.707

_______________________________
 One-electron SO (cm-1)
 Reduced matrix elements:
 <S|| Hso(L-) ||S'> = (-5.390184,-0.000000)
 <S|| Hso(L0) ||S'> = (0.000000,-0.000000)
 <S|| Hso(L+) ||S'> = (-5.390184,0.000000)

 SOCC = 9.841085


 Actual matrix elements:
       |Sz=-1.00>           |Sz=0.00>           |Sz=1.00>
 <Sz=-2.00|(-5.390184,0.000000)(0.000000,0.000000)(0.000000,0.000000)
 <Sz=-1.00|(-0.000000,-0.000000)(-3.811436,0.000000)(-0.000000,0.000000)
 <Sz=0.00|(-2.200534,-0.000000)(0.000000,-0.000000)(-2.200534,0.000000)
 <Sz=1.00|(-0.000000,-0.000000)(-3.811436,-0.000000)(-0.000000,-0.000000)
[...]
 <Sz=1.00|(0.000000,-0.000000)(-0.170850,0.000000)(-0.000000,-0.000000)
_______________________________
 Mean-field SO (cm-1)
 Reduced matrix elements:
 <S|| Hso(L-) ||S'> = (0.062335,-0.000000)
 <S|| Hso(L0) ||S'> = (0.000000,-0.000000)
 <S|| Hso(L+) ||S'> = (0.063804,0.000000)

 Singlet part of <S|| Hso(L0) ||S'> = (-0.000000,-0.000000) (excluded from all matrix elements)
 L-/L+ Averaged reduced matrix elements:
 <S|| Hso(L-) ||S'> = (0.063070,-0.000000)
 <S|| Hso(L+) ||S'> = (0.063070,0.000000)

 SOCC = 0.089194


 Actual matrix elements:
       |Sz=-1.00>           |Sz=0.00>           |Sz=1.00>
 <Sz=-1.00|(-0.000000,0.000000)(0.044597,0.000000)(0.000000,0.000000)
 <Sz=0.00|(-0.044597,0.000000)(-0.000000,-0.000000)(0.044597,0.000000)
 <Sz=1.00|(0.000000,-0.000000)(-0.044597,0.000000)(-0.000000,-0.000000)
_______________________________

**************************************************

**************************************************
 State A: Root 48
 State B: Root 49


 Analysing Sz ans S^2 of the pair of states...
WARNING! The deviation of S^2 from the correct value is large, indicating a significant spin contamination. The results may be unreliable
 Ket state:  Computed S^2 = 3.505404 will be treated as 2.000000 Sz = 1.000000
WARNING! The deviation of S^2 from the correct value is large, indicating a significant spin contamination. The results may be unreliable
 Bra state:  Computed S^2 = 2.758767 will be treated as 2.000000 Sz = 1.000000
 Clebsh-Gordan coefficient: <1.000,1.000;1.000,0.000|1.000,1.000> = 0.707

_______________________________
 One-electron SO (cm-1)
 Reduced matrix elements:
 <S|| Hso(L-) ||S'> = (-0.000000,-0.277572)
 <S|| Hso(L0) ||S'> = (0.000000,0.000000)
 <S|| Hso(L+) ||S'> = (-0.000000,0.277572)

 SOCC = 0.392546


 Actual matrix elements:
       |Sz=-1.00>           |Sz=0.00>           |Sz=1.00>
 <Sz=-1.00|(0.000000,-0.000000)(-0.000000,0.196273)(-0.000000,0.000000)
 <Sz=0.00|(0.000000,0.196273)(0.000000,-0.000000)(-0.000000,0.196273)
 <Sz=1.00|(-0.000000,-0.000000)(0.000000,0.196273)(0.000000,0.000000)
_______________________________
 Mean-field SO (cm-1)
 Reduced matrix elements:
 <S|| Hso(L-) ||S'> = (-0.000000,-0.198279)
 <S|| Hso(L0) ||S'> = (0.000000,0.000000)
 <S|| Hso(L+) ||S'> = (-0.000000,0.199091)

 Singlet part of <S|| Hso(L0) ||S'> = (0.000000,0.000000) (excluded from all matrix elements)
 L-/L+ Averaged reduced matrix elements:
 <S|| Hso(L-) ||S'> = (-0.000000,-0.198685)
 <S|| Hso(L+) ||S'> = (-0.000000,0.198685)

 SOCC = 0.280983


 Actual matrix elements:
       |Sz=-1.00>           |Sz=0.00>           |Sz=1.00>
 <Sz=-1.00|(0.000000,-0.000000)(-0.000000,0.140492)(-0.000000,0.000000)
 <Sz=0.00|(0.000000,0.140492)(0.000000,-0.000000)(-0.000000,0.140492)
 <Sz=1.00|(-0.000000,-0.000000)(0.000000,0.140492)(0.000000,0.000000)
_______________________________

**************************************************

**************************************************
 State A: Root 48
 State B: Root 50


 Analysing Sz ans S^2 of the pair of states...
WARNING! The deviation of S^2 from the correct value is large, indicating a significant spin contamination. The results may be unreliable
 Ket state:  Computed S^2 = 3.505404 will be treated as 2.000000 Sz = 1.000000
WARNING! The deviation of S^2 from the correct value is large, indicating a significant spin contamination. The results may be unreliable
 Bra state:  Computed S^2 = 2.494127 will be treated as 2.000000 Sz = 1.000000
 Clebsh-Gordan coefficient: <1.000,1.000;1.000,0.000|1.000,1.000> = 0.707

_______________________________
 One-electron SO (cm-1)
 Reduced matrix elements:
 <S|| Hso(L-) ||S'> = (-0.000000,-0.145840)
 <S|| Hso(L0) ||S'> = (0.000000,-0.000001)
 <S|| Hso(L+) ||S'> = (-0.000000,0.145840)

 SOCC = 0.206248


 Actual matrix elements:
       |Sz=-1.00>           |Sz=0.00>           |Sz=1.00>
 <Sz=-1.00|(0.000000,0.000001)(-0.000000,0.103124)(-0.000000,0.000000)
 <Sz=0.00|(0.000000,0.103124)(0.000000,-0.000000)(-0.000000,0.103124)
 <Sz=1.00|(-0.000000,-0.000000)(0.000000,0.103124)(0.000000,-0.000001)
_______________________________
 Mean-field SO (cm-1)
 Reduced matrix elements:
 <S|| Hso(L-) ||S'> = (-0.000000,-0.080347)
 <S|| Hso(L0) ||S'> = (0.000000,-0.000000)
 <S|| Hso(L+) ||S'> = (-0.000000,0.078551)

 Singlet part of <S|| Hso(L0) ||S'> = (-0.000000,-0.000000) (excluded from all matrix elements)
 L-/L+ Averaged reduced matrix elements:
 <S|| Hso(L-) ||S'> = (-0.000000,-0.079449)
 <S|| Hso(L+) ||S'> = (-0.000000,0.079449)

 SOCC = 0.112358


 Actual matrix elements:
       |Sz=-1.00>           |Sz=0.00>           |Sz=1.00>
 <Sz=-1.00|(0.000000,0.000000)(-0.000000,0.056179)(-0.000000,0.000000)
 <Sz=0.00|(0.000000,0.056179)(0.000000,-0.000000)(-0.000000,0.056179)
 <Sz=1.00|(-0.000000,-0.000000)(0.000000,0.056179)(0.000000,-0.000000)
_______________________________

**************************************************

**************************************************
 State A: Root 49
 State B: Root 50


 Analysing Sz ans S^2 of the pair of states...
WARNING! The deviation of S^2 from the correct value is large, indicating a significant spin contamination. The results may be unreliable
 Ket state:  Computed S^2 = 2.758767 will be treated as 2.000000 Sz = 1.000000
WARNING! The deviation of S^2 from the correct value is large, indicating a significant spin contamination. The results may be unreliable
 Bra state:  Computed S^2 = 2.494127 will be treated as 2.000000 Sz = 1.000000
 Clebsh-Gordan coefficient: <1.000,1.000;1.000,0.000|1.000,1.000> = 0.707

_______________________________
 One-electron SO (cm-1)
 Reduced matrix elements:
 <S|| Hso(L-) ||S'> = (-0.000000,0.000000)
 <S|| Hso(L0) ||S'> = (0.000000,0.000000)
 <S|| Hso(L+) ||S'> = (-0.000000,-0.000000)

 SOCC = 0.000000


 Actual matrix elements:
       |Sz=-1.00>           |Sz=0.00>           |Sz=1.00>
 <Sz=-1.00|(0.000000,-0.000000)(-0.000000,-0.000000)(-0.000000,0.000000)
 <Sz=0.00|(0.000000,-0.000000)(0.000000,0.000000)(-0.000000,-0.000000)
 <Sz=1.00|(-0.000000,0.000000)(0.000000,-0.000000)(0.000000,0.000000)
_______________________________
 Mean-field SO (cm-1)
 Reduced matrix elements:
 <S|| Hso(L-) ||S'> = (-0.000000,0.000000)
 <S|| Hso(L0) ||S'> = (0.000000,0.000000)
 <S|| Hso(L+) ||S'> = (-0.000000,-0.000000)

 Singlet part of <S|| Hso(L0) ||S'> = (-0.000000,-0.000000) (excluded from all matrix elements)
 L-/L+ Averaged reduced matrix elements:
 <S|| Hso(L-) ||S'> = (-0.000000,0.000000)
 <S|| Hso(L+) ||S'> = (-0.000000,-0.000000)

 SOCC = 0.000000


 Actual matrix elements:
       |Sz=-1.00>           |Sz=0.00>           |Sz=1.00>
 <Sz=-1.00|(0.000000,-0.000000)(-0.000000,-0.000000)(-0.000000,0.000000)
 <Sz=0.00|(0.000000,-0.000000)(0.000000,0.000000)(-0.000000,-0.000000)
 <Sz=1.00|(-0.000000,0.000000)(0.000000,-0.000000)(0.000000,0.000000)
_______________________________

**************************************************


            *********SPIN-ORBIT COUPLING JOB ENDS HERE*********



 
 --------------------------------------------------------------
             Orbital Energies (a.u.) and Symmetries
 --------------------------------------------------------------
 
 Alpha MOs, Unrestricted
 -- Occupied --                  
-19.258 -19.116 -10.292 -10.253 -10.222 -10.222 -10.209 -10.209
  1 A1    2 A1    3 A1    4 A1    1 B1    5 A1    2 B1    6 A1                 
 -1.133  -1.038  -0.878  -0.797  -0.736  -0.660  -0.619  -0.552
  7 A1    8 A1    9 A1    3 B1   10 A1    4 B1   11 A1   12 A1                 
 -0.538  -0.497  -0.488  -0.469  -0.461  -0.442  -0.426  -0.418
  5 B1   13 A1    1 B2    6 B1   14 A1    7 B1    2 B2   15 A1                 
 -0.377  -0.346  -0.307  -0.267  -0.221
  8 B1    3 B2    1 A2    9 B1    4 B2                                         
 -- Virtual --                   
 -0.050  -0.017   0.041   0.059   0.072   0.095   0.108   0.113
  2 A2    5 B2   16 A1   10 B1   17 A1   18 A1   11 B1    6 B2                 
  0.135   0.141   0.182   0.185   0.189   0.204   0.221   0.226
 19 A1   20 A1    7 B2   21 A1   12 B1   13 B1    3 A2   22 A1                 
  0.250   0.274   0.291   0.300   0.303   0.304   0.321   0.325
  8 B2   14 B1   23 A1    9 B2   24 A1    4 A2   15 B1   25 A1                 
  0.327   0.351   0.373   0.380   0.393   0.404   0.411   0.412
 16 B1   26 A1   27 A1   10 B2   17 B1   28 A1   18 B1   29 A1                 
  0.426   0.441   0.455   0.458   0.478   0.493   0.515   0.538
 11 B2   19 B1   20 B1   30 A1   31 A1   32 A1   21 B1   12 B2                 
  0.586   0.590   0.590   0.614   0.616   0.653   0.665   0.701
 13 B2   33 A1    5 A2   22 B1   23 B1   24 B1   34 A1    6 A2                 
  0.701   0.716   0.751   0.766   0.797   0.799   0.822   0.837
 35 A1   25 B1   36 A1    7 A2   14 B2   37 A1   26 B1   38 A1                 
  0.841   0.844   0.853   0.863   0.986   0.988   1.002   1.010
 27 B1   15 B2   39 A1   40 A1   41 A1   28 B1    8 A2   29 B1                 
  1.015   1.069   1.098   1.142   1.159   1.171   1.182   1.185
 42 A1   16 B2    9 A2   30 B1   17 B2   43 A1   44 A1   31 B1                 
  1.202   1.238   1.255   1.308   1.347   1.350   1.373   1.380
 18 B2   45 A1   32 B1   46 A1   19 B2   10 A2   47 A1   33 B1                 
  1.403   1.409   1.455   1.465   1.470   1.526   1.558   1.577
 48 A1   11 A2   34 B1   20 B2   49 A1   35 B1   50 A1   51 A1                 
  1.597   1.599   1.638   1.641   1.666   1.675   1.683   1.754
 12 A2   21 B2   52 A1   13 A2   36 B1   22 B2   53 A1   37 B1                 
  1.794   1.800   1.805   1.857   1.898   1.904   1.913   1.986
 38 B1   23 B2   54 A1   14 A2   24 B2   15 A2   55 A1   39 B1                 
  2.004   2.013   2.060   2.087   2.088   2.119   2.136   2.205
 25 B2   16 A2   40 B1   41 B1   56 A1   57 A1   58 A1   42 B1                 
  2.215   2.237   2.310   2.314   2.328   2.388   2.439   2.473
 59 A1   60 A1   17 A2   26 B2   43 B1   44 B1   61 A1   27 B2                 
  2.487   2.503   2.531   2.555   2.579   2.582   2.617   2.624
 45 B1   46 B1   62 A1   47 B1   28 B2   63 A1   48 B1   64 A1                 
  2.635   2.662   2.677   2.701   2.712   2.725   2.753   2.758
 65 A1   18 A2   29 B2   30 B2   49 B1   19 A2   66 A1   50 B1                 
  2.767   2.825   2.838   2.865   2.870   2.880   2.881   2.895
 31 B2   67 A1   32 B2   20 A2   68 A1   33 B2   69 A1   51 B1                 
  2.923   2.999   3.010   3.060   3.075   3.086   3.105   3.112
 70 A1   71 A1   34 B2   21 A2   52 B1   22 A2   53 B1   35 B2                 
  3.116   3.133   3.142   3.151   3.170   3.171   3.220   3.225
 54 B1   72 A1   73 A1   55 B1   23 A2   74 A1   75 A1   36 B2                 
  3.271   3.290   3.325   3.330   3.373   3.376   3.376   3.399
 24 A2   56 B1   25 A2   37 B2   76 A1   77 A1   57 B1   38 B2                 
  3.409   3.426   3.436   3.437   3.484   3.575   3.578   3.603
 58 B1   26 A2   39 B2   78 A1   79 A1   59 B1   80 A1   60 B1                 
  3.668   3.696   3.727   3.762   3.808   3.874   3.925   3.965
 27 A2   61 B1   40 B2   81 A1   62 B1   82 A1   63 B1   83 A1                 
  3.975   3.992   3.998   4.030   4.056   4.143   4.145   4.146
 64 B1   28 A2   41 B2   42 B2   84 A1   85 A1   86 A1   43 B2                 
  4.191   4.208   4.255   4.378   4.434   4.448   4.508   4.513
 29 A2   65 B1   66 B1   87 A1   30 A2   88 A1   89 A1   44 B2                 
  4.591   4.698   4.766   4.768   4.778   4.832   4.950   5.049
 67 B1   90 A1   91 A1   68 B1   69 B1   92 A1   70 B1   45 B2                 
  5.059   5.098   5.187   5.196   5.227   5.290   5.367   5.515
 93 A1   71 B1   72 B1   46 B2   73 B1   94 A1   31 A2   74 B1                 
  5.531   5.566   5.772   5.839   6.064   6.118   6.190   6.313
 95 A1   32 A2   96 A1   47 B2   48 B2   97 A1   33 A2   75 B1                 
  6.358   6.359   6.389   6.596   6.658   6.670   6.789   6.861
 34 A2   98 A1   99 A1  100 A1   76 B1   49 B2   50 B2   77 B1                 
  6.879   7.067   7.077  22.060  22.454  22.660  22.757  22.970
101 A1   78 B1  102 A1  103 A1   79 B1   80 B1  104 A1  105 A1                 
 23.372  43.718  43.894
106 A1  107 A1  108 A1                                                         
 
 Beta MOs, Unrestricted
 -- Occupied --                  
-19.231 -19.106 -10.288 -10.254 -10.222 -10.222 -10.206 -10.206
  1 A1    2 A1    3 A1    4 A1    1 B1    5 A1    2 B1    6 A1                 
 -1.076  -1.022  -0.865  -0.791  -0.715  -0.645  -0.610  -0.532
  7 A1    8 A1    9 A1    3 B1   10 A1    4 B1   11 A1   12 A1                 
 -0.513  -0.492  -0.465  -0.454  -0.449  -0.410  -0.396  -0.395
  5 B1   13 A1    6 B1    1 B2   14 A1   15 A1    2 B2    7 B1                 
 -0.308  -0.298  -0.258
  3 B2    1 A2    8 B1                                                         
 -- Virtual --                   
 -0.220  -0.135  -0.033   0.010   0.042   0.060   0.076   0.098
  9 B1    4 B2    2 A2    5 B2   16 A1   10 B1   17 A1   18 A1                 
  0.110   0.128   0.139   0.145   0.184   0.191   0.191   0.205
 11 B1    6 B2   19 A1   20 A1    7 B2   21 A1   12 B1   13 B1                 
  0.223   0.231   0.258   0.286   0.296   0.303   0.307   0.310
  3 A2   22 A1    8 B2   14 B1   23 A1    9 B2   24 A1    4 A2                 
  0.326   0.335   0.339   0.356   0.376   0.384   0.397   0.407
 15 B1   16 B1   25 A1   26 A1   27 A1   10 B2   17 B1   28 A1                 
  0.414   0.415   0.437   0.448   0.459   0.461   0.482   0.497
 29 A1   18 B1   11 B2   19 B1   20 B1   30 A1   31 A1   32 A1                 
  0.523   0.549   0.595   0.598   0.598   0.617   0.620   0.667
 21 B1   12 B2   33 A1   13 B2    5 A2   22 B1   23 B1   24 B1                 
  0.672   0.703   0.705   0.718   0.760   0.774   0.806   0.806
 34 A1    6 A2   35 A1   25 B1   36 A1    7 A2   37 A1   14 B2                 
  0.826   0.842   0.848   0.851   0.857   0.864   0.990   0.991
 26 B1   38 A1   27 B1   15 B2   39 A1   40 A1   41 A1   28 B1                 
  1.008   1.017   1.023   1.075   1.107   1.145   1.165   1.176
  8 A2   29 B1   42 A1   16 B2    9 A2   30 B1   17 B2   43 A1                 
  1.188   1.191   1.210   1.244   1.261   1.314   1.357   1.370
 44 A1   31 B1   18 B2   45 A1   32 B1   46 A1   19 B2   10 A2                 
  1.384   1.385   1.413   1.418   1.459   1.475   1.479   1.530
 33 B1   47 A1   48 A1   11 A2   34 B1   20 B2   49 A1   35 B1                 
  1.565   1.584   1.607   1.607   1.648   1.662   1.669   1.680
 50 A1   51 A1   12 A2   21 B2   52 A1   13 A2   36 B1   22 B2                 
  1.691   1.768   1.801   1.807   1.818   1.871   1.911   1.912
 53 A1   37 B1   38 B1   23 B2   54 A1   14 A2   24 B2   15 A2                 
  1.922   1.997   2.016   2.019   2.072   2.093   2.100   2.123
 55 A1   39 B1   25 B2   16 A2   40 B1   41 B1   56 A1   57 A1                 
  2.146   2.212   2.220   2.244   2.320   2.327   2.363   2.396
 58 A1   42 B1   59 A1   60 A1   17 A2   26 B2   43 B1   44 B1                 
  2.447   2.488   2.493   2.510   2.537   2.559   2.587   2.594
 61 A1   27 B2   45 B1   46 B1   62 A1   47 B1   63 A1   28 B2                 
  2.620   2.629   2.638   2.673   2.690   2.712   2.717   2.730
 48 B1   64 A1   65 A1   18 A2   29 B2   30 B2   49 B1   19 A2                 
  2.762   2.762   2.783   2.833   2.849   2.871   2.877   2.890
 66 A1   50 B1   31 B2   67 A1   32 B2   20 A2   68 A1   33 B2                 
  2.892   2.908   2.945   3.006   3.018   3.066   3.084   3.091
 69 A1   51 B1   70 A1   71 A1   34 B2   21 A2   52 B1   22 A2                 
  3.120   3.121   3.124   3.137   3.149   3.155   3.176   3.183
 53 B1   35 B2   54 B1   72 A1   73 A1   55 B1   23 A2   74 A1                 
  3.228   3.233   3.277   3.296   3.333   3.343   3.380   3.382
 75 A1   36 B2   24 A2   56 B1   25 A2   37 B2   76 A1   57 B1                 
  3.389   3.407   3.412   3.433   3.445   3.447   3.489   3.584
 77 A1   38 B2   58 B1   26 A2   39 B2   78 A1   79 A1   80 A1                 
  3.597   3.612   3.675   3.700   3.736   3.768   3.818   3.877
 59 B1   60 B1   27 A2   61 B1   40 B2   81 A1   62 B1   82 A1                 
  3.927   3.970   3.983   4.004   4.006   4.037   4.061   4.148
 63 B1   83 A1   64 B1   28 A2   41 B2   42 B2   84 A1   85 A1                 
  4.151   4.154   4.199   4.212   4.266   4.396   4.444   4.455
 86 A1   43 B2   29 A2   65 B1   66 B1   87 A1   30 A2   88 A1                 
  4.512   4.521   4.596   4.705   4.774   4.777   4.784   4.845
 89 A1   44 B2   67 B1   90 A1   68 B1   91 A1   69 B1   92 A1                 
  4.974   5.067   5.116   5.146   5.202   5.221   5.246   5.297
 70 B1   93 A1   45 B2   71 B1   72 B1   46 B2   73 B1   94 A1                 
  5.411   5.522   5.575   5.582   5.787   5.859   6.086   6.145
 31 A2   74 B1   95 A1   32 A2   96 A1   47 B2   48 B2   97 A1                 
  6.286   6.358   6.392   6.393   6.461   6.632   6.668   6.693
 33 A2   75 B1   34 A2   98 A1   99 A1  100 A1   76 B1   49 B2                 
  6.817   6.911   6.923   7.077   7.090  22.062  22.456  22.662
 50 B2  101 A1   77 B1   78 B1  102 A1  103 A1   79 B1   80 B1                 
 22.760  22.973  23.373  43.745  43.905
104 A1  105 A1  106 A1  107 A1  108 A1                                         
 --------------------------------------------------------------
 
          Ground-State Mulliken Net Atomic Charges

     Atom                 Charge (a.u.)    Spin (a.u.)
  --------------------------------------------------------
      1 O                    -0.120574       0.989236
      2 C                     0.333837       0.243023
      3 C                    -0.181583      -0.012415
      4 C                    -0.181583      -0.012415
      5 C                    -0.141038       0.236710
      6 C                    -0.141038       0.236710
      7 C                     0.212559      -0.037138
      8 O                    -0.318583       0.349534
      9 H                     0.136281       0.004404
     10 H                     0.136281       0.004404
     11 H                     0.132721      -0.001027
     12 H                     0.132721      -0.001027
  --------------------------------------------------------
  Sum of atomic charges =     0.000000
  Sum of spin   charges =     2.000000

 -----------------------------------------------------------------
                    Cartesian Multipole Moments
 -----------------------------------------------------------------
    Charge (ESU x 10^10)
                 0.0000
    Dipole Moment (Debye)
         X      -0.0000      Y      -0.0000      Z       3.2240
       Tot       3.2240
    Quadrupole Moments (Debye-Ang)
        XX     -37.4322     XY      -0.0000     YY     -46.9456
        XZ      -0.0000     YZ       0.0000     ZZ     -57.9699
    Octopole Moments (Debye-Ang^2)
       XXX       0.0000    XXY      -0.0000    XYY      -0.0000
       YYY      -0.0000    XXZ       2.8803    XYZ      -0.0000
       YYZ      -0.2777    XZZ      -0.0000    YZZ       0.0000
       ZZZ      29.9895
    Hexadecapole Moments (Debye-Ang^3)
      XXXX    -270.2848   XXXY       0.0000   XXYY     -66.2499
      XYYY      -0.0000   YYYY     -49.9620   XXXZ       0.0000
      XXYZ       0.0000   XYYZ      -0.0000   YYYZ       0.0000
      XXZZ    -155.5263   XYZZ      -0.0000   YYZZ    -130.0762
      XZZZ      -0.0000   YZZZ       0.0000   ZZZZ    -876.5086
 -----------------------------------------------------------------
 Total job time:  3530.54s(wall), 3501.93s(cpu) 
 Mon Nov  4 12:15:42 2024

        *************************************************************
        *                                                           *
        *  Thank you very much for using Q-Chem.  Have a nice day.  *
        *                                                           *
        *************************************************************


