                  Welcome to Q-Chem
     A Quantum Leap Into The Future Of Chemistry


 Q-Chem 6.0 (devel), Q-Chem, Inc., Pleasanton, CA (2022)

 E. Epifanovsky,  A. T. B. Gilbert,  Xintian Feng,  Joonho Lee,  Yuezhi Mao,  
 N. Mardirossian,  P. Pokhilko,  A. White,  M. Wormit,  M. P. Coons,  
 A. L. Dempwolff,  Zhengting Gan,  D. Hait,  P. R. Horn,  L. D. Jacobson,  
 I. Kaliman,  J. Kussmann,  A. W. Lange,  Ka Un Lao,  D. S. Levine,  Jie Liu,  
 S. C. McKenzie,  A. F. Morrison,  K. Nanda,  F. Plasser,  D. R. Rehn,  
 M. L. Vidal,  Zhi-Qiang You,  Ying Zhu,  B. Alam,  B. Albrecht,  
 A. Aldossary,  E. Alguire,  J. H. Andersen,  V. Athavale,  D. Barton,  
 K. Begam,  A. Behn,  N. Bellonzi,  Y. A. Bernard,  E. J. Berquist,  
 H. Burton,  A. Carreras,  K. Carter-Fenk,  Romit Chakraborty,  
 Chandrima Chakravarty,  Junhan Chen,  A. D. Chien,  K. D. Closser,  
 V. Cofer-Shabica,  L. Cunha,  S. Dasgupta,  Jia Deng,  M. de Wergifosse,  
 M. Diedenhofen,  Hainam Do,  S. Ehlert,  Po-Tung Fang,  S. Fatehi,  
 Qingguo Feng,  T. Friedhoff,  B. Ganoe,  J. Gayvert,  Qinghui Ge,  
 G. Gidofalvi,  M. Goldey,  J. Gomes,  C. Gonzalez-Espinoza,  S. Gulania,  
 A. Gunina,  J. A. Gyamfi,  M. W. D. Hanson-Heine,  P. H. P. Harbach,  
 A. W. Hauser,  M. F. Herbst,  M. Hernandez Vera,  M. Hodecker,  
 Z. C. Holden,  S. Houck,  Xunkun Huang,  Kerwin Hui,  B. C. Huynh,  
 K. Ikeda,  M. Ivanov,  Hyunjun Ji,  Zuxin Jin,  Hanjie Jiang,  B. Kaduk,  
 S. Kaehler,  R. Kang,  K. Khistyaev,  Jaehoon Kim,  Yongbin Kim,  
 P. Klunzinger,  Z. Koczor-Benda,  Joong Hoon Koh,  D. Kosenkov,  
 Saikiran Kotaru,  L. Koulias,  T. Kowalczyk,  C. M. Krauter,  K. Kue,  
 A. Kunitsa,  T. Kus,  A. Landau,  K. V. Lawler,  D. Lefrancois,  S. Lehtola,  
 Rain Li,  Shaozhi Li,  Yi-Pei Li,  Jiashu Liang,  M. Liebenthal,  
 Hung-Hsuan Lin,  You-Sheng Lin,  Fenglai Liu,  Kuan-Yu Liu,  
 M. Loipersberger,  A. Luenser,  C. Malbon,  A. Manjanath,  P. Manohar,  
 E. Mansoor,  S. F. Manzer,  Shan-Ping Mao,  A. V. Marenich,  T. Markovich,  
 S. Mason,  F. Matz,  S. A. Maurer,  P. F. McLaughlin,  M. F. S. J. Menger,  
 J.-M. Mewes,  S. A. Mewes,  P. Morgante,  Mohammad Mostafanejad,  
 J. W. Mullinax,  K. J. Oosterbaan,  G. Paran,  V. Parravicini,  
 Alexander C. Paul,  Suranjan K. Paul,  F. Pavosevic,  Zheng Pei,  S. Prager,  
 E. I. Proynov,  E. Ramos,  B. Rana,  A. E. Rask,  A. Rettig,  R. M. Richard,  
 F. Rob,  E. Rossomme,  T. Scheele,  M. Scheurer,  M. Schneider,  
 P. E. Schneider,  N. Sergueev,  S. M. Sharada,  Hengyuan Shen,  
 W. Skomorowski,  D. W. Small,  C. J. Stein,  Yingli Su,  Yu-Chuan Su,  
 E. J. Sundstrom,  Zhen Tao,  J. Thirman,  Hung-Yi Tsai,  T. Tsuchimochi,  
 N. M. Tubman,  C. Utku,  S. P. Veccham,  O. Vydrov,  J. Wenzel,  
 Jonathan Wong,  J. Witte,  A. Yamada,  Chou-Hsun Yang,  Kun Yao,  
 S. Yeganeh,  S. R. Yost,  A. Zech,  F. Zeller,  Igor Ying Zhang,  
 Xing Zhang,  Yu Zhang,  D. Zuev,  A. Aspuru-Guzik,  A. T. Bell,  
 N. A. Besley,  K. B. Bravaya,  B. R. Brooks,  D. Casanova,  Jeng-Da Chai,  
 Hsing-Ta Chen,  S. Coriani,  C. J. Cramer,  A. E. DePrince, III,  
 R. A. DiStasio Jr.,  A. Dreuw,  B. D. Dunietz,  T. R. Furlani,  
 W. A. Goddard III,  S. Grimme,  S. Hammes-Schiffer,  T. Head-Gordon,  
 W. J. Hehre,  Chao-Ping Hsu,  T.-C. Jagau,  Yousung Jung,  A. Klamt,  
 Jing Kong,  D. S. Lambrecht,  Xiangyuan Li,  WanZhen Liang,  N. J. Mayhall,  
 C. W. McCurdy,  J. B. Neaton,  T. Neudecker,  C. Ochsenfeld,  
 J. A. Parkhill,  R. Peverati,  V. A. Rassolov,  Haisheng Ren,  Yihan Shao,  
 L. V. Slipchenko,  R. P. Steele,  J. E. Subotnik,  A. J. W. Thom,  
 A. Tkatchenko,  D. G. Truhlar,  T. Van Voorhis,  Fan Wang,  
 T. A. Wesolowski,  K. B. Whaley,  H. L. Woodcock III,  P. M. Zimmerman,  
 S. Faraji,  P. M. W. Gill,  M. Head-Gordon,  J. M. Herbert,  A. I. Krylov

 Contributors to earlier versions of Q-Chem not listed above: 
 R. D. Adamson,  B. Austin,  R. Baer,  J. Baker,  G. J. O. Beran,  
 K. Brandhorst,  S. T. Brown,  E. F. C. Byrd,  Arup K. Chakraborty,  
 G. K. L. Chan,  Chun-Min Chang,  Yunqing Chen,  C.-L. Cheng,  
 Siu Hung Chien,  D. M. Chipman,  D. L. Crittenden,  H. Dachsel,  
 R. J. Doerksen,  A. D. Dutoi,  R. G. Edgar,  J. Fosso-Tande,  
 L. Fusti-Molnar,  D. Ghosh,  A. Ghysels,  A. Golubeva-Zadorozhnaya,  
 J. Gonthier,  M. S. Gordon,  S. R. Gwaltney,  G. Hawkins,  J. E. Herr,  
 A. Heyden,  S. Hirata,  E. G. Hohenstein,  G. Kedziora,  F. J. Keil,  
 C. Kelley,  Jihan Kim,  R. A. King,  R. Z. Khaliullin,  P. P. Korambath,  
 W. Kurlancheek,  A. Laurent,  A. M. Lee,  M. S. Lee,  S. V. Levchenko,  
 Ching Yeh Lin,  D. Liotard,  E. Livshits,  R. C. Lochan,  I. Lotan,  
 L. A. Martinez-Martinez,  P. E. Maslen,  N. Nair,  D. P. O'Neill,  
 D. Neuhauser,  E. Neuscamman,  C. M. Oana,  R. Olivares-Amaya,  R. Olson,  
 T. M. Perrine,  B. Peters,  P. A. Pieniazek,  A. Prociuk,  Y. M. Rhee,  
 J. Ritchie,  M. A. Rohrdanz,  E. Rosta,  N. J. Russ,  H. F. Schaefer III,  
 M. W. Schmidt,  N. E. Schultz,  S. Sharma,  N. Shenvi,  C. D. Sherrill,  
 A. C. Simmonett,  A. Sodt,  T. Stein,  D. Stuck,  K. S. Thanthiriwatte,  
 V. Vanovschi,  L. Vogt,  Tao Wang,  A. Warshel,  M. A. Watson,  
 C. F. Williams,  Q. Wu,  X. Xu,  Jun Yang,  W. Zhang,  Yan Zhao

   Please cite Q-Chem as follows:
  "Software for the frontiers of quantum chemistry:
   An overview of developments in the Q-Chem 5 package"
   J. Chem. Phys. 155, 084801 (2021)
   https://doi.org/10.1063/5.0055522 (open access)

 Q-Chem 6.0.1 for Intel X86 EM64T Linux

 Parts of Q-Chem use Armadillo 9.900.5 (Nocturnal Misbehaviour).
 http://arma.sourceforge.net/

 Q-Chem begins on Mon Oct 21 11:35:22 2024  

 Host: hyperion-224
0

     Scratch files written to ./qchem3836937//
 Processing $rem in /scratch/abel/SOFTWARE/qchem/config/preferences:
 Processing $rem in /home/acebg/.qchemrc:

 Checking the input file for inconsistencies... 	...done.

--------------------------------------------------------------
User input:
--------------------------------------------------------------
$comment
 TD-DFT/TDA CALCULATION
$end

$molecule
 READ benzophenone.molecule
$end

$rem
!**REFERENCE***     
JOBTYPE            SP
EXCHANGE           B3LYP   !gen:specify in $xc_functional
CORRELATION        NONE
BASIS              def2-TZVP 

!***SCF REFERENCE***
INPUT_BOHR          TRUE
!SKIP_SCFMAN        FALSE
!UNRESTRICTED       FALSE !rectricted-TDDFT not avail in doublets
!SCF_GUESS          core
!SCF_GUESS_MIX      FALSE
!SCF_GUESS_ALWAYS   FALSE
MAX_SCF_CYCLES     999
!SCF_CONVERGENCE    10
SCF_ALGORITHM      DIIS_GDM !DIIS,DM,DIIS_DM,GDM,DIIS_GDM,GD

!SYMMETRY           TRUE !use of symmetry for calculating integrals
!SYM_IGNORE         FALSE !turn off using symmetry
!SYM_TOL            5 !tolerance for determining point group

!THRESH             14
!SCF_FINAL_PRINT    2 !0,1,2,3

!****CIS****
CIS_N_ROOTS        50
!CIS_CONVERGENCE   10
MAX_CIS_CYCLES     200
!CIS_SINGLETS      true
!CIS_TRIPLETS      true
CALC_SOC           2 !not available in doublets in TDDFT
STS_ANGMOM        true
!RPA                FALSE !RPA=1 TDA calc used as guess of TDDFT

!Spin-orbit coupling calculations are implemented for
!restricted, unrestricted CIS/TDDFT, and SF TDDFT
!using Wigner-Eckart theorem: Try CALC_SOC = 2.

!****MEMORY****
!MEM_TOTAL          80000        !Default 2000 MB
!MEM_STATIC         25000         !Default 64 MB

!**Molecular Properties and Analysis **
!POP_MULLIKEN       FALSE   !Run Mulliken population analysis
!LOWDIN_POPULATION  FALSE  !Run Löwdin population analysis
!GUI                0
!STATE_ANALYSIS     TRUE
!MOLDEN_FORMAT      FALSE
!PRINT_ORBITALS     5
$end

--------------------------------------------------------------
 ----------------------------------------------------------------
             Standard Nuclear Orientation (Bohr)
    I     Atom           X                Y                Z
 ----------------------------------------------------------------
    1      C       0.0000000000    -0.0000000000     1.7616000772
    2      O       0.0000000000    -0.0000000000     4.2626453788
    3      C      -2.4515146503    -0.0331342717     0.5854026033
    4      C       2.4515146503     0.0331342717     0.5854026033
    5      C       2.8430013288     1.0880866231    -1.8463666677
    6      C       4.5970400963    -0.8671930082     1.9264083375
    7      C       6.9748613791    -0.7928839619     0.8403562343
    8      C       5.2262074578     1.1225172668    -2.9109015756
    9      C       7.3157580598     0.1834271136    -1.5850434514
   10      H       1.2649900922     1.9042492020    -2.8578536668
   11      H       4.3392930822    -1.6659511958     3.7896568207
   12      H       5.4817259580     1.9198549006    -4.7799236178
   13      H       8.5807201718    -1.5192143035     1.8831820792
   14      H       9.1788078092     0.2325165625    -2.4295762444
   15      C      -2.8430013288    -1.0880866231    -1.8463666677
   16      C      -4.5970400963     0.8671930082     1.9264083375
   17      C      -5.2262074578    -1.1225172668    -2.9109015756
   18      C      -6.9748613791     0.7928839619     0.8403562343
   19      C      -7.3157580598    -0.1834271136    -1.5850434514
   20      H      -1.2649900922    -1.9042492020    -2.8578536668
   21      H      -5.4817259580    -1.9198549006    -4.7799236178
   22      H      -4.3392930822     1.6659511958     3.7896568207
   23      H      -8.5807201718     1.5192143035     1.8831820792
   24      H      -9.1788078092    -0.2325165625    -2.4295762444
 ----------------------------------------------------------------
 Molecular Point Group                 C2    NOp =  2
 Largest Abelian Subgroup              C2    NOp =  2
 Nuclear Repulsion Energy =         772.43069410 hartrees
 There are       49 alpha and       47 beta electrons
 Requested basis set is def2-TZVP
 There are 194 shells and 494 basis functions

 Total QAlloc Memory Limit   2000 MB
 Mega-Array Size       188 MB
 MEM_STATIC part       192 MB

 A cutoff of  1.0D-12 yielded  14989 shell pairs
 There are     96917 function pairs (    125284 Cartesian)
 Smallest overlap matrix eigenvalue = 8.18E-06

 Scale SEOQF with 1.000000e-01/1.000000e+00/1.000000e-01

 Standard Electronic Orientation quadrupole field applied
 Nucleus-field energy     =     0.0000000231 hartrees
 Guess from superposition of atomic densities
 Warning:  Energy on first SCF cycle will be non-variational
 SAD guess density has 96.000000 electrons

 -----------------------------------------------------------------------
  General SCF calculation program by
  Eric Jon Sundstrom, Paul Horn, Yuezhi Mao, Dmitri Zuev, Alec White,
  David Stuck, Shaama M.S., Shane Yost, Joonho Lee, David Small,
  Daniel Levine, Susi Lehtola, Hugh Burton, Evgeny Epifanovsky,
  Bang C. Huynh
 -----------------------------------------------------------------------
 Exchange:     0.2000 Hartree-Fock + 0.0800 Slater + 0.7200 B88
 Correlation:  0.1900 VWN1RPA + 0.8100 LYP
 Using SG-1 standard quadrature grid
 A unrestricted SCF calculation will be
 performed using DIIS, GDM
 SCF converges when RMS gradient is below 1.0e-08
 ---------------------------------------
  Cycle       Energy         DIIS error
 ---------------------------------------
    1    -579.9785374087      1.29e-02  
    2    -576.5069372581      1.32e-03  Done DIIS. Switching to GDM
 ---------------------------------------
  Cycle       Energy        RMS Gradient
 ---------------------------------------
    1    -576.5069372581      1.53e-01   Descent step
    2    -576.7063934340      3.66e-02   Dog-leg BFGS step
    3    -576.6995286170      2.04e-01  Line search: overstep
    4    -576.7311575983      1.23e-01   Normal BFGS step
    5    -576.7320330295      9.39e-02   Normal BFGS step
    6    -576.7409834746      3.01e-02   Normal BFGS step
    7    -576.7412525234      2.48e-02   Normal BFGS step
    8    -576.7437597037      9.64e-03   Normal BFGS step
    9    -576.7439052807      8.31e-03   Normal BFGS step
   10    -576.7442678859      4.28e-03   Normal BFGS step
   11    -576.7443837687      3.31e-03   Normal BFGS step
   12    -576.7444426694      1.85e-03   Normal BFGS step
   13    -576.7444630599      1.07e-03   Normal BFGS step
   14    -576.7444650560      9.11e-04   Normal BFGS step
   15    -576.7444697380      2.39e-04   Normal BFGS step
   16    -576.7444700407      1.42e-04   Normal BFGS step
   17    -576.7444701612      5.72e-05   Normal BFGS step
   18    -576.7444701959      1.81e-05   Normal BFGS step
   19    -576.7444701998      8.76e-06   Normal BFGS step
   20    -576.7444702006      5.11e-06   Normal BFGS step
   21    -576.7444702010      1.44e-06   Normal BFGS step
   22    -576.7444702011      6.11e-07   Normal BFGS step
   23    -576.7444702011      4.51e-07   Normal BFGS step
  GDM::WARNING energy changes are now smaller than effective accuracy.
  GDM::        calculation will continue, but THRESH should be increased
  GDM::        or SCF_CONVERGENCE decreased. 
  GDM::        effective_thresh = 4.28e-09
   24    -576.7444702009      8.28e-07   Normal BFGS step
   25    -576.7444702012      3.24e-07   Normal BFGS step
   26    -576.7444702012      2.12e-07   Normal BFGS step
  GDM::WARNING energy changes are now smaller than effective accuracy.
  GDM::        calculation will continue, but THRESH should be increased
  GDM::        or SCF_CONVERGENCE decreased. 
  GDM::        effective_thresh = 4.28e-09
   27    -576.7444702006      6.42e-08   Normal BFGS step
   28    -576.7444702007      5.27e-08   Normal BFGS step
  GDM::WARNING energy changes are now smaller than effective accuracy.
  GDM::        calculation will continue, but THRESH should be increased
  GDM::        or SCF_CONVERGENCE decreased. 
  GDM::        effective_thresh = 7.96e-09
   29    -576.7444702014      4.56e-09  Convergence criterion met
 ---------------------------------------
 SCF time:   CPU 977.49s  wall 982.00s 
<S^2> =          2.024095144
 SCF   energy in the final basis set =     -576.7444702014
 Total energy in the final basis set =     -576.7444702014
 

 CIS/TDDFT memory preview:
 --------------------------
	NOV = NOa*NVa + NOb*NVb = 42814
	NRoots = 50, max iter = 200, max vectors = 10000
	Size of each subspace vector: 0.33 Mb
	Davidson algorithm may add up to 2 x NOV x NRoots (= 32.7 Mb) per iteration
	Max memory = 6532.9 Mb (worst case scenario)
	Currently available memory = 2000.0 Mb

	In case of problems:
	(a) increase memory (MEM_TOTAL = 6533 can hold 10000 subspace vectors), or
	(b) request fewer states (CIS_N_ROOTS = 15 will fit in current MEM_TOTAL), or
	(c) reduce MAX_CIS_SUBSPACE (= 3061 will fit in current MEM_TOTAL).
	Reducing MAX_CIS_SUBSPACE may hamper convergence.

 Direct TDDFT/TDA calculation will be performed
 Exchange:     0.2000 Hartree-Fock + 0.0800 Slater + 0.7200 B88
 Correlation:  0.1900 VWN1RPA + 0.8100 LYP
 Using SG-1 standard quadrature grid
 CIS energy converged when residual is below 10e- 6
 ---------------------------------------------------
 Iter    Rts Conv    Rts Left    Ttl Dev     Max Dev
 ---------------------------------------------------
   1         0          50      0.014912    0.001181
   2         0          50      0.003327    0.000358
   3         0          50      0.001039    0.000186
   4        14          36      0.000507    0.000150
   5        36          14      0.000187    0.000053
   6        44           6      0.000055    0.000014
   7        47           3      0.000020    0.000003
   8        50           0      0.000013    0.000001    Roots Converged
 ---------------------------------------------------
 
 ---------------------------------------------------
         TDDFT/TDA Excitation Energies              
 ---------------------------------------------------

 Excited state   1: excitation energy (eV) =    0.9020
 Total energy for state  1:                  -576.71132260 au
    <S**2>     :  2.0276
    Trans. Mom.: -0.0000 X  -0.0000 Y  -0.3907 Z
    Strength   :     0.0033731772
    D(   37) --> S(    1) amplitude = -0.1810 beta
    D(   41) --> S(    1) amplitude = -0.3320 beta
    D(   43) --> S(    1) amplitude =  0.1852 beta
    D(   44) --> S(    1) amplitude =  0.8854 beta

 Excited state   2: excitation energy (eV) =    1.2143
 Total energy for state  2:                  -576.69984686 au
    <S**2>     :  2.0353
    Trans. Mom.:  0.8501 X   0.0346 Y   0.0000 Z
    Strength   :     0.0215321012
    S(    2) --> V(    1) amplitude = -0.2392 alpha
    D(   47) --> S(    1) amplitude =  0.9614 beta

 Excited state   3: excitation energy (eV) =    1.3997
 Total energy for state  3:                  -576.69303119 au
    <S**2>     :  2.0388
    Trans. Mom.: -0.0000 X  -0.0000 Y   0.1315 Z
    Strength   :     0.0005926275
    D(   46) --> S(    1) amplitude =  0.9932 beta

 Excited state   4: excitation energy (eV) =    1.4511
 Total energy for state  4:                  -576.69114424 au
    <S**2>     :  2.0387
    Trans. Mom.: -0.1907 X   0.0393 Y  -0.0000 Z
    Strength   :     0.0013474151
    D(   45) --> S(    1) amplitude =  0.9938 beta

 Excited state   5: excitation energy (eV) =    2.6150
 Total energy for state  5:                  -576.64836951 au
    <S**2>     :  2.0693
    Trans. Mom.:  1.7127 X   0.1222 Y   0.0000 Z
    Strength   :     0.1888799578
    S(    2) --> V(    1) amplitude =  0.8521 alpha
    S(    2) --> V(    2) amplitude =  0.3875 alpha
    D(   47) --> S(    1) amplitude =  0.1871 beta
    D(   47) --> S(    2) amplitude =  0.2275 beta

 Excited state   6: excitation energy (eV) =    2.7808
 Total energy for state  6:                  -576.64227903 au
    <S**2>     :  2.0613
    Trans. Mom.: -1.1421 X   0.0733 Y  -0.0000 Z
    Strength   :     0.0892312884
    S(    2) --> V(    1) amplitude = -0.3321 alpha
    S(    2) --> V(    2) amplitude =  0.8976 alpha
    D(   47) --> S(    2) amplitude = -0.2054 beta

 Excited state   7: excitation energy (eV) =    2.9191
 Total energy for state  7:                  -576.63719464 au
    <S**2>     :  2.0562
    Trans. Mom.: -0.0000 X   0.0000 Y   0.3070 Z
    Strength   :     0.0067383286
    S(    2) --> V(    3) amplitude =  0.9358 alpha
    D(   41) --> S(    1) amplitude = -0.1698 beta
    D(   46) --> S(    2) amplitude = -0.1539 beta

 Excited state   8: excitation energy (eV) =    2.9661
 Total energy for state  8:                  -576.63546910 au
    <S**2>     :  2.0417
    Trans. Mom.: -0.0000 X  -0.0000 Y  -0.2768 Z
    Strength   :     0.0055676119
    S(    2) --> V(    3) amplitude =  0.2714 alpha
    S(    2) --> V(    4) amplitude = -0.1798 alpha
    D(   37) --> S(    1) amplitude =  0.3371 beta
    D(   41) --> S(    1) amplitude =  0.5539 beta
    D(   43) --> S(    1) amplitude = -0.5337 beta
    D(   44) --> S(    1) amplitude =  0.3863 beta

 Excited state   9: excitation energy (eV) =    3.4109
 Total energy for state  9:                  -576.61912331 au
    <S**2>     :  2.0370
    Trans. Mom.:  0.0091 X   0.0132 Y  -0.0000 Z
    Strength   :     0.0000213691
    D(   36) --> S(    1) amplitude = -0.2547 beta
    D(   39) --> S(    1) amplitude =  0.1898 beta
    D(   42) --> S(    1) amplitude =  0.9251 beta

 Excited state  10: excitation energy (eV) =    3.6833
 Total energy for state 10:                  -576.60911201 au
    <S**2>     :  2.0426
    Trans. Mom.: -0.0000 X   0.0000 Y  -0.1319 Z
    Strength   :     0.0015693698
    S(    2) --> V(    4) amplitude = -0.2010 alpha
    D(   41) --> S(    1) amplitude =  0.5681 beta
    D(   43) --> S(    1) amplitude =  0.7801 beta

 Excited state  11: excitation energy (eV) =    3.8331
 Total energy for state 11:                  -576.60360696 au
    <S**2>     :  2.3247
    Trans. Mom.:  0.0000 X   0.0000 Y  -0.1200 Z
    Strength   :     0.0013531795
    D(   47) --> V(    1) amplitude = -0.2126 alpha
    S(    2) --> V(    4) amplitude =  0.6212 alpha
    D(   41) --> S(    1) amplitude =  0.1635 beta
    D(   44) --> S(    2) amplitude =  0.6494 beta
    D(   47) --> V(    1) amplitude =  0.2123 beta

 Excited state  12: excitation energy (eV) =    4.0015
 Total energy for state 12:                  -576.59741922 au
    <S**2>     :  2.0457
    Trans. Mom.: -0.0000 X  -0.0000 Y  -0.0871 Z
    Strength   :     0.0007443608
    D(   40) --> S(    1) amplitude =  0.9480 beta
    D(   41) --> S(    1) amplitude =  0.1775 beta

 Excited state  13: excitation energy (eV) =    4.0479
 Total energy for state 13:                  -576.59571154 au
    <S**2>     :  2.2557
    Trans. Mom.: -1.9852 X  -0.0031 Y  -0.0000 Z
    Strength   :     0.3908398792
    D(   45) --> V(    1) amplitude =  0.1842 alpha
    S(    2) --> V(    1) amplitude = -0.2486 alpha
    D(   39) --> S(    1) amplitude = -0.2190 beta
    D(   47) --> S(    2) amplitude =  0.8359 beta

 Excited state  14: excitation energy (eV) =    4.1231
 Total energy for state 14:                  -576.59294983 au
    <S**2>     :  2.2555
    Trans. Mom.: -0.0000 X  -0.0000 Y   0.3492 Z
    Strength   :     0.0123174899
    D(   46) --> V(    1) amplitude =  0.2069 alpha
    S(    2) --> V(    3) amplitude =  0.1533 alpha
    D(   46) --> S(    2) amplitude =  0.9125 beta

 Excited state  15: excitation energy (eV) =    4.1703
 Total energy for state 15:                  -576.59121608 au
    <S**2>     :  2.2140
    Trans. Mom.: -0.2582 X  -0.1847 Y  -0.0000 Z
    Strength   :     0.0103001708
    S(    1) --> V(    1) amplitude =  0.1941 alpha
    D(   39) --> S(    1) amplitude = -0.4144 beta
    D(   42) --> S(    1) amplitude =  0.1660 beta
    D(   45) --> S(    2) amplitude =  0.8157 beta

 Excited state  16: excitation energy (eV) =    4.2346
 Total energy for state 16:                  -576.58885129 au
    <S**2>     :  2.1389
    Trans. Mom.: -1.0173 X  -0.0713 Y  -0.0000 Z
    Strength   :     0.1078932107
    D(   36) --> S(    1) amplitude = -0.1815 beta
    D(   38) --> S(    1) amplitude = -0.2199 beta
    D(   39) --> S(    1) amplitude =  0.7177 beta
    D(   42) --> S(    1) amplitude = -0.2243 beta
    D(   45) --> S(    2) amplitude =  0.4278 beta
    D(   47) --> S(    2) amplitude =  0.2359 beta

 Excited state  17: excitation energy (eV) =    4.3424
 Total energy for state 17:                  -576.58489014 au
    <S**2>     :  2.2618
    Trans. Mom.: -0.2544 X  -0.0195 Y   0.0000 Z
    Strength   :     0.0069282754
    D(   46) --> V(    3) amplitude =  0.1780 alpha
    S(    1) --> V(    2) amplitude = -0.2121 alpha
    D(   38) --> S(    1) amplitude =  0.8857 beta
    D(   39) --> S(    1) amplitude =  0.2761 beta

 Excited state  18: excitation energy (eV) =    4.5030
 Total energy for state 18:                  -576.57898776 au
    <S**2>     :  3.6725
    Trans. Mom.: -0.0000 X   0.0000 Y  -0.2400 Z
    Strength   :     0.0063566174
    D(   46) --> V(    2) amplitude = -0.4047 alpha
    D(   47) --> V(    1) amplitude =  0.2395 alpha
    S(    1) --> V(    3) amplitude =  0.3931 alpha
    S(    2) --> V(    4) amplitude =  0.2746 alpha
    D(   37) --> S(    1) amplitude =  0.2026 beta
    D(   45) --> V(    1) amplitude = -0.2515 beta
    D(   45) --> V(    2) amplitude = -0.3703 beta
    D(   46) --> V(    3) amplitude =  0.4121 beta
    D(   47) --> V(    2) amplitude =  0.1803 beta

 Excited state  19: excitation energy (eV) =    4.5876
 Total energy for state 19:                  -576.57587983 au
    <S**2>     :  2.2391
    Trans. Mom.: -0.0000 X   0.0000 Y   0.2009 Z
    Strength   :     0.0045345284
    D(   47) --> V(    1) amplitude = -0.3083 alpha
    S(    2) --> V(    4) amplitude = -0.3517 alpha
    D(   37) --> S(    1) amplitude =  0.7258 beta
    D(   41) --> S(    1) amplitude = -0.3677 beta
    D(   44) --> S(    2) amplitude =  0.1923 beta

 Excited state  20: excitation energy (eV) =    4.6327
 Total energy for state 20:                  -576.57422149 au
    <S**2>     :  3.6019
    Trans. Mom.:  0.4154 X  -0.0162 Y   0.0000 Z
    Strength   :     0.0196178165
    D(   46) --> V(    3) amplitude = -0.3882 alpha
    S(    1) --> V(    2) amplitude =  0.4471 alpha
    D(   38) --> S(    1) amplitude =  0.3386 beta
    D(   45) --> V(    3) amplitude = -0.3929 beta
    D(   46) --> V(    1) amplitude =  0.2473 beta
    D(   46) --> V(    2) amplitude =  0.4171 beta
    D(   47) --> S(    2) amplitude = -0.2635 beta

 Excited state  21: excitation energy (eV) =    4.7863
 Total energy for state 21:                  -576.56857805 au
    <S**2>     :  2.0373
    Trans. Mom.:  0.1654 X   0.0505 Y   0.0000 Z
    Strength   :     0.0035061214
    S(    2) --> V(    5) amplitude =  0.9886 alpha

 Excited state  22: excitation energy (eV) =    4.8960
 Total energy for state 22:                  -576.56454647 au
    <S**2>     :  2.1672
    Trans. Mom.: -0.0000 X  -0.0000 Y   0.5624 Z
    Strength   :     0.0379405164
    D(   46) --> V(    2) amplitude = -0.1761 alpha
    D(   47) --> V(    1) amplitude = -0.1650 alpha
    S(    1) --> V(    3) amplitude =  0.1644 alpha
    S(    2) --> V(    4) amplitude = -0.4760 alpha
    D(   37) --> S(    1) amplitude = -0.4038 beta
    D(   40) --> S(    1) amplitude = -0.1744 beta
    D(   44) --> S(    2) amplitude =  0.5725 beta
    D(   47) --> V(    1) amplitude = -0.1932 beta

 Excited state  23: excitation energy (eV) =    4.9760
 Total energy for state 23:                  -576.56160491 au
    <S**2>     :  2.0463
    Trans. Mom.: -0.0744 X  -0.0293 Y  -0.0000 Z
    Strength   :     0.0007797186
    D(   28) --> S(    1) amplitude =  0.1889 beta
    D(   30) --> S(    1) amplitude = -0.2762 beta
    D(   32) --> S(    1) amplitude =  0.2345 beta
    D(   34) --> S(    1) amplitude = -0.3040 beta
    D(   36) --> S(    1) amplitude =  0.7211 beta
    D(   39) --> S(    1) amplitude =  0.3767 beta
    D(   42) --> S(    1) amplitude =  0.2178 beta

 Excited state  24: excitation energy (eV) =    5.0225
 Total energy for state 24:                  -576.55989516 au
    <S**2>     :  2.1430
    Trans. Mom.:  0.0000 X   0.0000 Y   0.0233 Z
    Strength   :     0.0000668473
    S(    2) --> V(    6) amplitude =  0.9505 alpha
    D(   47) --> V(    1) amplitude = -0.1939 beta

 Excited state  25: excitation energy (eV) =    5.0233
 Total energy for state 25:                  -576.55986555 au
    <S**2>     :  3.5662
    Trans. Mom.:  0.0000 X   0.0000 Y  -0.0666 Z
    Strength   :     0.0005456275
    D(   46) --> V(    2) amplitude = -0.1662 alpha
    D(   47) --> V(    1) amplitude = -0.5071 alpha
    S(    1) --> V(    3) amplitude =  0.1642 alpha
    S(    2) --> V(    6) amplitude =  0.2336 alpha
    D(   37) --> S(    1) amplitude = -0.2369 beta
    D(   44) --> S(    2) amplitude = -0.2471 beta
    D(   45) --> V(    2) amplitude = -0.1970 beta
    D(   46) --> V(    3) amplitude =  0.1890 beta
    D(   47) --> V(    1) amplitude =  0.6119 beta

 Excited state  26: excitation energy (eV) =    5.1569
 Total energy for state 26:                  -576.55495721 au
    <S**2>     :  3.7256
    Trans. Mom.:  0.0000 X  -0.0000 Y  -0.0087 Z
    Strength   :     0.0000094731
    D(   45) --> V(    3) amplitude = -0.1698 alpha
    D(   46) --> V(    1) amplitude =  0.5123 alpha
    D(   47) --> V(    2) amplitude = -0.3228 alpha
    D(   44) --> V(    3) amplitude = -0.2613 beta
    D(   45) --> V(    1) amplitude =  0.2931 beta
    D(   46) --> S(    2) amplitude = -0.1699 beta
    D(   47) --> V(    2) amplitude =  0.5807 beta

 Excited state  27: excitation energy (eV) =    5.1731
 Total energy for state 27:                  -576.55436390 au
    <S**2>     :  3.6639
    Trans. Mom.: -0.1045 X   0.0686 Y  -0.0000 Z
    Strength   :     0.0019796917
    D(   47) --> V(    3) amplitude =  0.1758 alpha
    S(    1) --> V(    1) amplitude =  0.6492 alpha
    D(   44) --> V(    2) amplitude =  0.2600 beta
    D(   45) --> S(    2) amplitude = -0.2404 beta
    D(   46) --> V(    1) amplitude =  0.3548 beta
    D(   46) --> V(    2) amplitude = -0.1663 beta
    D(   47) --> V(    3) amplitude = -0.4208 beta

 Excited state  28: excitation energy (eV) =    5.3960
 Total energy for state 28:                  -576.54617075 au
    <S**2>     :  3.8514
    Trans. Mom.:  0.0000 X  -0.0000 Y  -0.1902 Z
    Strength   :     0.0047830783
    D(   45) --> V(    3) amplitude =  0.2268 alpha
    D(   46) --> V(    1) amplitude =  0.5602 alpha
    D(   46) --> V(    2) amplitude = -0.1580 alpha
    D(   47) --> V(    2) amplitude =  0.4780 alpha
    D(   45) --> V(    1) amplitude =  0.3365 beta
    D(   45) --> V(    2) amplitude = -0.2612 beta
    D(   46) --> S(    2) amplitude = -0.1646 beta
    D(   47) --> V(    2) amplitude = -0.3115 beta

 Excited state  29: excitation energy (eV) =    5.4026
 Total energy for state 29:                  -576.54592749 au
    <S**2>     :  3.8334
    Trans. Mom.:  0.2456 X  -0.0701 Y   0.0000 Z
    Strength   :     0.0086313147
    D(   45) --> V(    1) amplitude =  0.2960 alpha
    D(   45) --> V(    2) amplitude =  0.2603 alpha
    D(   47) --> V(    3) amplitude =  0.4269 alpha
    S(    1) --> V(    1) amplitude = -0.3805 alpha
    D(   44) --> V(    1) amplitude =  0.4328 beta
    D(   46) --> V(    1) amplitude = -0.2548 beta
    D(   47) --> V(    3) amplitude = -0.4027 beta

 Excited state  30: excitation energy (eV) =    5.4911
 Total energy for state 30:                  -576.54267634 au
    <S**2>     :  3.7322
    Trans. Mom.:  0.1735 X   0.0219 Y   0.0000 Z
    Strength   :     0.0041149095
    D(   45) --> V(    1) amplitude =  0.4840 alpha
    D(   45) --> V(    2) amplitude = -0.2001 alpha
    D(   47) --> V(    3) amplitude = -0.2655 alpha
    D(   47) --> V(    4) amplitude = -0.1809 alpha
    D(   44) --> V(    1) amplitude =  0.4751 beta
    D(   44) --> V(    2) amplitude = -0.3479 beta
    D(   46) --> V(    2) amplitude = -0.1932 beta
    D(   47) --> S(    2) amplitude = -0.1649 beta
    D(   47) --> V(    3) amplitude =  0.2403 beta
    D(   47) --> V(    5) amplitude =  0.1740 beta

 Excited state  31: excitation energy (eV) =    5.5198
 Total energy for state 31:                  -576.54162267 au
    <S**2>     :  2.0385
    Trans. Mom.: -0.2891 X  -0.0595 Y  -0.0000 Z
    Strength   :     0.0117773530
    S(    2) --> V(    7) amplitude =  0.9889 alpha

 Excited state  32: excitation energy (eV) =    5.6193
 Total energy for state 32:                  -576.53796354 au
    <S**2>     :  2.1874
    Trans. Mom.:  0.0000 X  -0.0000 Y  -0.0083 Z
    Strength   :     0.0000095023
    D(   45) --> V(    3) amplitude = -0.1637 alpha
    D(   46) --> V(    1) amplitude = -0.3161 alpha
    D(   47) --> V(    2) amplitude = -0.4445 alpha
    D(   45) --> V(    1) amplitude =  0.6121 beta
    D(   45) --> V(    2) amplitude = -0.3028 beta
    D(   47) --> V(    1) amplitude = -0.2455 beta
    D(   47) --> V(    2) amplitude = -0.2580 beta

 Excited state  33: excitation energy (eV) =    5.6208
 Total energy for state 33:                  -576.53791037 au
    <S**2>     :  2.1564
    Trans. Mom.:  0.3155 X  -0.0774 Y   0.0000 Z
    Strength   :     0.0145349565
    D(   45) --> V(    2) amplitude =  0.2209 alpha
    D(   47) --> V(    3) amplitude =  0.3758 alpha
    S(    1) --> V(    1) amplitude = -0.3936 alpha
    D(   46) --> V(    1) amplitude =  0.6780 beta
    D(   46) --> V(    2) amplitude = -0.2530 beta
    D(   47) --> V(    3) amplitude =  0.2542 beta

 Excited state  34: excitation energy (eV) =    5.7499
 Total energy for state 34:                  -576.53316517 au
    <S**2>     :  2.0501
    Trans. Mom.:  0.0748 X   0.0697 Y  -0.0000 Z
    Strength   :     0.0014725984
    S(    2) --> V(    9) amplitude =  0.9563 alpha
    S(    2) --> V(   11) amplitude =  0.2051 alpha

 Excited state  35: excitation energy (eV) =    5.7508
 Total energy for state 35:                  -576.53313226 au
    <S**2>     :  2.0402
    Trans. Mom.:  0.0000 X   0.0000 Y   0.0229 Z
    Strength   :     0.0000735760
    S(    2) --> V(    8) amplitude =  0.9707 alpha

 Excited state  36: excitation energy (eV) =    5.9002
 Total energy for state 36:                  -576.52764178 au
    <S**2>     :  2.0521
    Trans. Mom.:  0.0000 X   0.0000 Y   0.2431 Z
    Strength   :     0.0085432170
    D(   33) --> S(    1) amplitude =  0.8442 beta
    D(   35) --> S(    1) amplitude = -0.3289 beta
    D(   43) --> S(    2) amplitude = -0.2561 beta

 Excited state  37: excitation energy (eV) =    5.9146
 Total energy for state 37:                  -576.52711224 au
    <S**2>     :  2.0464
    Trans. Mom.:  0.0000 X   0.0000 Y   0.0079 Z
    Strength   :     0.0000090038
    D(   33) --> S(    1) amplitude =  0.2911 beta
    D(   35) --> S(    1) amplitude =  0.9018 beta
    D(   43) --> S(    2) amplitude = -0.1533 beta

 Excited state  38: excitation energy (eV) =    5.9584
 Total energy for state 38:                  -576.52550398 au
    <S**2>     :  2.0444
    Trans. Mom.: -0.2565 X  -0.0392 Y   0.0000 Z
    Strength   :     0.0098256549
    D(   34) --> S(    1) amplitude =  0.9243 beta
    D(   36) --> S(    1) amplitude =  0.3503 beta

 Excited state  39: excitation energy (eV) =    6.0452
 Total energy for state 39:                  -576.52231436 au
    <S**2>     :  2.0520
    Trans. Mom.:  0.0000 X  -0.0000 Y  -0.1591 Z
    Strength   :     0.0037486276
    D(   47) --> V(    1) amplitude = -0.3076 alpha
    S(    2) --> V(   10) amplitude =  0.8064 alpha
    D(   45) --> V(    1) amplitude = -0.1540 beta
    D(   45) --> V(    2) amplitude = -0.1548 beta
    D(   47) --> V(    1) amplitude = -0.2542 beta

 Excited state  40: excitation energy (eV) =    6.0897
 Total energy for state 40:                  -576.52067746 au
    <S**2>     :  2.0394
    Trans. Mom.: -0.0000 X  -0.0000 Y   0.2212 Z
    Strength   :     0.0073020134
    D(   46) --> V(    2) amplitude = -0.2986 alpha
    D(   47) --> V(    1) amplitude =  0.4298 alpha
    S(    2) --> V(   10) amplitude =  0.5229 alpha
    D(   45) --> V(    1) amplitude =  0.2207 beta
    D(   45) --> V(    2) amplitude =  0.2947 beta
    D(   47) --> V(    1) amplitude =  0.3779 beta
    D(   47) --> V(    2) amplitude = -0.2191 beta

 Excited state  41: excitation energy (eV) =    6.1657
 Total energy for state 41:                  -576.51788554 au
    <S**2>     :  2.1570
    Trans. Mom.:  0.4431 X  -0.0255 Y   0.0000 Z
    Strength   :     0.0297583391
    D(   45) --> V(    1) amplitude = -0.2719 alpha
    S(    1) --> V(    2) amplitude = -0.4626 alpha
    D(   44) --> V(    1) amplitude =  0.3176 beta
    D(   45) --> V(    3) amplitude =  0.3764 beta
    D(   46) --> V(    1) amplitude =  0.2319 beta
    D(   46) --> V(    2) amplitude =  0.6013 beta

 Excited state  42: excitation energy (eV) =    6.1948
 Total energy for state 42:                  -576.51681400 au
    <S**2>     :  3.1394
    Trans. Mom.: -0.2401 X   0.0331 Y   0.0000 Z
    Strength   :     0.0089144815
    D(   45) --> V(    1) amplitude = -0.1752 alpha
    S(    1) --> V(    2) amplitude = -0.1770 alpha
    D(   44) --> V(    1) amplitude =  0.3898 beta
    D(   44) --> V(    2) amplitude =  0.5231 beta
    D(   45) --> V(    3) amplitude = -0.2896 beta
    D(   46) --> V(    2) amplitude = -0.2372 beta
    D(   47) --> V(    3) amplitude =  0.5583 beta

 Excited state  43: excitation energy (eV) =    6.2080
 Total energy for state 43:                  -576.51633131 au
    <S**2>     :  3.6338
    Trans. Mom.: -0.0000 X   0.0000 Y  -0.0425 Z
    Strength   :     0.0002742532
    D(   46) --> V(    2) amplitude =  0.2848 alpha
    S(    1) --> V(    3) amplitude =  0.2390 alpha
    D(   45) --> V(    1) amplitude =  0.1717 beta
    D(   45) --> V(    2) amplitude =  0.5501 beta
    D(   46) --> V(    3) amplitude =  0.6898 beta

 Excited state  44: excitation energy (eV) =    6.2279
 Total energy for state 44:                  -576.51559964 au
    <S**2>     :  3.5431
    Trans. Mom.: -0.1925 X  -0.0094 Y  -0.0000 Z
    Strength   :     0.0056671055
    D(   46) --> V(    3) amplitude =  0.5626 alpha
    S(    1) --> V(    2) amplitude =  0.5553 alpha
    D(   44) --> V(    1) amplitude =  0.1641 beta
    D(   44) --> V(    2) amplitude =  0.2979 beta
    D(   45) --> V(    3) amplitude =  0.3549 beta
    D(   46) --> V(    2) amplitude =  0.2227 beta
    D(   47) --> V(    3) amplitude =  0.1837 beta

 Excited state  45: excitation energy (eV) =    6.2286
 Total energy for state 45:                  -576.51557181 au
    <S**2>     :  2.3591
    Trans. Mom.: -0.0000 X  -0.0000 Y   0.0038 Z
    Strength   :     0.0000021792
    D(   46) --> V(    2) amplitude =  0.5959 alpha
    S(    1) --> V(    3) amplitude =  0.6573 alpha
    D(   43) --> S(    2) amplitude = -0.2456 beta
    D(   45) --> V(    2) amplitude = -0.1889 beta
    D(   46) --> V(    3) amplitude = -0.2453 beta

 Excited state  46: excitation energy (eV) =    6.2665
 Total energy for state 46:                  -576.51418191 au
    <S**2>     :  2.1583
    Trans. Mom.: -0.0000 X  -0.0000 Y  -0.2308 Z
    Strength   :     0.0081785438
    S(    1) --> V(    3) amplitude = -0.2069 alpha
    D(   33) --> S(    1) amplitude = -0.2644 beta
    D(   43) --> S(    2) amplitude = -0.8559 beta

 Excited state  47: excitation energy (eV) =    6.2717
 Total energy for state 47:                  -576.51399105 au
    <S**2>     :  2.1183
    Trans. Mom.:  0.1452 X   0.0158 Y  -0.0000 Z
    Strength   :     0.0032772539
    D(   42) --> S(    2) amplitude = -0.9289 beta

 Excited state  48: excitation energy (eV) =    6.2942
 Total energy for state 48:                  -576.51316256 au
    <S**2>     :  2.0677
    Trans. Mom.:  0.0715 X  -0.0236 Y   0.0000 Z
    Strength   :     0.0008737870
    D(   46) --> V(    3) amplitude = -0.2231 alpha
    S(    2) --> V(    9) amplitude = -0.2101 alpha
    S(    2) --> V(   11) amplitude =  0.9106 alpha

 Excited state  49: excitation energy (eV) =    6.2959
 Total energy for state 49:                  -576.51309865 au
    <S**2>     :  2.6379
    Trans. Mom.: -0.0000 X   0.0000 Y   0.4031 Z
    Strength   :     0.0250666136
    D(   46) --> V(    1) amplitude = -0.1749 alpha
    D(   47) --> V(    2) amplitude =  0.2231 alpha
    D(   44) --> V(    3) amplitude =  0.7603 beta
    D(   45) --> V(    1) amplitude =  0.2084 beta
    D(   47) --> V(    2) amplitude =  0.5020 beta

 Excited state  50: excitation energy (eV) =    6.3318
 Total energy for state 50:                  -576.51178233 au
    <S**2>     :  2.2744
    Trans. Mom.:  0.3581 X   0.0552 Y  -0.0000 Z
    Strength   :     0.0203661714
    D(   45) --> V(    1) amplitude =  0.5648 alpha
    D(   46) --> V(    3) amplitude = -0.2710 alpha
    D(   42) --> S(    2) amplitude = -0.2216 beta
    D(   44) --> V(    1) amplitude = -0.3361 beta
    D(   44) --> V(    2) amplitude =  0.4626 beta
    D(   45) --> V(    3) amplitude =  0.3722 beta
 
 ---------------------------------------------------
  SETman timing summary (seconds)
  CPU time              7397.21s
  System time              0.00s
  Wall time             7449.36s



            *********SPIN-ORBIT COUPLING JOB USING WIGNER–ECKART THEOREM BEGINS HERE*********

 Calculating one electron integrals:  Completed calculation of one electron integrals!
 Calculating MF integrals:  Completed calculation of MF integrals!
 Calculating S^2 values of the spin-states: S^2 values computed!
 Computing transition densities and evaluating SOCME with Libwe: 

**************************************************
 State A: Root 0
 State B: Root 1


 Analysing Sz ans S^2 of the pair of states...
 Ket state:  Computed S^2 = 2.0240951441 will be treated as 2.0000000000 Sz = 1.0000000000
 Bra state:  Computed S^2 = 2.0276278730 will be treated as 2.0000000000 Sz = 1.0000000000
 Clebsh-Gordan coefficient: <1.000,1.000;1.000,0.000|1.000,1.000> = 0.707

_______________________________
 One-electron SO (cm-1)
 Reduced matrix elements:
 <S|| Hso(L-) ||S'> = (0.000000,-0.000000)
 <S|| Hso(L0) ||S'> = (0.000000,-98.907761)
 <S|| Hso(L+) ||S'> = (0.000000,0.000000)

 SOCC = 98.907761


 Actual matrix elements:
       |Sz=-1.00>           |Sz=0.00>           |Sz=1.00>
 <Sz=-1.00|(-0.000000,69.938348)(0.000000,0.000000)(0.000000,-0.000000)
 <Sz=0.00|(-0.000000,0.000000)(-0.000000,-0.000000)(0.000000,0.000000)
 <Sz=1.00|(0.000000,-0.000000)(-0.000000,0.000000)(-0.000000,-69.938348)
_______________________________
 Mean-field SO (cm-1)
 Reduced matrix elements:
 <S|| Hso(L-) ||S'> = (0.000000,-0.000000)
 <S|| Hso(L0) ||S'> = (0.000000,-63.070998)
 <S|| Hso(L+) ||S'> = (0.000000,0.000000)

 Singlet part of <S|| Hso(L0) ||S'> = (-0.000000,-0.471663) (excluded from all matrix elements)
 L-/L+ Averaged reduced matrix elements:
 <S|| Hso(L-) ||S'> = (0.000000,-0.000000)
 <S|| Hso(L+) ||S'> = (0.000000,0.000000)

 SOCC = 63.070998


 Actual matrix elements:
       |Sz=-1.00>           |Sz=0.00>           |Sz=1.00>
 <Sz=-1.00|(-0.000000,44.597930)(0.000000,0.000000)(0.000000,-0.000000)
 <Sz=0.00|(-0.000000,0.000000)(-0.000000,-0.000000)(0.000000,0.000000)
 <Sz=1.00|(0.000000,-0.000000)(-0.000000,0.000000)(-0.000000,-44.597930)
_______________________________

**************************************************

**************************************************
 State A: Root 0
 State B: Root 2


 Analysing Sz ans S^2 of the pair of states...
 Ket state:  Computed S^2 = 2.024095 will be treated as 2.000000 Sz = 1.000000
 Bra state:  Computed S^2 = 2.035340 will be treated as 2.000000 Sz = 1.000000
 Clebsh-Gordan coefficient: <1.000,1.000;1.000,0.000|1.000,1.000> = 0.707

_______________________________
 One-electron SO (cm-1)
 Reduced matrix elements:
 <S|| Hso(L-) ||S'> = (11.615118,-4.173873)
 <S|| Hso(L0) ||S'> = (0.000000,-0.000000)
 <S|| Hso(L+) ||S'> = (11.615118,4.173873)

 SOCC = 17.454637


 Actual matrix elements:
       |Sz=-1.00>           |Sz=0.00>           |Sz=1.00>
 <Sz=-1.00|(-0.000000,0.000000)(8.213129,2.951374)(0.000000,0.000000)
 <Sz=0.00|(-8.213129,2.951374)(-0.000000,-0.000000)(8.213129,2.951374)
 <Sz=1.00|(0.000000,-0.000000)(-8.213129,2.951374)(-0.000000,-0.000000)
_______________________________
 Mean-field SO (cm-1)
 Reduced matrix elements:
 <S|| Hso(L-) ||S'> = (7.512356,-2.466471)
 <S|| Hso(L0) ||S'> = (0.000000,-0.000000)
 <S|| Hso(L+) ||S'> = (7.576180,2.492973)

 Singlet part of <S|| Hso(L0) ||S'> = (-0.000000,-0.000000) (excluded from all matrix elements)
 L-/L+ Averaged reduced matrix elements:
 <S|| Hso(L-) ||S'> = (7.544268,-2.479722)
 <S|| Hso(L+) ||S'> = (7.544268,2.479722)

 SOCC = 11.230762


 Actual matrix elements:
       |Sz=-1.00>           |Sz=0.00>           |Sz=1.00>
 <Sz=-1.00|(-0.000000,0.000000)(5.334603,1.753428)(0.000000,0.000000)
 <Sz=0.00|(-5.334603,1.753428)(-0.000000,-0.000000)(5.334603,1.753428)
 <Sz=1.00|(0.000000,-0.000000)(-5.334603,1.753428)(-0.000000,-0.000000)
_______________________________

**************************************************

**************************************************
 State A: Root 0
 State B: Root 3


 Analysing Sz ans S^2 of the pair of states...
 Ket state:  Computed S^2 = 2.024095 will be treated as 2.000000 Sz = 1.000000
 Bra state:  Computed S^2 = 2.038846 will be treated as 2.000000 Sz = 1.000000
 Clebsh-Gordan coefficient: <1.000,1.000;1.000,0.000|1.000,1.000> = 0.707

_______________________________
 One-electron SO (cm-1)
 Reduced matrix elements:
 <S|| Hso(L-) ||S'> = (-0.000000,0.000000)
 <S|| Hso(L0) ||S'> = (0.000000,8.113522)
 <S|| Hso(L+) ||S'> = (-0.000000,-0.000000)

 SOCC = 8.113522


 Actual matrix elements:
       |Sz=-1.00>           |Sz=0.00>           |Sz=1.00>
 <Sz=-1.00|(0.000000,-5.737126)(-0.000000,-0.000000)(-0.000000,0.000000)
 <Sz=0.00|(0.000000,-0.000000)(0.000000,0.000000)(-0.000000,-0.000000)
 <Sz=1.00|(-0.000000,0.000000)(0.000000,-0.000000)(0.000000,5.737126)
_______________________________
 Mean-field SO (cm-1)
 Reduced matrix elements:
 <S|| Hso(L-) ||S'> = (-0.000000,0.000000)
 <S|| Hso(L0) ||S'> = (0.000000,4.870310)
 <S|| Hso(L+) ||S'> = (-0.000000,-0.000000)

 Singlet part of <S|| Hso(L0) ||S'> = (0.000000,0.029242) (excluded from all matrix elements)
 L-/L+ Averaged reduced matrix elements:
 <S|| Hso(L-) ||S'> = (-0.000000,0.000000)
 <S|| Hso(L+) ||S'> = (-0.000000,-0.000000)

 SOCC = 4.870310


 Actual matrix elements:
       |Sz=-1.00>           |Sz=0.00>           |Sz=1.00>
 <Sz=-1.00|(0.000000,-3.443829)(-0.000000,-0.000000)(-0.000000,0.000000)
 <Sz=0.00|(0.000000,-0.000000)(0.000000,0.000000)(-0.000000,-0.000000)
 <Sz=1.00|(-0.000000,0.000000)(0.000000,-0.000000)(0.000000,3.443829)
_______________________________

**************************************************

**************************************************
 State A: Root 0
 State B: Root 4


 Analysing Sz ans S^2 of the pair of states...
 Ket state:  Computed S^2 = 2.024095 will be treated as 2.000000 Sz = 1.000000
 Bra state:  Computed S^2 = 2.038666 will be treated as 2.000000 Sz = 1.000000
 Clebsh-Gordan coefficient: <1.000,1.000;1.000,0.000|1.000,1.000> = 0.707

_______________________________
 One-electron SO (cm-1)
 Reduced matrix elements:
 <S|| Hso(L-) ||S'> = (1.710739,0.726644)
 <S|| Hso(L0) ||S'> = (0.000000,0.000000)
 <S|| Hso(L+) ||S'> = (1.710739,-0.726644)

 SOCC = 2.628551


 Actual matrix elements:
       |Sz=-1.00>           |Sz=0.00>           |Sz=1.00>
 <Sz=-1.00|(-0.000000,-0.000000)(1.209675,-0.513815)(0.000000,-0.000000)
 <Sz=0.00|(-1.209675,-0.513815)(-0.000000,0.000000)(1.209675,-0.513815)
 <Sz=1.00|(0.000000,0.000000)(-1.209675,-0.513815)(-0.000000,0.000000)
_______________________________
 Mean-field SO (cm-1)
 Reduced matrix elements:
 <S|| Hso(L-) ||S'> = (1.245321,0.315572)
 <S|| Hso(L0) ||S'> = (0.000000,0.000000)
 <S|| Hso(L+) ||S'> = (1.259867,-0.306904)

 Singlet part of <S|| Hso(L0) ||S'> = (0.000000,0.000000) (excluded from all matrix elements)
 L-/L+ Averaged reduced matrix elements:
 <S|| Hso(L-) ||S'> = (1.252594,0.311238)
 <S|| Hso(L+) ||S'> = (1.252594,-0.311238)

 SOCC = 1.825301


 Actual matrix elements:
       |Sz=-1.00>           |Sz=0.00>           |Sz=1.00>
 <Sz=-1.00|(-0.000000,-0.000000)(0.885718,-0.220079)(0.000000,-0.000000)
 <Sz=0.00|(-0.885718,-0.220079)(-0.000000,0.000000)(0.885718,-0.220079)
 <Sz=1.00|(0.000000,0.000000)(-0.885718,-0.220079)(-0.000000,0.000000)
_______________________________

**************************************************

**************************************************
 State A: Root 0
 State B: Root 5


 Analysing Sz ans S^2 of the pair of states...
 Ket state:  Computed S^2 = 2.024095 will be treated as 2.000000 Sz = 1.000000
 Bra state:  Computed S^2 = 2.069275 will be treated as 2.000000 Sz = 1.000000
 Clebsh-Gordan coefficient: <1.000,1.000;1.000,0.000|1.000,1.000> = 0.707

_______________________________
 One-electron SO (cm-1)
 Reduced matrix elements:
 <S|| Hso(L-) ||S'> = (1.580899,-5.749458)
 <S|| Hso(L0) ||S'> = (0.000000,-0.000000)
 <S|| Hso(L+) ||S'> = (1.580899,5.749458)

 SOCC = 8.432735


 Actual matrix elements:
       |Sz=-1.00>           |Sz=0.00>           |Sz=1.00>
 <Sz=-1.00|(-0.000000,0.000000)(1.117864,4.065481)(0.000000,0.000000)
 <Sz=0.00|(-1.117864,4.065481)(-0.000000,-0.000000)(1.117864,4.065481)
 <Sz=1.00|(0.000000,-0.000000)(-1.117864,4.065481)(-0.000000,-0.000000)
_______________________________
 Mean-field SO (cm-1)
 Reduced matrix elements:
 <S|| Hso(L-) ||S'> = (0.485201,-3.717921)
 <S|| Hso(L0) ||S'> = (0.000000,-0.000000)
 <S|| Hso(L+) ||S'> = (0.482983,3.721803)

 Singlet part of <S|| Hso(L0) ||S'> = (-0.000000,-0.000000) (excluded from all matrix elements)
 L-/L+ Averaged reduced matrix elements:
 <S|| Hso(L-) ||S'> = (0.484092,-3.719862)
 <S|| Hso(L+) ||S'> = (0.484092,3.719862)

 SOCC = 5.305038


 Actual matrix elements:
       |Sz=-1.00>           |Sz=0.00>           |Sz=1.00>
 <Sz=-1.00|(-0.000000,0.000000)(0.342305,2.630339)(0.000000,0.000000)
 <Sz=0.00|(-0.342305,2.630339)(-0.000000,-0.000000)(0.342305,2.630339)
 <Sz=1.00|(0.000000,-0.000000)(-0.342305,2.630339)(-0.000000,-0.000000)
_______________________________

**************************************************

**************************************************
 State A: Root 0
 State B: Root 6


 Analysing Sz ans S^2 of the pair of states...
 Ket state:  Computed S^2 = 2.024095 will be treated as 2.000000 Sz = 1.000000
 Bra state:  Computed S^2 = 2.061265 will be treated as 2.000000 Sz = 1.000000
 Clebsh-Gordan coefficient: <1.000,1.000;1.000,0.000|1.000,1.000> = 0.707

_______________________________
 One-electron SO (cm-1)
 Reduced matrix elements:
 <S|| Hso(L-) ||S'> = (0.284022,3.457577)
 <S|| Hso(L0) ||S'> = (0.000000,0.000000)
 <S|| Hso(L+) ||S'> = (0.284022,-3.457577)

 SOCC = 4.906222


 Actual matrix elements:
       |Sz=-1.00>           |Sz=0.00>           |Sz=1.00>
 <Sz=-1.00|(-0.000000,-0.000000)(0.200834,-2.444876)(0.000000,-0.000000)
 <Sz=0.00|(-0.200834,-2.444876)(-0.000000,0.000000)(0.200834,-2.444876)
 <Sz=1.00|(0.000000,0.000000)(-0.200834,-2.444876)(-0.000000,0.000000)
_______________________________
 Mean-field SO (cm-1)
 Reduced matrix elements:
 <S|| Hso(L-) ||S'> = (-0.658451,2.228321)
 <S|| Hso(L0) ||S'> = (0.000000,0.000000)
 <S|| Hso(L+) ||S'> = (-0.670068,-2.232719)

 Singlet part of <S|| Hso(L0) ||S'> = (0.000000,0.000000) (excluded from all matrix elements)
 L-/L+ Averaged reduced matrix elements:
 <S|| Hso(L-) ||S'> = (-0.664260,2.230520)
 <S|| Hso(L+) ||S'> = (-0.664260,-2.230520)

 SOCC = 3.291340


 Actual matrix elements:
       |Sz=-1.00>           |Sz=0.00>           |Sz=1.00>
 <Sz=-1.00|(0.000000,-0.000000)(-0.469703,-1.577216)(-0.000000,-0.000000)
 <Sz=0.00|(0.469703,-1.577216)(0.000000,0.000000)(-0.469703,-1.577216)
 <Sz=1.00|(-0.000000,0.000000)(0.469703,-1.577216)(0.000000,0.000000)
_______________________________

**************************************************

**************************************************
 State A: Root 0
 State B: Root 7


 Analysing Sz ans S^2 of the pair of states...
 Ket state:  Computed S^2 = 2.024095 will be treated as 2.000000 Sz = 1.000000
 Bra state:  Computed S^2 = 2.056244 will be treated as 2.000000 Sz = 1.000000
 Clebsh-Gordan coefficient: <1.000,1.000;1.000,0.000|1.000,1.000> = 0.707

_______________________________
 One-electron SO (cm-1)
 Reduced matrix elements:
 <S|| Hso(L-) ||S'> = (-0.000000,0.000000)
 <S|| Hso(L0) ||S'> = (0.000000,-23.556774)
 <S|| Hso(L+) ||S'> = (-0.000000,-0.000000)

 SOCC = 23.556774


 Actual matrix elements:
       |Sz=-1.00>           |Sz=0.00>           |Sz=1.00>
 <Sz=-1.00|(0.000000,16.657155)(-0.000000,-0.000000)(-0.000000,-0.000000)
 <Sz=0.00|(0.000000,-0.000000)(0.000000,-0.000000)(-0.000000,-0.000000)
 <Sz=1.00|(-0.000000,-0.000000)(0.000000,-0.000000)(0.000000,-16.657155)
_______________________________
 Mean-field SO (cm-1)
 Reduced matrix elements:
 <S|| Hso(L-) ||S'> = (-0.000000,0.000000)
 <S|| Hso(L0) ||S'> = (0.000000,-15.327780)
 <S|| Hso(L+) ||S'> = (-0.000000,-0.000000)

 Singlet part of <S|| Hso(L0) ||S'> = (-0.000000,-0.093156) (excluded from all matrix elements)
 L-/L+ Averaged reduced matrix elements:
 <S|| Hso(L-) ||S'> = (-0.000000,0.000000)
 <S|| Hso(L+) ||S'> = (-0.000000,-0.000000)

 SOCC = 15.327780


 Actual matrix elements:
       |Sz=-1.00>           |Sz=0.00>           |Sz=1.00>
 <Sz=-1.00|(0.000000,10.838377)(-0.000000,-0.000000)(-0.000000,-0.000000)
 <Sz=0.00|(0.000000,-0.000000)(0.000000,-0.000000)(-0.000000,-0.000000)
 <Sz=1.00|(-0.000000,-0.000000)(0.000000,-0.000000)(0.000000,-10.838377)
_______________________________

**************************************************

**************************************************
 State A: Root 0
 State B: Root 8


 Analysing Sz ans S^2 of the pair of states...
 Ket state:  Computed S^2 = 2.024095 will be treated as 2.000000 Sz = 1.000000
 Bra state:  Computed S^2 = 2.041652 will be treated as 2.000000 Sz = 1.000000
 Clebsh-Gordan coefficient: <1.000,1.000;1.000,0.000|1.000,1.000> = 0.707

_______________________________
 One-electron SO (cm-1)
 Reduced matrix elements:
 <S|| Hso(L-) ||S'> = (0.000000,-0.000000)
 <S|| Hso(L0) ||S'> = (0.000000,59.504596)
 <S|| Hso(L+) ||S'> = (0.000000,0.000000)

 SOCC = 59.504596


 Actual matrix elements:
       |Sz=-1.00>           |Sz=0.00>           |Sz=1.00>
 <Sz=-1.00|(-0.000000,-42.076103)(0.000000,0.000000)(0.000000,0.000000)
 <Sz=0.00|(-0.000000,0.000000)(-0.000000,0.000000)(0.000000,0.000000)
 <Sz=1.00|(0.000000,0.000000)(-0.000000,0.000000)(-0.000000,42.076103)
_______________________________
 Mean-field SO (cm-1)
 Reduced matrix elements:
 <S|| Hso(L-) ||S'> = (0.000000,-0.000000)
 <S|| Hso(L0) ||S'> = (0.000000,37.347545)
 <S|| Hso(L+) ||S'> = (0.000000,0.000000)

 Singlet part of <S|| Hso(L0) ||S'> = (0.000000,0.290212) (excluded from all matrix elements)
 L-/L+ Averaged reduced matrix elements:
 <S|| Hso(L-) ||S'> = (0.000000,-0.000000)
 <S|| Hso(L+) ||S'> = (0.000000,0.000000)

 SOCC = 37.347545


 Actual matrix elements:
       |Sz=-1.00>           |Sz=0.00>           |Sz=1.00>
 <Sz=-1.00|(-0.000000,-26.408702)(0.000000,0.000000)(0.000000,0.000000)
 <Sz=0.00|(-0.000000,0.000000)(-0.000000,0.000000)(0.000000,0.000000)
 <Sz=1.00|(0.000000,0.000000)(-0.000000,0.000000)(-0.000000,26.408702)
_______________________________

**************************************************

**************************************************
 State A: Root 0
 State B: Root 9


 Analysing Sz ans S^2 of the pair of states...
 Ket state:  Computed S^2 = 2.024095 will be treated as 2.000000 Sz = 1.000000
 Bra state:  Computed S^2 = 2.036977 will be treated as 2.000000 Sz = 1.000000
 Clebsh-Gordan coefficient: <1.000,1.000;1.000,0.000|1.000,1.000> = 0.707

_______________________________
 One-electron SO (cm-1)
 Reduced matrix elements:
 <S|| Hso(L-) ||S'> = (-45.125474,11.714895)
 <S|| Hso(L0) ||S'> = (0.000000,-0.000000)
 <S|| Hso(L+) ||S'> = (-45.125474,-11.714895)

 SOCC = 65.932498


 Actual matrix elements:
       |Sz=-1.00>           |Sz=0.00>           |Sz=1.00>
 <Sz=-1.00|(0.000000,0.000000)(-31.908529,-8.283682)(-0.000000,-0.000000)
 <Sz=0.00|(31.908529,-8.283682)(0.000000,0.000000)(-31.908529,-8.283682)
 <Sz=1.00|(-0.000000,0.000000)(31.908529,-8.283682)(0.000000,-0.000000)
_______________________________
 Mean-field SO (cm-1)
 Reduced matrix elements:
 <S|| Hso(L-) ||S'> = (-27.979945,7.416740)
 <S|| Hso(L0) ||S'> = (0.000000,-0.000000)
 <S|| Hso(L+) ||S'> = (-28.252395,-7.525839)

 Singlet part of <S|| Hso(L0) ||S'> = (-0.000000,-0.000000) (excluded from all matrix elements)
 L-/L+ Averaged reduced matrix elements:
 <S|| Hso(L-) ||S'> = (-28.116170,7.471290)
 <S|| Hso(L+) ||S'> = (-28.116170,-7.471290)

 SOCC = 41.142173


 Actual matrix elements:
       |Sz=-1.00>           |Sz=0.00>           |Sz=1.00>
 <Sz=-1.00|(0.000000,0.000000)(-19.881135,-5.283000)(-0.000000,-0.000000)
 <Sz=0.00|(19.881135,-5.283000)(0.000000,0.000000)(-19.881135,-5.283000)
 <Sz=1.00|(-0.000000,0.000000)(19.881135,-5.283000)(0.000000,-0.000000)
_______________________________

**************************************************

**************************************************
 State A: Root 0
 State B: Root 10


 Analysing Sz ans S^2 of the pair of states...
 Ket state:  Computed S^2 = 2.024095 will be treated as 2.000000 Sz = 1.000000
 Bra state:  Computed S^2 = 2.042646 will be treated as 2.000000 Sz = 1.000000
 Clebsh-Gordan coefficient: <1.000,1.000;1.000,0.000|1.000,1.000> = 0.707

_______________________________
 One-electron SO (cm-1)
 Reduced matrix elements:
 <S|| Hso(L-) ||S'> = (-0.000000,0.000000)
 <S|| Hso(L0) ||S'> = (0.000000,12.686544)
 <S|| Hso(L+) ||S'> = (-0.000000,-0.000000)

 SOCC = 12.686544


 Actual matrix elements:
       |Sz=-1.00>           |Sz=0.00>           |Sz=1.00>
 <Sz=-1.00|(0.000000,-8.970742)(-0.000000,-0.000000)(-0.000000,0.000000)
 <Sz=0.00|(0.000000,-0.000000)(0.000000,0.000000)(-0.000000,-0.000000)
 <Sz=1.00|(-0.000000,0.000000)(0.000000,-0.000000)(0.000000,8.970742)
_______________________________
 Mean-field SO (cm-1)
 Reduced matrix elements:
 <S|| Hso(L-) ||S'> = (-0.000000,0.000000)
 <S|| Hso(L0) ||S'> = (0.000000,7.777422)
 <S|| Hso(L+) ||S'> = (-0.000000,-0.000000)

 Singlet part of <S|| Hso(L0) ||S'> = (0.000000,0.049932) (excluded from all matrix elements)
 L-/L+ Averaged reduced matrix elements:
 <S|| Hso(L-) ||S'> = (-0.000000,0.000000)
 <S|| Hso(L+) ||S'> = (-0.000000,-0.000000)

 SOCC = 7.777422


 Actual matrix elements:
       |Sz=-1.00>           |Sz=0.00>           |Sz=1.00>
 <Sz=-1.00|(0.000000,-5.499468)(-0.000000,-0.000000)(-0.000000,0.000000)
 <Sz=0.00|(0.000000,-0.000000)(0.000000,0.000000)(-0.000000,-0.000000)
 <Sz=1.00|(-0.000000,0.000000)(0.000000,-0.000000)(0.000000,5.499468)
_______________________________

**************************************************

**************************************************
 State A: Root 0
 State B: Root 11


 Analysing Sz ans S^2 of the pair of states...
 Ket state:  Computed S^2 = 2.024095 will be treated as 2.000000 Sz = 1.000000
 Bra state:  Computed S^2 = 2.324651 will be treated as 2.000000 Sz = 1.000000
 Clebsh-Gordan coefficient: <1.000,1.000;1.000,0.000|1.000,1.000> = 0.707

_______________________________
 One-electron SO (cm-1)
 Reduced matrix elements:
 <S|| Hso(L-) ||S'> = (-0.000000,0.000000)
 <S|| Hso(L0) ||S'> = (0.000000,-2.528608)
 <S|| Hso(L+) ||S'> = (-0.000000,-0.000000)

 SOCC = 2.528608


 Actual matrix elements:
       |Sz=-1.00>           |Sz=0.00>           |Sz=1.00>
 <Sz=-1.00|(0.000000,1.787996)(-0.000000,-0.000000)(-0.000000,-0.000000)
 <Sz=0.00|(0.000000,-0.000000)(0.000000,-0.000000)(-0.000000,-0.000000)
 <Sz=1.00|(-0.000000,-0.000000)(0.000000,-0.000000)(0.000000,-1.787996)
_______________________________
 Mean-field SO (cm-1)
 Reduced matrix elements:
 <S|| Hso(L-) ||S'> = (-0.000000,0.000000)
 <S|| Hso(L0) ||S'> = (0.000000,-1.579870)
 <S|| Hso(L+) ||S'> = (-0.000000,-0.000000)

 Singlet part of <S|| Hso(L0) ||S'> = (-0.000000,-0.016763) (excluded from all matrix elements)
 L-/L+ Averaged reduced matrix elements:
 <S|| Hso(L-) ||S'> = (-0.000000,0.000000)
 <S|| Hso(L+) ||S'> = (-0.000000,-0.000000)

 SOCC = 1.579870


 Actual matrix elements:
       |Sz=-1.00>           |Sz=0.00>           |Sz=1.00>
 <Sz=-1.00|(0.000000,1.117137)(-0.000000,-0.000000)(-0.000000,-0.000000)
 <Sz=0.00|(0.000000,-0.000000)(0.000000,-0.000000)(-0.000000,-0.000000)
 <Sz=1.00|(-0.000000,-0.000000)(0.000000,-0.000000)(0.000000,-1.117137)
_______________________________

**************************************************

**************************************************
 State A: Root 0
 State B: Root 12


 Analysing Sz ans S^2 of the pair of states...
 Ket state:  Computed S^2 = 2.024095 will be treated as 2.000000 Sz = 1.000000
 Bra state:  Computed S^2 = 2.045729 will be treated as 2.000000 Sz = 1.000000
 Clebsh-Gordan coefficient: <1.000,1.000;1.000,0.000|1.000,1.000> = 0.707

_______________________________
 One-electron SO (cm-1)
 Reduced matrix elements:
 <S|| Hso(L-) ||S'> = (0.000000,-0.000000)
 <S|| Hso(L0) ||S'> = (0.000000,-6.870877)
 <S|| Hso(L+) ||S'> = (0.000000,0.000000)

 SOCC = 6.870877


 Actual matrix elements:
       |Sz=-1.00>           |Sz=0.00>           |Sz=1.00>
 <Sz=-1.00|(-0.000000,4.858444)(0.000000,0.000000)(0.000000,-0.000000)
 <Sz=0.00|(-0.000000,0.000000)(-0.000000,-0.000000)(0.000000,0.000000)
 <Sz=1.00|(0.000000,-0.000000)(-0.000000,0.000000)(-0.000000,-4.858444)
_______________________________
 Mean-field SO (cm-1)
 Reduced matrix elements:
 <S|| Hso(L-) ||S'> = (0.000000,-0.000000)
 <S|| Hso(L0) ||S'> = (0.000000,-4.163419)
 <S|| Hso(L+) ||S'> = (0.000000,0.000000)

 Singlet part of <S|| Hso(L0) ||S'> = (-0.000000,-0.028609) (excluded from all matrix elements)
 L-/L+ Averaged reduced matrix elements:
 <S|| Hso(L-) ||S'> = (0.000000,-0.000000)
 <S|| Hso(L+) ||S'> = (0.000000,0.000000)

 SOCC = 4.163419


 Actual matrix elements:
       |Sz=-1.00>           |Sz=0.00>           |Sz=1.00>
 <Sz=-1.00|(-0.000000,2.943982)(0.000000,0.000000)(0.000000,-0.000000)
 <Sz=0.00|(-0.000000,0.000000)(-0.000000,-0.000000)(0.000000,0.000000)
 <Sz=1.00|(0.000000,-0.000000)(-0.000000,0.000000)(-0.000000,-2.943982)
_______________________________

**************************************************

**************************************************
 State A: Root 0
 State B: Root 13


 Analysing Sz ans S^2 of the pair of states...
 Ket state:  Computed S^2 = 2.024095 will be treated as 2.000000 Sz = 1.000000
 Bra state:  Computed S^2 = 2.255721 will be treated as 2.000000 Sz = 1.000000
 Clebsh-Gordan coefficient: <1.000,1.000;1.000,0.000|1.000,1.000> = 0.707

_______________________________
 One-electron SO (cm-1)
 Reduced matrix elements:
 <S|| Hso(L-) ||S'> = (7.154448,-2.559357)
 <S|| Hso(L0) ||S'> = (0.000000,0.000000)
 <S|| Hso(L+) ||S'> = (7.154448,2.559357)

 SOCC = 10.745830


 Actual matrix elements:
       |Sz=-1.00>           |Sz=0.00>           |Sz=1.00>
 <Sz=-1.00|(-0.000000,-0.000000)(5.058959,1.809739)(0.000000,0.000000)
 <Sz=0.00|(-5.058959,1.809739)(-0.000000,-0.000000)(5.058959,1.809739)
 <Sz=1.00|(0.000000,-0.000000)(-5.058959,1.809739)(-0.000000,0.000000)
_______________________________
 Mean-field SO (cm-1)
 Reduced matrix elements:
 <S|| Hso(L-) ||S'> = (4.605991,-1.532373)
 <S|| Hso(L0) ||S'> = (0.000000,0.000000)
 <S|| Hso(L+) ||S'> = (4.660704,1.560099)

 Singlet part of <S|| Hso(L0) ||S'> = (0.000000,0.000000) (excluded from all matrix elements)
 L-/L+ Averaged reduced matrix elements:
 <S|| Hso(L-) ||S'> = (4.633348,-1.546236)
 <S|| Hso(L+) ||S'> = (4.633348,1.546236)

 SOCC = 6.907786


 Actual matrix elements:
       |Sz=-1.00>           |Sz=0.00>           |Sz=1.00>
 <Sz=-1.00|(-0.000000,-0.000000)(3.276271,1.093354)(0.000000,0.000000)
 <Sz=0.00|(-3.276271,1.093354)(-0.000000,-0.000000)(3.276271,1.093354)
 <Sz=1.00|(0.000000,-0.000000)(-3.276271,1.093354)(-0.000000,0.000000)
_______________________________

**************************************************

**************************************************
 State A: Root 0
 State B: Root 14


 Analysing Sz ans S^2 of the pair of states...
 Ket state:  Computed S^2 = 2.024095 will be treated as 2.000000 Sz = 1.000000
 Bra state:  Computed S^2 = 2.255503 will be treated as 2.000000 Sz = 1.000000
 Clebsh-Gordan coefficient: <1.000,1.000;1.000,0.000|1.000,1.000> = 0.707

_______________________________
 One-electron SO (cm-1)
 Reduced matrix elements:
 <S|| Hso(L-) ||S'> = (0.000000,-0.000000)
 <S|| Hso(L0) ||S'> = (0.000000,5.221520)
 <S|| Hso(L+) ||S'> = (0.000000,0.000000)

 SOCC = 5.221520


 Actual matrix elements:
       |Sz=-1.00>           |Sz=0.00>           |Sz=1.00>
 <Sz=-1.00|(-0.000000,-3.692172)(0.000000,0.000000)(0.000000,0.000000)
 <Sz=0.00|(-0.000000,0.000000)(-0.000000,0.000000)(0.000000,0.000000)
 <Sz=1.00|(0.000000,0.000000)(-0.000000,0.000000)(-0.000000,3.692172)
_______________________________
 Mean-field SO (cm-1)
 Reduced matrix elements:
 <S|| Hso(L-) ||S'> = (0.000000,-0.000000)
 <S|| Hso(L0) ||S'> = (0.000000,3.548912)
 <S|| Hso(L+) ||S'> = (0.000000,0.000000)

 Singlet part of <S|| Hso(L0) ||S'> = (0.000000,0.036300) (excluded from all matrix elements)
 L-/L+ Averaged reduced matrix elements:
 <S|| Hso(L-) ||S'> = (0.000000,-0.000000)
 <S|| Hso(L+) ||S'> = (0.000000,0.000000)

 SOCC = 3.548912


 Actual matrix elements:
       |Sz=-1.00>           |Sz=0.00>           |Sz=1.00>
 <Sz=-1.00|(-0.000000,-2.509460)(0.000000,0.000000)(0.000000,0.000000)
 <Sz=0.00|(-0.000000,0.000000)(-0.000000,0.000000)(0.000000,0.000000)
 <Sz=1.00|(0.000000,0.000000)(-0.000000,0.000000)(-0.000000,2.509460)
_______________________________

**************************************************

**************************************************
 State A: Root 0
 State B: Root 15


 Analysing Sz ans S^2 of the pair of states...
 Ket state:  Computed S^2 = 2.024095 will be treated as 2.000000 Sz = 1.000000
 Bra state:  Computed S^2 = 2.214023 will be treated as 2.000000 Sz = 1.000000
 Clebsh-Gordan coefficient: <1.000,1.000;1.000,0.000|1.000,1.000> = 0.707

_______________________________
 One-electron SO (cm-1)
 Reduced matrix elements:
 <S|| Hso(L-) ||S'> = (13.074252,-4.988467)
 <S|| Hso(L0) ||S'> = (0.000000,0.000000)
 <S|| Hso(L+) ||S'> = (13.074252,4.988467)

 SOCC = 19.789941


 Actual matrix elements:
       |Sz=-1.00>           |Sz=0.00>           |Sz=1.00>
 <Sz=-1.00|(-0.000000,-0.000000)(9.244893,3.527379)(0.000000,0.000000)
 <Sz=0.00|(-9.244893,3.527379)(-0.000000,-0.000000)(9.244893,3.527379)
 <Sz=1.00|(0.000000,-0.000000)(-9.244893,3.527379)(-0.000000,0.000000)
_______________________________
 Mean-field SO (cm-1)
 Reduced matrix elements:
 <S|| Hso(L-) ||S'> = (7.849797,-3.147132)
 <S|| Hso(L0) ||S'> = (0.000000,0.000000)
 <S|| Hso(L+) ||S'> = (7.946272,3.188008)

 Singlet part of <S|| Hso(L0) ||S'> = (-0.000000,-0.000000) (excluded from all matrix elements)
 L-/L+ Averaged reduced matrix elements:
 <S|| Hso(L-) ||S'> = (7.898035,-3.167570)
 <S|| Hso(L+) ||S'> = (7.898035,3.167570)

 SOCC = 12.034322


 Actual matrix elements:
       |Sz=-1.00>           |Sz=0.00>           |Sz=1.00>
 <Sz=-1.00|(-0.000000,-0.000000)(5.584754,2.239810)(0.000000,0.000000)
 <Sz=0.00|(-5.584754,2.239810)(-0.000000,-0.000000)(5.584754,2.239810)
 <Sz=1.00|(0.000000,-0.000000)(-5.584754,2.239810)(-0.000000,0.000000)
_______________________________

**************************************************

**************************************************
 State A: Root 0
 State B: Root 16


 Analysing Sz ans S^2 of the pair of states...
 Ket state:  Computed S^2 = 2.024095 will be treated as 2.000000 Sz = 1.000000
 Bra state:  Computed S^2 = 2.138915 will be treated as 2.000000 Sz = 1.000000
 Clebsh-Gordan coefficient: <1.000,1.000;1.000,0.000|1.000,1.000> = 0.707

_______________________________
 One-electron SO (cm-1)
 Reduced matrix elements:
 <S|| Hso(L-) ||S'> = (-23.925440,9.678284)
 <S|| Hso(L0) ||S'> = (0.000000,-0.000000)
 <S|| Hso(L+) ||S'> = (-23.925440,-9.678284)

 SOCC = 36.499202


 Actual matrix elements:
       |Sz=-1.00>           |Sz=0.00>           |Sz=1.00>
 <Sz=-1.00|(0.000000,0.000000)(-16.917841,-6.843580)(-0.000000,-0.000000)
 <Sz=0.00|(16.917841,-6.843580)(0.000000,0.000000)(-16.917841,-6.843580)
 <Sz=1.00|(-0.000000,0.000000)(16.917841,-6.843580)(0.000000,-0.000000)
_______________________________
 Mean-field SO (cm-1)
 Reduced matrix elements:
 <S|| Hso(L-) ||S'> = (-15.170568,5.890033)
 <S|| Hso(L0) ||S'> = (0.000000,-0.000000)
 <S|| Hso(L+) ||S'> = (-15.335437,-5.955372)

 Singlet part of <S|| Hso(L0) ||S'> = (-0.000000,-0.000000) (excluded from all matrix elements)
 L-/L+ Averaged reduced matrix elements:
 <S|| Hso(L-) ||S'> = (-15.253003,5.922703)
 <S|| Hso(L+) ||S'> = (-15.253003,-5.922703)

 SOCC = 23.140117


 Actual matrix elements:
       |Sz=-1.00>           |Sz=0.00>           |Sz=1.00>
 <Sz=-1.00|(0.000000,0.000000)(-10.785502,-4.187983)(-0.000000,-0.000000)
 <Sz=0.00|(10.785502,-4.187983)(0.000000,0.000000)(-10.785502,-4.187983)
 <Sz=1.00|(-0.000000,0.000000)(10.785502,-4.187983)(0.000000,-0.000000)
_______________________________

**************************************************

**************************************************
 State A: Root 0
 State B: Root 17


 Analysing Sz ans S^2 of the pair of states...
 Ket state:  Computed S^2 = 2.024095 will be treated as 2.000000 Sz = 1.000000
 Bra state:  Computed S^2 = 2.261812 will be treated as 2.000000 Sz = 1.000000
 Clebsh-Gordan coefficient: <1.000,1.000;1.000,0.000|1.000,1.000> = 0.707

_______________________________
 One-electron SO (cm-1)
 Reduced matrix elements:
 <S|| Hso(L-) ||S'> = (-2.160091,-0.047518)
 <S|| Hso(L0) ||S'> = (0.000000,-0.000000)
 <S|| Hso(L+) ||S'> = (-2.160091,0.047518)

 SOCC = 3.055569


 Actual matrix elements:
       |Sz=-1.00>           |Sz=0.00>           |Sz=1.00>
 <Sz=-1.00|(0.000000,0.000000)(-1.527415,0.033600)(-0.000000,0.000000)
 <Sz=0.00|(1.527415,0.033600)(0.000000,-0.000000)(-1.527415,0.033600)
 <Sz=1.00|(-0.000000,-0.000000)(1.527415,0.033600)(0.000000,-0.000000)
_______________________________
 Mean-field SO (cm-1)
 Reduced matrix elements:
 <S|| Hso(L-) ||S'> = (-1.324438,0.126216)
 <S|| Hso(L0) ||S'> = (0.000000,-0.000000)
 <S|| Hso(L+) ||S'> = (-1.347807,-0.129266)

 Singlet part of <S|| Hso(L0) ||S'> = (-0.000000,-0.000000) (excluded from all matrix elements)
 L-/L+ Averaged reduced matrix elements:
 <S|| Hso(L-) ||S'> = (-1.336122,0.127741)
 <S|| Hso(L+) ||S'> = (-1.336122,-0.127741)

 SOCC = 1.898179


 Actual matrix elements:
       |Sz=-1.00>           |Sz=0.00>           |Sz=1.00>
 <Sz=-1.00|(0.000000,0.000000)(-0.944781,-0.090326)(-0.000000,-0.000000)
 <Sz=0.00|(0.944781,-0.090326)(0.000000,0.000000)(-0.944781,-0.090326)
 <Sz=1.00|(-0.000000,0.000000)(0.944781,-0.090326)(0.000000,-0.000000)
_______________________________

**************************************************

**************************************************
 State A: Root 0
 State B: Root 18


 Analysing Sz ans S^2 of the pair of states...
 Ket state:  Computed S^2 = 2.024095 will be treated as 2.000000 Sz = 1.000000
WARNING! The deviation of S^2 from the correct value is large, indicating a significant spin contamination. The results may be unreliable
 Bra state:  Computed S^2 = 3.672478 will be treated as 2.000000 Sz = 1.000000
 Clebsh-Gordan coefficient: <1.000,1.000;1.000,0.000|1.000,1.000> = 0.707

_______________________________
 One-electron SO (cm-1)
 Reduced matrix elements:
 <S|| Hso(L-) ||S'> = (-0.000000,0.000000)
 <S|| Hso(L0) ||S'> = (0.000000,7.078554)
 <S|| Hso(L+) ||S'> = (-0.000000,-0.000000)

 SOCC = 7.078554


 Actual matrix elements:
       |Sz=-1.00>           |Sz=0.00>           |Sz=1.00>
 <Sz=-1.00|(0.000000,-5.005294)(-0.000000,-0.000000)(-0.000000,0.000000)
 <Sz=0.00|(0.000000,-0.000000)(0.000000,0.000000)(-0.000000,-0.000000)
 <Sz=1.00|(-0.000000,0.000000)(0.000000,-0.000000)(0.000000,5.005294)
_______________________________
 Mean-field SO (cm-1)
 Reduced matrix elements:
 <S|| Hso(L-) ||S'> = (-0.000000,0.000000)
 <S|| Hso(L0) ||S'> = (0.000000,4.319175)
 <S|| Hso(L+) ||S'> = (-0.000000,-0.000000)

 Singlet part of <S|| Hso(L0) ||S'> = (0.000000,0.019190) (excluded from all matrix elements)
 L-/L+ Averaged reduced matrix elements:
 <S|| Hso(L-) ||S'> = (-0.000000,0.000000)
 <S|| Hso(L+) ||S'> = (-0.000000,-0.000000)

 SOCC = 4.319175


 Actual matrix elements:
       |Sz=-1.00>           |Sz=0.00>           |Sz=1.00>
 <Sz=-1.00|(0.000000,-3.054118)(-0.000000,-0.000000)(-0.000000,0.000000)
 <Sz=0.00|(0.000000,-0.000000)(0.000000,0.000000)(-0.000000,-0.000000)
 <Sz=1.00|(-0.000000,0.000000)(0.000000,-0.000000)(0.000000,3.054118)
_______________________________

**************************************************

**************************************************
 State A: Root 0
 State B: Root 19


 Analysing Sz ans S^2 of the pair of states...
 Ket state:  Computed S^2 = 2.024095 will be treated as 2.000000 Sz = 1.000000
 Bra state:  Computed S^2 = 2.239051 will be treated as 2.000000 Sz = 1.000000
 Clebsh-Gordan coefficient: <1.000,1.000;1.000,0.000|1.000,1.000> = 0.707

_______________________________
 One-electron SO (cm-1)
 Reduced matrix elements:
 <S|| Hso(L-) ||S'> = (-0.000000,0.000000)
 <S|| Hso(L0) ||S'> = (0.000000,17.398899)
 <S|| Hso(L+) ||S'> = (-0.000000,-0.000000)

 SOCC = 17.398899


 Actual matrix elements:
       |Sz=-1.00>           |Sz=0.00>           |Sz=1.00>
 <Sz=-1.00|(0.000000,-12.302880)(-0.000000,-0.000000)(-0.000000,0.000000)
 <Sz=0.00|(0.000000,-0.000000)(0.000000,0.000000)(-0.000000,-0.000000)
 <Sz=1.00|(-0.000000,0.000000)(0.000000,-0.000000)(0.000000,12.302880)
_______________________________
 Mean-field SO (cm-1)
 Reduced matrix elements:
 <S|| Hso(L-) ||S'> = (0.000000,0.000000)
 <S|| Hso(L0) ||S'> = (0.000000,10.546890)
 <S|| Hso(L+) ||S'> = (0.000000,-0.000000)

 Singlet part of <S|| Hso(L0) ||S'> = (0.000000,0.077616) (excluded from all matrix elements)
 L-/L+ Averaged reduced matrix elements:
 <S|| Hso(L-) ||S'> = (0.000000,0.000000)
 <S|| Hso(L+) ||S'> = (0.000000,-0.000000)

 SOCC = 10.546890


 Actual matrix elements:
       |Sz=-1.00>           |Sz=0.00>           |Sz=1.00>
 <Sz=-1.00|(-0.000000,-7.457777)(0.000000,-0.000000)(0.000000,0.000000)
 <Sz=0.00|(-0.000000,-0.000000)(-0.000000,0.000000)(0.000000,-0.000000)
 <Sz=1.00|(0.000000,0.000000)(-0.000000,-0.000000)(-0.000000,7.457777)
_______________________________

**************************************************

**************************************************
 State A: Root 0
 State B: Root 20


 Analysing Sz ans S^2 of the pair of states...
 Ket state:  Computed S^2 = 2.024095 will be treated as 2.000000 Sz = 1.000000
WARNING! The deviation of S^2 from the correct value is large, indicating a significant spin contamination. The results may be unreliable
 Bra state:  Computed S^2 = 3.601938 will be treated as 2.000000 Sz = 1.000000
 Clebsh-Gordan coefficient: <1.000,1.000;1.000,0.000|1.000,1.000> = 0.707

_______________________________
 One-electron SO (cm-1)
 Reduced matrix elements:
 <S|| Hso(L-) ||S'> = (5.915112,-1.098936)
 <S|| Hso(L0) ||S'> = (0.000000,-0.000000)
 <S|| Hso(L+) ||S'> = (5.915112,1.098936)

 SOCC = 8.508374


 Actual matrix elements:
       |Sz=-1.00>           |Sz=0.00>           |Sz=1.00>
 <Sz=-1.00|(-0.000000,0.000000)(4.182616,0.777065)(0.000000,0.000000)
 <Sz=0.00|(-4.182616,0.777065)(-0.000000,-0.000000)(4.182616,0.777065)
 <Sz=1.00|(0.000000,-0.000000)(-4.182616,0.777065)(-0.000000,-0.000000)
_______________________________
 Mean-field SO (cm-1)
 Reduced matrix elements:
 <S|| Hso(L-) ||S'> = (3.753549,-0.572831)
 <S|| Hso(L0) ||S'> = (0.000000,-0.000000)
 <S|| Hso(L+) ||S'> = (3.786445,0.578890)

 Singlet part of <S|| Hso(L0) ||S'> = (-0.000000,-0.000000) (excluded from all matrix elements)
 L-/L+ Averaged reduced matrix elements:
 <S|| Hso(L-) ||S'> = (3.769997,-0.575860)
 <S|| Hso(L+) ||S'> = (3.769997,0.575860)

 SOCC = 5.393420


 Actual matrix elements:
       |Sz=-1.00>           |Sz=0.00>           |Sz=1.00>
 <Sz=-1.00|(-0.000000,0.000000)(2.665790,0.407195)(0.000000,0.000000)
 <Sz=0.00|(-2.665790,0.407195)(-0.000000,-0.000000)(2.665790,0.407195)
 <Sz=1.00|(0.000000,-0.000000)(-2.665790,0.407195)(-0.000000,-0.000000)
_______________________________

**************************************************

**************************************************
 State A: Root 0
 State B: Root 21


 Analysing Sz ans S^2 of the pair of states...
 Ket state:  Computed S^2 = 2.024095 will be treated as 2.000000 Sz = 1.000000
 Bra state:  Computed S^2 = 2.037306 will be treated as 2.000000 Sz = 1.000000
 Clebsh-Gordan coefficient: <1.000,1.000;1.000,0.000|1.000,1.000> = 0.707

_______________________________
 One-electron SO (cm-1)
 Reduced matrix elements:
 <S|| Hso(L-) ||S'> = (2.660010,0.167472)
 <S|| Hso(L0) ||S'> = (0.000000,-0.000000)
 <S|| Hso(L+) ||S'> = (2.660010,-0.167472)

 SOCC = 3.769270


 Actual matrix elements:
       |Sz=-1.00>           |Sz=0.00>           |Sz=1.00>
 <Sz=-1.00|(-0.000000,0.000000)(1.880911,-0.118420)(0.000000,-0.000000)
 <Sz=0.00|(-1.880911,-0.118420)(-0.000000,0.000000)(1.880911,-0.118420)
 <Sz=1.00|(0.000000,0.000000)(-1.880911,-0.118420)(-0.000000,-0.000000)
_______________________________
 Mean-field SO (cm-1)
 Reduced matrix elements:
 <S|| Hso(L-) ||S'> = (1.563588,0.298068)
 <S|| Hso(L0) ||S'> = (0.000000,-0.000000)
 <S|| Hso(L+) ||S'> = (1.564869,-0.300143)

 Singlet part of <S|| Hso(L0) ||S'> = (-0.000000,-0.000000) (excluded from all matrix elements)
 L-/L+ Averaged reduced matrix elements:
 <S|| Hso(L-) ||S'> = (1.564228,0.299106)
 <S|| Hso(L+) ||S'> = (1.564228,-0.299106)

 SOCC = 2.252232


 Actual matrix elements:
       |Sz=-1.00>           |Sz=0.00>           |Sz=1.00>
 <Sz=-1.00|(-0.000000,0.000000)(1.106077,-0.211500)(0.000000,-0.000000)
 <Sz=0.00|(-1.106077,-0.211500)(-0.000000,0.000000)(1.106077,-0.211500)
 <Sz=1.00|(0.000000,0.000000)(-1.106077,-0.211500)(-0.000000,-0.000000)
_______________________________

**************************************************

**************************************************
 State A: Root 0
 State B: Root 22


 Analysing Sz ans S^2 of the pair of states...
 Ket state:  Computed S^2 = 2.024095 will be treated as 2.000000 Sz = 1.000000
 Bra state:  Computed S^2 = 2.167219 will be treated as 2.000000 Sz = 1.000000
 Clebsh-Gordan coefficient: <1.000,1.000;1.000,0.000|1.000,1.000> = 0.707

_______________________________
 One-electron SO (cm-1)
 Reduced matrix elements:
 <S|| Hso(L-) ||S'> = (0.000000,-0.000000)
 <S|| Hso(L0) ||S'> = (0.000000,-27.850392)
 <S|| Hso(L+) ||S'> = (0.000000,0.000000)

 SOCC = 27.850392


 Actual matrix elements:
       |Sz=-1.00>           |Sz=0.00>           |Sz=1.00>
 <Sz=-1.00|(-0.000000,19.693201)(0.000000,0.000000)(0.000000,-0.000000)
 <Sz=0.00|(-0.000000,0.000000)(-0.000000,-0.000000)(0.000000,0.000000)
 <Sz=1.00|(0.000000,-0.000000)(-0.000000,0.000000)(-0.000000,-19.693201)
_______________________________
 Mean-field SO (cm-1)
 Reduced matrix elements:
 <S|| Hso(L-) ||S'> = (0.000000,-0.000000)
 <S|| Hso(L0) ||S'> = (0.000000,-17.388234)
 <S|| Hso(L+) ||S'> = (0.000000,0.000000)

 Singlet part of <S|| Hso(L0) ||S'> = (-0.000000,-0.101716) (excluded from all matrix elements)
 L-/L+ Averaged reduced matrix elements:
 <S|| Hso(L-) ||S'> = (0.000000,-0.000000)
 <S|| Hso(L+) ||S'> = (0.000000,0.000000)

 SOCC = 17.388234


 Actual matrix elements:
       |Sz=-1.00>           |Sz=0.00>           |Sz=1.00>
 <Sz=-1.00|(-0.000000,12.295338)(0.000000,0.000000)(0.000000,-0.000000)
 <Sz=0.00|(-0.000000,0.000000)(-0.000000,-0.000000)(0.000000,0.000000)
 <Sz=1.00|(0.000000,-0.000000)(-0.000000,0.000000)(-0.000000,-12.295338)
_______________________________

**************************************************

**************************************************
 State A: Root 0
 State B: Root 23


 Analysing Sz ans S^2 of the pair of states...
 Ket state:  Computed S^2 = 2.024095 will be treated as 2.000000 Sz = 1.000000
 Bra state:  Computed S^2 = 2.046279 will be treated as 2.000000 Sz = 1.000000
 Clebsh-Gordan coefficient: <1.000,1.000;1.000,0.000|1.000,1.000> = 0.707

_______________________________
 One-electron SO (cm-1)
 Reduced matrix elements:
 <S|| Hso(L-) ||S'> = (48.009210,-17.134347)
 <S|| Hso(L0) ||S'> = (0.000000,0.000000)
 <S|| Hso(L+) ||S'> = (48.009210,17.134347)

 SOCC = 72.089806


 Actual matrix elements:
       |Sz=-1.00>           |Sz=0.00>           |Sz=1.00>
 <Sz=-1.00|(-0.000000,-0.000000)(33.947638,12.115813)(0.000000,0.000000)
 <Sz=0.00|(-33.947638,12.115813)(-0.000000,-0.000000)(33.947638,12.115813)
 <Sz=1.00|(0.000000,-0.000000)(-33.947638,12.115813)(-0.000000,0.000000)
_______________________________
 Mean-field SO (cm-1)
 Reduced matrix elements:
 <S|| Hso(L-) ||S'> = (30.418674,-10.633263)
 <S|| Hso(L0) ||S'> = (0.000000,0.000000)
 <S|| Hso(L+) ||S'> = (30.753294,10.776904)

 Singlet part of <S|| Hso(L0) ||S'> = (0.000000,0.000000) (excluded from all matrix elements)
 L-/L+ Averaged reduced matrix elements:
 <S|| Hso(L-) ||S'> = (30.585984,-10.705083)
 <S|| Hso(L+) ||S'> = (30.585984,10.705083)

 SOCC = 45.827966


 Actual matrix elements:
       |Sz=-1.00>           |Sz=0.00>           |Sz=1.00>
 <Sz=-1.00|(-0.000000,-0.000000)(21.627557,7.569637)(0.000000,0.000000)
 <Sz=0.00|(-21.627557,7.569637)(-0.000000,-0.000000)(21.627557,7.569637)
 <Sz=1.00|(0.000000,-0.000000)(-21.627557,7.569637)(-0.000000,0.000000)
_______________________________

**************************************************

**************************************************
 State A: Root 0
 State B: Root 24


 Analysing Sz ans S^2 of the pair of states...
 Ket state:  Computed S^2 = 2.024095 will be treated as 2.000000 Sz = 1.000000
 Bra state:  Computed S^2 = 2.143008 will be treated as 2.000000 Sz = 1.000000
 Clebsh-Gordan coefficient: <1.000,1.000;1.000,0.000|1.000,1.000> = 0.707

[...]
 34 A    33 B    35 A    34 B    36 A    37 A    35 B    38 A                  
  0.209   0.215   0.219   0.232   0.232   0.233   0.238   0.242
 36 B    39 A    37 B    38 B    40 A    41 A    39 B    42 A                  
  0.251   0.257   0.268   0.270   0.285   0.288   0.308   0.310
 40 B    43 A    41 B    44 A    42 B    45 A    43 B    46 A                  
  0.312   0.321   0.322   0.330   0.338   0.343   0.348   0.362
 47 A    44 B    48 A    45 B    46 B    49 A    47 B    50 A                  
  0.370   0.376   0.379   0.384   0.395   0.397   0.407   0.410
 48 B    51 A    49 B    52 A    50 B    53 A    54 A    51 B                  
  0.413   0.415   0.417   0.422   0.428   0.450   0.453   0.455
 52 B    55 A    53 B    56 A    57 A    54 B    58 A    55 B                  
  0.470   0.471   0.478   0.478   0.485   0.492   0.496   0.503
 59 A    56 B    57 B    60 A    58 B    61 A    62 A    59 B                  
  0.507   0.521   0.528   0.549   0.572   0.582   0.593   0.607
 63 A    60 B    64 A    61 B    65 A    62 B    63 B    66 A                  
  0.630   0.632   0.648   0.654   0.657   0.667   0.672   0.680
 64 B    67 A    65 B    68 A    66 B    69 A    67 B    70 A                  
  0.689   0.689   0.693   0.706   0.709   0.724   0.745   0.750
 71 A    68 B    69 B    72 A    70 B    73 A    71 B    74 A                  
  0.754   0.759   0.778   0.780   0.784   0.796   0.810   0.825
 75 A    72 B    76 A    73 B    74 B    77 A    75 B    76 B                  
  0.835   0.845   0.860   0.873   0.875   0.878   0.890   0.890
 78 A    77 B    79 A    80 A    78 B    81 A    82 A    79 B                  
  0.897   0.917   0.950   0.969   0.980   0.981   0.987   0.996
 80 B    83 A    81 B    82 B    84 A    83 B    85 A    86 A                  
  1.015   1.024   1.025   1.055   1.069   1.091   1.096   1.109
 84 B    85 B    87 A    88 A    86 B    87 B    89 A    88 B                  
  1.116   1.121   1.162   1.172   1.187   1.191   1.201   1.206
 90 A    91 A    89 B    92 A    90 B    93 A    91 B    94 A                  
  1.216   1.221   1.241   1.242   1.252   1.265   1.268   1.278
 95 A    92 B    96 A    93 B    94 B    97 A    95 B    98 A                  
  1.281   1.285   1.310   1.332   1.333   1.374   1.375   1.380
 96 B    99 A    97 B   100 A    98 B    99 B   101 A   102 A                  
  1.406   1.408   1.414   1.425   1.457   1.461   1.466   1.471
100 B   103 A   104 A   101 B   105 A   102 B   103 B   106 A                  
  1.483   1.488   1.501   1.507   1.542   1.544   1.554   1.559
107 A   104 B   105 B   108 A   109 A   106 B   107 B   110 A                  
  1.573   1.598   1.606   1.618   1.620   1.631   1.641   1.642
111 A   108 B   112 A   109 B   113 A   110 B   111 B   114 A                  
  1.673   1.681   1.681   1.689   1.690   1.695   1.697   1.710
115 A   112 B   116 A   117 A   113 B   114 B   118 A   115 B                  
  1.723   1.755   1.780   1.794   1.832   1.840   1.844   1.850
119 A   120 A   116 B   117 B   121 A   118 B   122 A   119 B                  
  1.864   1.887   1.910   1.917   1.942   1.984   2.001   2.017
123 A   120 B   121 B   124 A   125 A   122 B   126 A   123 B                  
  2.017   2.022   2.048   2.062   2.071   2.078   2.092   2.111
127 A   124 B   128 A   125 B   129 A   126 B   130 A   127 B                  
  2.115   2.117   2.134   2.153   2.154   2.168   2.191   2.196
131 A   132 A   128 B   133 A   129 B   134 A   130 B   135 A                  
  2.204   2.236   2.237   2.262   2.264   2.318   2.338   2.378
131 B   136 A   132 B   133 B   137 A   134 B   138 A   139 A                  
  2.384   2.390   2.441   2.447   2.461   2.471   2.474   2.494
135 B   136 B   140 A   137 B   141 A   138 B   142 A   139 B                  
  2.528   2.547   2.555   2.556   2.579   2.587   2.598   2.602
143 A   140 B   144 A   141 B   145 A   142 B   143 B   146 A                  
  2.618   2.634   2.635   2.642   2.652   2.658   2.669   2.673
144 B   147 A   145 B   148 A   146 B   149 A   147 B   150 A                  
  2.681   2.684   2.685   2.689   2.708   2.725   2.728   2.738
148 B   151 A   149 B   152 A   150 B   153 A   151 B   154 A                  
  2.760   2.763   2.770   2.772   2.785   2.792   2.803   2.803
155 A   152 B   153 B   156 A   157 A   154 B   155 B   158 A                  
  2.818   2.831   2.839   2.840   2.849   2.850   2.862   2.871
159 A   156 B   157 B   160 A   158 B   161 A   162 A   159 B                  
  2.887   2.893   2.902   2.904   2.958   2.961   2.980   3.000
160 B   163 A   161 B   164 A   162 B   165 A   166 A   163 B                  
  3.005   3.018   3.026   3.034   3.055   3.073   3.083   3.088
167 A   164 B   168 A   165 B   169 A   166 B   170 A   167 B                  
  3.102   3.110   3.123   3.125   3.140   3.141   3.149   3.150
171 A   168 B   172 A   169 B   170 B   173 A   174 A   175 A                  
  3.159   3.176   3.185   3.189   3.193   3.206   3.208   3.227
171 B   172 B   173 B   176 A   177 A   178 A   174 B   179 A                  
  3.238   3.257   3.264   3.278   3.283   3.295   3.300   3.313
175 B   180 A   176 B   181 A   177 B   182 A   178 B   183 A                  
  3.324   3.343   3.345   3.347   3.358   3.363   3.373   3.381
179 B   180 B   181 B   184 A   182 B   185 A   183 B   186 A                  
  3.392   3.409   3.418   3.441   3.444   3.451   3.455   3.462
184 B   187 A   185 B   186 B   188 A   189 A   187 B   190 A                  
  3.468   3.475   3.479   3.504   3.515   3.518   3.529   3.533
191 A   188 B   192 A   189 B   193 A   194 A   190 B   191 B                  
  3.551   3.561   3.565   3.601   3.640   3.662   3.674   3.684
195 A   196 A   192 B   193 B   197 A   198 A   199 A   194 B                  
  3.697   3.721   3.723   3.737   3.772   3.804   3.820   3.838
195 B   196 B   200 A   197 B   201 A   202 A   198 B   199 B                  
  3.887   3.892   3.933   3.936   3.944   3.949   3.973   3.979
203 A   200 B   201 B   204 A   202 B   205 A   203 B   206 A                  
  4.000   4.019   4.044   4.072   4.101   4.104   4.142   4.143
204 B   207 A   205 B   208 A   209 A   206 B   210 A   207 B                  
  4.164   4.173   4.193   4.193   4.210   4.213   4.220   4.232
208 B   211 A   209 B   212 A   210 B   213 A   214 A   211 B                  
  4.243   4.252   4.263   4.272   4.289   4.294   4.310   4.346
215 A   212 B   216 A   213 B   214 B   217 A   218 A   215 B                  
  4.406   4.417   4.477   4.500   4.516   4.618   4.622   4.640
219 A   216 B   220 A   221 A   217 B   218 B   222 A   219 B                  
  4.647   4.671   4.673   4.691   4.720   4.739   4.783   4.847
223 A   220 B   224 A   221 B   225 A   222 B   226 A   223 B                  
  4.862   4.883   4.900   4.910   4.992   5.050   5.075   5.108
227 A   228 A   224 B   229 A   225 B   226 B   230 A   227 B                  
  5.155   5.170   5.175   5.208   5.222   5.311   5.365   5.365
228 B   229 B   231 A   232 A   230 B   233 A   234 A   231 B                  
  5.417   5.435   5.466   5.470   5.606   5.631   5.655   5.868
235 A   232 B   236 A   233 B   237 A   238 A   234 B   235 B                  
  6.125   6.287   6.352   6.465   6.728   6.908   6.972  21.985
239 A   240 A   236 B   241 A   237 B   242 A   238 B   243 A                  
 22.204  22.547  22.557  22.574  22.578  22.687  22.715  22.754
239 B   244 A   240 B   245 A   241 B   242 B   246 A   243 B                  
 22.807  23.046  23.110  23.352  43.796
247 A   248 A   244 B   249 A   250 A                                          
 
 Beta MOs, Unrestricted
 -- Occupied --                  
-19.182 -10.237 -10.206 -10.206 -10.186 -10.186 -10.184 -10.184
  1 A     2 A     1 B     3 A     2 B     4 A     5 A     3 B                  
-10.184 -10.184 -10.183 -10.183 -10.182 -10.182  -1.023  -0.867
  4 B     6 A     7 A     5 B     8 A     6 B     9 A    10 A                  
 -0.863  -0.780  -0.759  -0.756  -0.754  -0.661  -0.623  -0.615
  7 B    11 A     8 B    12 A     9 B    13 A    10 B    14 A                  
 -0.607  -0.566  -0.537  -0.513  -0.479  -0.476  -0.462  -0.454
 11 B    15 A    12 B    16 A    13 B    17 A    14 B    18 A                  
 -0.435  -0.434  -0.432  -0.431  -0.401  -0.375  -0.373  -0.364
 15 B    19 A    16 B    20 A    17 B    21 A    22 A    18 B                  
 -0.359  -0.350  -0.348  -0.277  -0.267  -0.264  -0.259
 19 B    23 A    20 B    21 B    24 A    22 B    25 A                          
 -- Virtual --                   
 -0.183  -0.079  -0.027  -0.020  -0.013   0.044   0.048   0.050
 23 B    24 B    26 A    27 A    25 B    28 A    26 B    27 B                  
  0.070   0.078   0.082   0.092   0.104   0.105   0.108   0.122
 29 A    28 B    30 A    29 B    30 B    31 A    32 A    31 B                  
  0.126   0.140   0.142   0.165   0.171   0.186   0.196   0.201
 33 A    32 B    34 A    33 B    35 A    34 B    36 A    37 A                  
  0.207   0.212   0.213   0.218   0.221   0.234   0.234   0.235
 35 B    36 B    38 A    39 A    37 B    38 B    40 A    41 A                  
  0.243   0.249   0.254   0.262   0.270   0.277   0.288   0.290
 39 B    42 A    40 B    43 A    41 B    44 A    42 B    45 A                  
  0.311   0.313   0.316   0.325   0.326   0.333   0.341   0.346
 43 B    46 A    47 A    48 A    44 B    45 B    46 B    49 A                  
  0.355   0.364   0.374   0.380   0.381   0.387   0.399   0.400
 47 B    50 A    48 B    51 A    49 B    52 A    50 B    53 A                  
  0.410   0.412   0.414   0.417   0.422   0.425   0.430   0.451
 54 A    51 B    52 B    55 A    53 B    56 A    57 A    54 B                  
  0.456   0.457   0.472   0.473   0.480   0.481   0.486   0.495
 58 A    55 B    59 A    56 B    60 A    57 B    58 B    61 A                  
  0.498   0.508   0.510   0.524   0.533   0.554   0.576   0.591
 62 A    59 B    63 A    60 B    64 A    61 B    65 A    62 B                  
  0.596   0.609   0.633   0.634   0.653   0.656   0.660   0.672
 63 B    66 A    64 B    67 A    65 B    68 A    66 B    69 A                  
  0.676   0.683   0.691   0.691   0.696   0.711   0.715   0.726
 67 B    70 A    71 A    68 B    69 B    72 A    70 B    73 A                  
  0.747   0.751   0.759   0.760   0.782   0.787   0.789   0.799
 71 B    74 A    75 A    72 B    76 A    73 B    74 B    77 A                  
  0.814   0.830   0.840   0.849   0.864   0.877   0.879   0.880
 75 B    76 B    78 A    77 B    79 A    78 B    80 A    81 A                  
  0.892   0.895   0.899   0.920   0.955   0.975   0.983   0.984
 82 A    79 B    80 B    83 A    81 B    82 B    84 A    83 B                  
  0.990   1.003   1.019   1.025   1.028   1.057   1.072   1.095
 85 A    86 A    84 B    85 B    87 A    88 A    86 B    87 B                  
  1.100   1.112   1.120   1.127   1.168   1.177   1.188   1.195
 89 A    88 B    90 A    91 A    89 B    92 A    90 B    93 A                  
  1.203   1.209   1.218   1.224   1.244   1.246   1.254   1.268
 91 B    94 A    95 A    92 B    96 A    93 B    94 B    97 A                  
  1.269   1.280   1.284   1.288   1.314   1.337   1.339   1.377
 95 B    98 A    96 B    99 A    97 B   100 A    98 B    99 B                  
  1.379   1.386   1.409   1.413   1.424   1.428   1.460   1.464
101 A   102 A   100 B   103 A   104 A   101 B   105 A   102 B                  
  1.469   1.475   1.485   1.496   1.506   1.512   1.545   1.550
103 B   106 A   107 A   104 B   105 B   108 A   106 B   109 A                  
  1.557   1.570   1.580   1.604   1.615   1.626   1.630   1.635
107 B   110 A   111 A   108 B   112 A   109 B   113 A   110 B                  
  1.648   1.648   1.680   1.684   1.685   1.692   1.692   1.700
111 B   114 A   115 A   112 B   116 A   117 A   113 B   114 B                  
  1.700   1.714   1.727   1.767   1.783   1.799   1.837   1.844
118 A   115 B   119 A   120 A   116 B   117 B   121 A   118 B                  
  1.850   1.860   1.869   1.895   1.914   1.920   1.947   1.989
122 A   119 B   123 A   120 B   121 B   124 A   125 A   122 B                  
  2.008   2.020   2.023   2.029   2.051   2.066   2.074   2.080
126 A   123 B   127 A   124 B   128 A   125 B   129 A   126 B                  
  2.096   2.118   2.119   2.129   2.137   2.157   2.158   2.172
130 A   127 B   131 A   132 A   128 B   133 A   129 B   134 A                  
  2.199   2.204   2.206   2.239   2.240   2.265   2.267   2.325
135 A   130 B   131 B   136 A   132 B   133 B   137 A   134 B                  
  2.343   2.383   2.391   2.409   2.447   2.450   2.464   2.476
138 A   139 A   135 B   136 B   140 A   137 B   141 A   142 A                  
  2.476   2.499   2.529   2.550   2.558   2.563   2.583   2.590
138 B   139 B   143 A   140 B   144 A   141 B   145 A   142 B                  
  2.605   2.605   2.622   2.637   2.641   2.644   2.657   2.659
146 A   143 B   144 B   147 A   145 B   148 A   146 B   149 A                  
  2.673   2.676   2.683   2.688   2.693   2.695   2.716   2.728
147 B   150 A   148 B   151 A   152 A   149 B   150 B   153 A                  
  2.733   2.741   2.762   2.766   2.775   2.776   2.790   2.797
151 B   154 A   155 A   152 B   156 A   153 B   157 A   154 B                  
  2.807   2.809   2.821   2.835   2.844   2.845   2.852   2.854
158 A   155 B   159 A   156 B   160 A   157 B   158 B   161 A                  
  2.870   2.876   2.890   2.900   2.908   2.910   2.967   2.969
162 A   159 B   160 B   163 A   161 B   164 A   162 B   165 A                  
  2.987   3.004   3.010   3.025   3.040   3.041   3.063   3.078
166 A   163 B   167 A   164 B   168 A   165 B   169 A   166 B                  
  3.087   3.092   3.108   3.112   3.126   3.129   3.143   3.145
170 A   167 B   171 A   168 B   172 A   169 B   170 B   173 A                  
  3.154   3.154   3.166   3.180   3.191   3.192   3.198   3.213
174 A   175 A   171 B   172 B   176 A   173 B   177 A   174 B                  
  3.214   3.230   3.244   3.263   3.269   3.288   3.290   3.299
178 A   179 A   175 B   180 A   176 B   177 B   181 A   182 A                  
  3.304   3.317   3.331   3.350   3.351   3.352   3.363   3.366
178 B   183 A   179 B   180 B   184 A   181 B   182 B   185 A                  
  3.377   3.385   3.397   3.414   3.422   3.446   3.450   3.455
183 B   186 A   184 B   187 A   185 B   186 B   188 A   189 A                  
  3.457   3.467   3.471   3.479   3.483   3.513   3.520   3.522
187 B   190 A   191 A   188 B   192 A   189 B   193 A   194 A                  
  3.532   3.538   3.558   3.566   3.571   3.609   3.645   3.668
190 B   191 B   195 A   196 A   192 B   193 B   197 A   198 A                  
  3.676   3.685   3.703   3.728   3.731   3.741   3.777   3.809
199 A   194 B   195 B   200 A   196 B   197 B   201 A   202 A                  
  3.826   3.844   3.891   3.895   3.937   3.938   3.947   3.952
198 B   199 B   203 A   200 B   201 B   204 A   202 B   205 A                  
  3.976   3.982   4.003   4.023   4.048   4.075   4.104   4.107
203 B   206 A   204 B   207 A   205 B   208 A   209 A   206 B                  
  4.145   4.146   4.168   4.177   4.196   4.197   4.214   4.217
207 B   210 A   208 B   211 A   209 B   212 A   210 B   213 A                  
  4.224   4.235   4.246   4.254   4.270   4.276   4.291   4.296
214 A   211 B   215 A   212 B   216 A   213 B   214 B   217 A                  
  4.313   4.349   4.411   4.426   4.482   4.511   4.520   4.623
218 A   215 B   219 A   216 B   220 A   221 A   217 B   218 B                  
  4.628   4.644   4.652   4.675   4.678   4.696   4.724   4.742
222 A   219 B   223 A   220 B   224 A   221 B   225 A   222 B                  
  4.790   4.850   4.864   4.887   4.906   4.913   5.000   5.061
226 A   223 B   227 A   228 A   224 B   229 A   225 B   226 B                  
  5.080   5.153   5.175   5.182   5.214   5.216   5.233   5.324
230 A   227 B   228 B   231 A   229 B   232 A   230 B   233 A                  
  5.370   5.372   5.438   5.439   5.474   5.481   5.621   5.655
231 B   234 A   235 A   232 B   233 B   236 A   237 A   238 A                  
  5.661   5.897   6.156   6.380   6.388   6.552   6.762   6.944
234 B   235 B   239 A   240 A   236 B   241 A   237 B   242 A                  
  7.031  21.986  22.205  22.550  22.557  22.573  22.580  22.688
238 B   243 A   239 B   244 A   240 B   245 A   241 B   242 B                  
 22.717  22.754  22.807  23.051  23.111  23.356  43.823
246 A   243 B   247 A   248 A   244 B   249 A   250 A                          
 --------------------------------------------------------------
 
          Ground-State Mulliken Net Atomic Charges

     Atom                 Charge (a.u.)    Spin (a.u.)
  --------------------------------------------------------
      1 C                     0.259130       0.415213
      2 O                    -0.196129       0.951328
      3 C                     0.104448      -0.005849
      4 C                     0.104448      -0.005849
      5 C                    -0.262414       0.127213
      6 C                    -0.187194       0.159524
      7 C                    -0.097558      -0.075809
      8 C                    -0.081324      -0.052083
      9 C                    -0.121076       0.179913
     10 H                     0.148207      -0.004591
     11 H                     0.127736      -0.008596
     12 H                     0.112514       0.003155
     13 H                     0.111646       0.003325
     14 H                     0.113514      -0.009472
     15 C                    -0.262414       0.127213
     16 C                    -0.187194       0.159524
     17 C                    -0.081324      -0.052083
     18 C                    -0.097558      -0.075809
     19 C                    -0.121076       0.179913
     20 H                     0.148207      -0.004591
     21 H                     0.112514       0.003155
     22 H                     0.127736      -0.008596
     23 H                     0.111646       0.003325
     24 H                     0.113514      -0.009472
  --------------------------------------------------------
  Sum of atomic charges =    -0.000000
  Sum of spin   charges =     2.000000

 -----------------------------------------------------------------
                    Cartesian Multipole Moments
 -----------------------------------------------------------------
    Charge (ESU x 10^10)
                -0.0000
    Dipole Moment (Debye)
         X       0.0000      Y      -0.0000      Z      -1.5825
       Tot       1.5825
    Quadrupole Moments (Debye-Ang)
        XX     -69.8537     XY      -1.8646     YY     -84.7971
        XZ      -0.0000     YZ      -0.0000     ZZ     -79.3811
    Octopole Moments (Debye-Ang^2)
       XXX       0.0000    XXY      -0.0000    XYY      -0.0000
       YYY      -0.0000    XXZ      -1.8702    XYZ     -14.3823
       YYZ       3.5150    XZZ      -0.0000    YZZ      -0.0000
       ZZZ      -6.8344
    Hexadecapole Moments (Debye-Ang^3)
      XXXX   -3114.9305   XXXY     -55.5619   XXYY    -653.7870
      XYYY      -3.1272   YYYY    -204.7454   XXXZ      -0.0000
      XXYZ      -0.0000   XYYZ       0.0000   YYYZ      -0.0000
      XXZZ    -647.4673   XYZZ       7.3954   YYZZ    -151.5131
      XZZZ       0.0000   YZZZ      -0.0000   ZZZZ    -747.5977
 -----------------------------------------------------------------
 Total job time:  15509.33s(wall), 15427.73s(cpu) 
 Mon Oct 21 15:53:52 2024

        *************************************************************
        *                                                           *
        *  Thank you very much for using Q-Chem.  Have a nice day.  *
        *                                                           *
        *************************************************************


