                  Welcome to Q-Chem
     A Quantum Leap Into The Future Of Chemistry


 Q-Chem 6.0 (devel), Q-Chem, Inc., Pleasanton, CA (2022)

 E. Epifanovsky,  A. T. B. Gilbert,  Xintian Feng,  Joonho Lee,  Yuezhi Mao,  
 N. Mardirossian,  P. Pokhilko,  A. White,  M. Wormit,  M. P. Coons,  
 A. L. Dempwolff,  Zhengting Gan,  D. Hait,  P. R. Horn,  L. D. Jacobson,  
 I. Kaliman,  J. Kussmann,  A. W. Lange,  Ka Un Lao,  D. S. Levine,  Jie Liu,  
 S. C. McKenzie,  A. F. Morrison,  K. Nanda,  F. Plasser,  D. R. Rehn,  
 M. L. Vidal,  Zhi-Qiang You,  Ying Zhu,  B. Alam,  B. Albrecht,  
 A. Aldossary,  E. Alguire,  J. H. Andersen,  V. Athavale,  D. Barton,  
 K. Begam,  A. Behn,  N. Bellonzi,  Y. A. Bernard,  E. J. Berquist,  
 H. Burton,  A. Carreras,  K. Carter-Fenk,  Romit Chakraborty,  
 Chandrima Chakravarty,  Junhan Chen,  A. D. Chien,  K. D. Closser,  
 V. Cofer-Shabica,  L. Cunha,  S. Dasgupta,  Jia Deng,  M. de Wergifosse,  
 M. Diedenhofen,  Hainam Do,  S. Ehlert,  Po-Tung Fang,  S. Fatehi,  
 Qingguo Feng,  T. Friedhoff,  B. Ganoe,  J. Gayvert,  Qinghui Ge,  
 G. Gidofalvi,  M. Goldey,  J. Gomes,  C. Gonzalez-Espinoza,  S. Gulania,  
 A. Gunina,  J. A. Gyamfi,  M. W. D. Hanson-Heine,  P. H. P. Harbach,  
 A. W. Hauser,  M. F. Herbst,  M. Hernandez Vera,  M. Hodecker,  
 Z. C. Holden,  S. Houck,  Xunkun Huang,  Kerwin Hui,  B. C. Huynh,  
 K. Ikeda,  M. Ivanov,  Hyunjun Ji,  Zuxin Jin,  Hanjie Jiang,  B. Kaduk,  
 S. Kaehler,  R. Kang,  K. Khistyaev,  Jaehoon Kim,  Yongbin Kim,  
 P. Klunzinger,  Z. Koczor-Benda,  Joong Hoon Koh,  D. Kosenkov,  
 Saikiran Kotaru,  L. Koulias,  T. Kowalczyk,  C. M. Krauter,  K. Kue,  
 A. Kunitsa,  T. Kus,  A. Landau,  K. V. Lawler,  D. Lefrancois,  S. Lehtola,  
 Rain Li,  Shaozhi Li,  Yi-Pei Li,  Jiashu Liang,  M. Liebenthal,  
 Hung-Hsuan Lin,  You-Sheng Lin,  Fenglai Liu,  Kuan-Yu Liu,  
 M. Loipersberger,  A. Luenser,  C. Malbon,  A. Manjanath,  P. Manohar,  
 E. Mansoor,  S. F. Manzer,  Shan-Ping Mao,  A. V. Marenich,  T. Markovich,  
 S. Mason,  F. Matz,  S. A. Maurer,  P. F. McLaughlin,  M. F. S. J. Menger,  
 J.-M. Mewes,  S. A. Mewes,  P. Morgante,  Mohammad Mostafanejad,  
 J. W. Mullinax,  K. J. Oosterbaan,  G. Paran,  V. Parravicini,  
 Alexander C. Paul,  Suranjan K. Paul,  F. Pavosevic,  Zheng Pei,  S. Prager,  
 E. I. Proynov,  E. Ramos,  B. Rana,  A. E. Rask,  A. Rettig,  R. M. Richard,  
 F. Rob,  E. Rossomme,  T. Scheele,  M. Scheurer,  M. Schneider,  
 P. E. Schneider,  N. Sergueev,  S. M. Sharada,  Hengyuan Shen,  
 W. Skomorowski,  D. W. Small,  C. J. Stein,  Yingli Su,  Yu-Chuan Su,  
 E. J. Sundstrom,  Zhen Tao,  J. Thirman,  Hung-Yi Tsai,  T. Tsuchimochi,  
 N. M. Tubman,  C. Utku,  S. P. Veccham,  O. Vydrov,  J. Wenzel,  
 Jonathan Wong,  J. Witte,  A. Yamada,  Chou-Hsun Yang,  Kun Yao,  
 S. Yeganeh,  S. R. Yost,  A. Zech,  F. Zeller,  Igor Ying Zhang,  
 Xing Zhang,  Yu Zhang,  D. Zuev,  A. Aspuru-Guzik,  A. T. Bell,  
 N. A. Besley,  K. B. Bravaya,  B. R. Brooks,  D. Casanova,  Jeng-Da Chai,  
 Hsing-Ta Chen,  S. Coriani,  C. J. Cramer,  A. E. DePrince, III,  
 R. A. DiStasio Jr.,  A. Dreuw,  B. D. Dunietz,  T. R. Furlani,  
 W. A. Goddard III,  S. Grimme,  S. Hammes-Schiffer,  T. Head-Gordon,  
 W. J. Hehre,  Chao-Ping Hsu,  T.-C. Jagau,  Yousung Jung,  A. Klamt,  
 Jing Kong,  D. S. Lambrecht,  Xiangyuan Li,  WanZhen Liang,  N. J. Mayhall,  
 C. W. McCurdy,  J. B. Neaton,  T. Neudecker,  C. Ochsenfeld,  
 J. A. Parkhill,  R. Peverati,  V. A. Rassolov,  Haisheng Ren,  Yihan Shao,  
 L. V. Slipchenko,  R. P. Steele,  J. E. Subotnik,  A. J. W. Thom,  
 A. Tkatchenko,  D. G. Truhlar,  T. Van Voorhis,  Fan Wang,  
 T. A. Wesolowski,  K. B. Whaley,  H. L. Woodcock III,  P. M. Zimmerman,  
 S. Faraji,  P. M. W. Gill,  M. Head-Gordon,  J. M. Herbert,  A. I. Krylov

 Contributors to earlier versions of Q-Chem not listed above: 
 R. D. Adamson,  B. Austin,  R. Baer,  J. Baker,  G. J. O. Beran,  
 K. Brandhorst,  S. T. Brown,  E. F. C. Byrd,  Arup K. Chakraborty,  
 G. K. L. Chan,  Chun-Min Chang,  Yunqing Chen,  C.-L. Cheng,  
 Siu Hung Chien,  D. M. Chipman,  D. L. Crittenden,  H. Dachsel,  
 R. J. Doerksen,  A. D. Dutoi,  R. G. Edgar,  J. Fosso-Tande,  
 L. Fusti-Molnar,  D. Ghosh,  A. Ghysels,  A. Golubeva-Zadorozhnaya,  
 J. Gonthier,  M. S. Gordon,  S. R. Gwaltney,  G. Hawkins,  J. E. Herr,  
 A. Heyden,  S. Hirata,  E. G. Hohenstein,  G. Kedziora,  F. J. Keil,  
 C. Kelley,  Jihan Kim,  R. A. King,  R. Z. Khaliullin,  P. P. Korambath,  
 W. Kurlancheek,  A. Laurent,  A. M. Lee,  M. S. Lee,  S. V. Levchenko,  
 Ching Yeh Lin,  D. Liotard,  E. Livshits,  R. C. Lochan,  I. Lotan,  
 L. A. Martinez-Martinez,  P. E. Maslen,  N. Nair,  D. P. O'Neill,  
 D. Neuhauser,  E. Neuscamman,  C. M. Oana,  R. Olivares-Amaya,  R. Olson,  
 T. M. Perrine,  B. Peters,  P. A. Pieniazek,  A. Prociuk,  Y. M. Rhee,  
 J. Ritchie,  M. A. Rohrdanz,  E. Rosta,  N. J. Russ,  H. F. Schaefer III,  
 M. W. Schmidt,  N. E. Schultz,  S. Sharma,  N. Shenvi,  C. D. Sherrill,  
 A. C. Simmonett,  A. Sodt,  T. Stein,  D. Stuck,  K. S. Thanthiriwatte,  
 V. Vanovschi,  L. Vogt,  Tao Wang,  A. Warshel,  M. A. Watson,  
 C. F. Williams,  Q. Wu,  X. Xu,  Jun Yang,  W. Zhang,  Yan Zhao

   Please cite Q-Chem as follows:
  "Software for the frontiers of quantum chemistry:
   An overview of developments in the Q-Chem 5 package"
   J. Chem. Phys. 155, 084801 (2021)
   https://doi.org/10.1063/5.0055522 (open access)

 Q-Chem 6.0.1 for Intel X86 EM64T Linux

 Parts of Q-Chem use Armadillo 9.900.5 (Nocturnal Misbehaviour).
 http://arma.sourceforge.net/

 Q-Chem begins on Fri Sep  6 09:44:28 2024  

 Host: hyperion-206
0

     Scratch files written to ./qchem2735843//
 Processing $rem in /scratch/abel/SOFTWARE/qchem/config/preferences:
 Processing $rem in /home/acebg/.qchemrc:

 Checking the input file for inconsistencies... 	...done.

--------------------------------------------------------------
User input:
--------------------------------------------------------------
$comment
 RAS-SF CALCULATION
$end

$molecule
READ benzoquinone.molecule
$end

$rem
!**CALCULATION TYPE***     
JOBTYPE            sp    
EXCHANGE           HF
CORRELATION        RASCI    !RASCI=Casanova; RASCI2=Zimmerman
BASIS              def2-TZVP
!BASIS2             STO-3G

!***SCF REFERENCE***
INPUT_BOHR          TRUE
!SKIP_SCFMAN        FALSE
UNRESTRICTED       FALSE
!SCF_GUESS          core
!SCF_GUESS_MIX      FALSE
!SCF_GUESS_ALWAYS   FALSE
MAX_SCF_CYCLES     999
!SCF_CONVERGENCE    10
SCF_ALGORITHM      DIIS_GDM !DIIS,DM,DIIS_DM,GDM,DIIS_GDM,GD

!SYMMETRY           TRUE   !use of symmetry for calculating integrals
!SYM_IGNORE         FALSE  !turn off using symmetry
!SYM_TOL            5      !tolerance for determining point group
!USE_ABELIAN_SUBGROUP      !define to use abelian group

!THRESH             14
!SCF_FINAL_PRINT     1 !0,1,2,3

!****RAS-SF****
RAS_ROOTS          30       !number of RAS-CI roots to be computed
SET_ITER           100     !number of iterations in RASCI
RAS_ELEC 6
RAS_ELEC_ALPHA 4
RAS_ELEC_BETA 2

RAS_ACT 4
RAS_ACT_ORB [16, 19, 28, 29]
RAS_OCC 25
!N_FROZEN_CORE      FC     !Number of frozen core orbitals
!N_FROZEN_VIRTUAL   0      !Number of frozen virtual orbitals

!RAS_DO_HOLE        TRUE   !presence of hole excitations in RAS-CI wave function
!RAS_DO_PART        TRUE   !presence of particle excitations
!RAS_AMPL_PRINT     10     !threshold (×10 2 ) for the CI amplitudes

!RAS_GUESS_CS       0      !number of closed shell guess conﬁgurations
!RAS_SPIN_MULT      0      !spin multiplicity. Only for Ms = 0 
!RAS_SRDFT          FALSE  !short-range density functional RAS-CI
!RAS_NFRAG          0     !fragments of excitation analysis in RASCI

RAS_PRINT          2      !level of information
!RAS_NATORB         TRUE   !computation of the natural orbital occupancies
!RAS_NATORB_STATE  0      !Saves NO of i RAS computed state in .fchk ﬁle
!RAS_FOD            TRUE

!****RAS-SOC****
CALC_SOC           TRUE   !calculate SOC for EOM-CC, RAS-CI, ADC, TDDFT/TDA and TDDFT
!RAS_SOC_2E        TRUE   !two-electron mean-ﬁeld contribution, default=true
RAS_SOC_SYM_DENS   TRUE   !averaging of α and β densities

!****MEMORY****
MEM_TOTAL          50000 !Default 2000 MB
MEM_STATIC         2000  !Default 64 MB

!**Molecular Properties and Analysis **                                                                                          
GUI                0       !Checkpoints generation
STATE_ANALYSIS     TRUE
$end
--------------------------------------------------------------
 ----------------------------------------------------------------
             Standard Nuclear Orientation (Bohr)
    I     Atom           X                Y                Z
 ----------------------------------------------------------------
    1      O       0.0000000000    -0.0000000000     5.0873465738
    2      C       0.0000000000    -0.0000000000     2.6403222818
    3      C       2.3453549260    -0.0000000000     1.3021362826
    4      C      -2.3453549260     0.0000000000     1.3021362826
    5      C      -2.3309491506     0.0000000000    -1.2666211182
    6      C       2.3309491506    -0.0000000000    -1.2666211182
    7      C      -0.0000000000     0.0000000000    -2.7415020535
    8      O      -0.0000000000     0.0000000000    -5.0815679785
    9      H       4.0818321701    -0.0000000000     2.3803198434
   10      H      -4.0818321701     0.0000000000     2.3803198434
   11      H       4.0900977079    -0.0000000000    -2.3129858956
   12      H      -4.0900977079     0.0000000000    -2.3129858956
 ----------------------------------------------------------------
 Molecular Point Group                 C2v   NOp =  4
 Largest Abelian Subgroup              C2v   NOp =  4
 Nuclear Repulsion Energy =         323.04806769 hartrees
 There are       29 alpha and       27 beta electrons
 Requested basis set is def2-TZVP
 There are 104 shells and 272 basis functions

 Total QAlloc Memory Limit  50000 MB
 Mega-Array Size      1956 MB
 MEM_STATIC part      2000 MB


                       Distance Matrix (Bohrs)
             O (  1)   C (  2)   C (  3)   C (  4)   C (  5)   C (  6)
   C (  2)  2.447024
   C (  3)  4.452921  2.700265
   C (  4)  4.452921  2.700265  4.690710
   C (  5)  6.768030  4.549454  5.335385  2.568798
   C (  6)  6.768030  4.549454  2.568798  5.335385  4.661898
   C (  7)  7.828849  5.381824  4.674580  4.674580  2.758369  2.758369
   O (  8) 10.168915  7.721890  6.800909  6.800909  4.470698  4.470698
   H (  9)  4.897892  4.090105  2.043975  6.516994  7.377258  4.045463
   H ( 10)  4.897892  4.090105  6.516994  2.043975  4.045463  7.377258
   H ( 11)  8.455402  6.423719  4.014130  7.381339  6.505745  2.046823
   H ( 12)  8.455402  6.423719  7.381339  4.014130  2.046823  6.505745
             C (  7)   O (  8)   H (  9)   H ( 10)   H ( 11)
   O (  8)  2.340066
   H (  9)  6.549383  8.505359
   H ( 10)  6.549383  8.505359  8.163664
   H ( 11)  4.112484  4.939023  4.693313  9.423776
   H ( 12)  4.112484  4.939023  9.423776  4.693313  8.180195
 
 A cutoff of  1.0D-09 yielded   4846 shell pairs
 There are     33506 function pairs (     43959 Cartesian)
 Smallest overlap matrix eigenvalue = 1.49E-05

 Q-Chem warning in module stvman/mkSTV.C, line 313:

 Overlap eigenvalue is smaller than square root of threshold
 Use THRESH >= 12 to get rid of this warning


 Scale SEOQF with 1.000000e-01/1.000000e+00/1.000000e-01

 Standard Electronic Orientation quadrupole field applied
 Nucleus-field energy     =    -0.0000000149 hartrees
 Guess from superposition of atomic densities
 Warning:  Energy on first SCF cycle will be non-variational
 SAD guess density has 56.000000 electrons

 -----------------------------------------------------------------------
  General SCF calculation program by
  Eric Jon Sundstrom, Paul Horn, Yuezhi Mao, Dmitri Zuev, Alec White,
  David Stuck, Shaama M.S., Shane Yost, Joonho Lee, David Small,
  Daniel Levine, Susi Lehtola, Hugh Burton, Evgeny Epifanovsky,
  Bang C. Huynh
 -----------------------------------------------------------------------
 Hartree-Fock
 Orthonormalizing orbitals
 A restricted open-shell SCF calculation will be
 performed using DIIS, GDM
 SCF converges when RMS gradient is below 1.0e-05
 ---------------------------------------
  Cycle       Energy         DIIS error
 ---------------------------------------
    1    -376.8835350886      3.77e-02  
    2    -373.8616784451      5.38e-02  
    3    -378.8547908864      1.32e-02  
    4    -379.1341612503      4.52e-03  Done DIIS. Switching to GDM
 ---------------------------------------
  Cycle       Energy        RMS Gradient
 ---------------------------------------
    1    -379.1341612503      6.70e-02   Descent step
    2    -379.1687019559      1.74e-01   Normal BFGS step
    3    -379.2062927973      8.50e-02   Dog-leg BFGS step
    4    -379.2695892385      1.86e-01   Dog-leg BFGS step
    5    -379.2925237590      1.90e-01   Normal BFGS step
    6    -379.2849269868      1.43e-01  Line search: overstep
    7    -379.3006320691      7.43e-02   Dog-leg BFGS step
    8    -379.2587033162      2.28e-01  Line search: overstep
    9    -379.3084489467      1.39e-02   Normal BFGS step
   10    -379.3092432468      4.84e-03   Normal BFGS step
   11    -379.3093337798      3.00e-03   Normal BFGS step
   12    -379.3093527132      2.18e-03   Normal BFGS step
   13    -379.3093642068      1.51e-03   Normal BFGS step
   14    -379.3093740121      6.89e-04   Normal BFGS step
   15    -379.3093774141      2.52e-04   Normal BFGS step
   16    -379.3093785739      2.45e-04   Normal BFGS step
   17    -379.3093787184      1.42e-04   Normal BFGS step
   18    -379.3093788322      4.19e-05   Normal BFGS step
   19    -379.3093787610      1.21e-05  Line search: overstep
   20    -379.3093788292      3.65e-05   Normal BFGS step
   21    -379.3093788507      4.83e-06  Convergence criterion met
The disked orbital energies are calculated using alpha and beta Focks
 ---------------------------------------
 SCF time:   CPU 137.17s  wall 138.00s 
<S^2> =          2.000000000
 SCF   energy in the final basis set =     -379.3093788507
 Total energy in the final basis set =     -379.3093788507
  
     ##========================================##
     ||                                        ||
     ||              R A S M A N 2             ||
     ||________________________________________||
     ||                                        ||
     ||  Author:                               ||
     ||                                        ||
     ||        David Casanova (2010)           ||
     ||                                        ||
     ##========================================##
  
Setting single-point xc-functionals (if necessary)

  ***************************************************
  *  RAS-CI Dimensions:                             *
  *                                                 *
  *  Active Elec.:   6 ( 4, 2)   Active Orb.:   4   *
  *  Doubly Occ. :  25           Doubly Vir.: 243   *
  *  Frozen Occ. :   0           Frozen Vir.:   0   *
  *                                                 *
  *  Total CI configurations:      6910             * 
  *    Active configurations:         6             * 
  *      Hole configurations:       100             * 
  *  Particle configurations:      6804             * 
  *                                                 *
  *   Requested states:       30                    *
  *  Spin multiplicity: Any multiplicity            *
  *                                                 *
  ***************************************************
-----------------------------------------
    Memory requirements of RASCI

 Each CI-vector requires      0.05 MiB 
 Max. subspace vectors           3000      

 Reduced Lists                0.00 MiB 
 Excitation Lists             0.00 MiB 
 Excitation Lists Sign        0.00 MiB 
 CI-space (Max)             228.43 MiB 
 Integrals                   22.13 MiB 
 Memory required (Max)      228.43 MiB 
 Memory available          1907.35 MiB 

    Disk requirements of RASCI

 Fock matrix                  1.13 MiB 
 2-electron integrals        30.89 MiB 
 CI-space                   316.31 MiB 
 Disk required              348.33 MiB 
-----------------------------------------
  
RAS1 HF-like energy:           -369.7032701756
 Computing integrals
 Computing J and K matrices
 Computing addressing
 Making amplitude guesses
 
Direct CI diagonalization
 ---------------------------------------------------
 Iter    Rts Conv    Rts Left    Ttl Dev     Max Dev
 ---------------------------------------------------
   1         0          30      0.035051    0.002613
   2         0          30      0.044020    0.007518
   3         0          30      0.055883    0.005918
   4         0          30      0.047167    0.006328
   5         0          30      0.036757    0.004596
   6         0          30      0.032187    0.004764
   7         0          30      0.026598    0.005771
   8         0          30      0.019022    0.004034
   9         0          30      0.019620    0.004627
  10         0          30      0.023361    0.006609
  11         0          30      0.019043    0.004105
  12         0          30      0.015959    0.003068
  13         2          28      0.019706    0.005298
  14         3          27      0.018602    0.004277
  15         3          27      0.011833    0.003121
  16         3          27      0.010113    0.003413
  17         5          25      0.012577    0.003828
  18         7          23      0.010631    0.003169
  19         7          23      0.008038    0.002272
  20        11          19      0.005880    0.001525
  21        11          19      0.006457    0.002163
  22        12          18      0.004399    0.001223
  23        14          16      0.002877    0.000852
  24        15          15      0.002022    0.000654
  25        15          15      0.001202    0.000407
  26        16          14      0.001345    0.000559
  27        16          14      0.000854    0.000343
  28        19          11      0.000530    0.000209
  29        21           9      0.000336    0.000130
  30        21           9      0.000213    0.000099
  31        22           8      0.000152    0.000078
  32        24           6      0.000093    0.000045
  33        26           4      0.000054    0.000025
  34        26           4      0.000036    0.000015
  35        26           4      0.000027    0.000010
  36        27           3      0.000021    0.000008
  37        27           3      0.000015    0.000004
  38        29           1      0.000012    0.000002
  39        29           1      0.000011    0.000002
  40        29           1      0.000010    0.000001
  41        30           0      0.000010    0.000001    Roots Converged
 ---------------------------------------------------
   
**************************************************
 RAS-CI total energy for state   1:   -379.319476414860
  Excitation energy (eV) =  0.000000000000
  State symmetry: A2    (C2v      )
  <S^2>      :  2.0000
  Dipole Moment:    0.0000 X     0.0000 Y    -1.7814 Z
 NATURAL OCCUPATION NUMBERS (higher than 1.0E-05)
            1           2           3           4           5           6
    1   2.0000000   2.0000000   2.0000000   2.0000000   2.0000000   2.0000000
            7           8           9          10          11          12
    1   2.0000000   2.0000000   2.0000000   2.0000000   2.0000000   2.0000000
           13          14          15          16          17          18
    1   2.0000000   2.0000000   2.0000000   2.0000000   2.0000000   2.0000000
           19          20          21          22          23          24
    1   2.0000000   2.0000000   2.0000000   2.0000000   1.9999966   1.9999953
           25          26          27          28          29          30
    1   1.9986693   1.9974747   1.9918524   1.0049081   1.0009946   0.0017042
           31          32          33          34          35          36
    1   0.0016541   0.0012589   0.0007333   0.0003774   0.0001342   0.0000596
           37          38          39          40          41          42
    1   0.0000591   0.0000473   0.0000250   0.0000183   0.0000156   0.0000126

 Head-Gordon Nu:    2.01
 Head-Gordon Nu_nl: 2.00
 Created directory ./qchem2735843/plots

  Amplitudes : 
  
 | HOLE  | ALPHA | BETA  | PART  |    AMPLITUDE 
--------------------------------------------------
 |       | 1111  | 1100  |       |     9.9477794395906E-01
--------------------------------------------------
*** Contributions RASCI wfn    Active:  99.06
                                 Hole:   0.32
                                 Part:   0.62

      Mulliken population analysis 
 ---------------------------------------------------
   Atom    Charge (a.u.)   Spin (a.u.)  
 ---------------------------------------------------
   1  O   -0.141318        1.025285 
   2  C    0.397885        0.314018 
   3  C   -0.207751        0.061694 
   4  C   -0.207751        0.061694 
   5  C   -0.141500        0.154004 
   6  C   -0.141500        0.154004 
   7  C    0.333916        0.081294 
   8  O   -0.493292        0.144265 
   9  H    0.149528        0.000546 
  10  H    0.149528        0.000546 
  11  H    0.151128        0.001325 
  12  H    0.151128        0.001325 
 ---------------------------------------------------
   Sum:    0.000000        2.000000 
 ---------------------------------------------------
 
*** Unpaired Electrons
 Yamaguchi Nd:         2.04
  
**************************************************
 RAS-CI total energy for state   2:   -379.274302664532
  Excitation energy (eV) =  1.229240288214
  State symmetry: A1    (C2v      )
  <S^2>      :  2.0000
  Dipole Moment:   -0.0000 X    -0.0000 Y    -0.8782 Z
  Trans. Moment:    0.0000 X     0.0000 Y    -0.0000 Z
  Strength   :  0.000000
  Natural transition orbitals ( 1 -> 2 ):
   e-/hole pair  1 alpha:  ampl =  0.019386 (  0.0%)   [4 : 5]
   e-/hole pair  2 alpha:  ampl =  0.015093 (  0.0%)   [3 : 6]
   e-/hole pair  1 beta :  ampl =  0.991589 ( 98.3%)   [4 : 5]
   e-/hole pair  2 beta :  ampl =  0.029112 (  0.1%)   [3 : 6]
   Sum of square amplitudes: 0.99

 NATURAL OCCUPATION NUMBERS (higher than 1.0E-05)
            1           2           3           4           5           6
    1   2.0000000   2.0000000   2.0000000   2.0000000   2.0000000   2.0000000
            7           8           9          10          11          12
    1   2.0000000   2.0000000   2.0000000   2.0000000   2.0000000   2.0000000
           13          14          15          16          17          18
    1   2.0000000   2.0000000   2.0000000   2.0000000   2.0000000   2.0000000
           19          20          21          22          23          24
    1   2.0000000   2.0000000   2.0000000   1.9999848   1.9999828   1.9999820
           25          26          27          28          29          30
    1   1.9993206   1.9982354   1.9980944   1.0022400   0.9993895   0.0009340
           31          32          33          34          35          36
    1   0.0008140   0.0002998   0.0002428   0.0001539   0.0001060   0.0000651
           37          38          39          40
    1   0.0000529   0.0000388   0.0000224   0.0000143

 Head-Gordon Nu:    2.00
 Head-Gordon Nu_nl: 2.00

  Amplitudes : 
  
 | HOLE  | ALPHA | BETA  | PART  |    AMPLITUDE 
--------------------------------------------------
 |       | 1111  | 1010  |       |     8.0361234651687E-01
 |  22   | 1111  | 1110  |       |     3.1078328141644E-01
 |  23   | 1111  | 1110  |       |     4.9835168434665E-01
--------------------------------------------------
*** Contributions RASCI wfn    Active:  64.58
                                 Hole:  34.89
                                 Part:   0.53

      Mulliken population analysis 
 ---------------------------------------------------
   Atom    Charge (a.u.)   Spin (a.u.)  
 ---------------------------------------------------
   1  O   -0.232233        0.918515 
   2  C    0.371098        0.356665 
   3  C   -0.220550        0.034716 
   4  C   -0.220550        0.034716 
   5  C   -0.089215        0.196799 
   6  C   -0.089215        0.196799 
   7  C    0.342645        0.085473 
   8  O   -0.457376        0.175299 
   9  H    0.147966       -0.000127 
  10  H    0.147966       -0.000127 
  11  H    0.149732        0.000636 
  12  H    0.149732        0.000636 
 ---------------------------------------------------
   Sum:    0.000000        2.000000 
 ---------------------------------------------------
 
*** Unpaired Electrons
 Yamaguchi Nd:         2.01
  
**************************************************
 RAS-CI total energy for state   3:   -379.178067270097
  Excitation energy (eV) =  3.847938606000
  State symmetry: B2    (C2v      )
  <S^2>      :  2.0000
  Dipole Moment:   -0.0000 X    -0.0000 Y    -1.8604 Z
  Trans. Moment:    0.3282 X     0.0000 Y     0.0000 Z
  Strength   :  0.010155
  Natural transition orbitals ( 1 -> 3 ):
   e-/hole pair  1 alpha:  ampl =  0.549486 ( 30.2%)   [4 : 5]
   e-/hole pair  2 alpha:  ampl =  0.008832 (  0.0%)   [3 : 6]
   e-/hole pair  1 beta :  ampl =  0.828255 ( 68.6%)   [4 : 5]
   e-/hole pair  2 beta :  ampl =  0.045501 (  0.2%)   [3 : 6]
   Sum of square amplitudes: 0.99

 NATURAL OCCUPATION NUMBERS (higher than 1.0E-05)
            1           2           3           4           5           6
    1   2.0000000   2.0000000   2.0000000   2.0000000   2.0000000   2.0000000
            7           8           9          10          11          12
    1   2.0000000   2.0000000   2.0000000   2.0000000   2.0000000   2.0000000
           13          14          15          16          17          18
    1   2.0000000   2.0000000   2.0000000   2.0000000   2.0000000   2.0000000
           19          20          21          22          23          24
    1   2.0000000   2.0000000   2.0000000   1.9999849   1.9999812   1.9998560
           25          26          27          28          29          30
    1   1.9978037   1.9977952   1.3872705   1.3086947   1.0019951   0.3061687
           31          32          33          34          35
    1   0.0002062   0.0000991   0.0000489   0.0000421   0.0000198

 Head-Gordon Nu:    2.61
 Head-Gordon Nu_nl: 2.81

  Amplitudes : 
  
 | HOLE  | ALPHA | BETA  | PART  |    AMPLITUDE 
--------------------------------------------------
 |  25   | 1111  | 1101  |       |     8.3144770994106E-01
 |       | 1110  | 1100  |  30   |     5.4708268572447E-01
--------------------------------------------------
*** Contributions RASCI wfn    Active:   0.11
                                 Hole:  69.23
                                 Part:  30.66

      Mulliken population analysis 
 ---------------------------------------------------
   Atom    Charge (a.u.)   Spin (a.u.)  
 ---------------------------------------------------
   1  O   -0.172881        0.952281 
   2  C    0.279764        0.023409 
   3  C   -0.112850        0.264615 
   4  C   -0.112850        0.264615 
   5  C   -0.117705        0.237017 
   6  C   -0.117705        0.237017 
   7  C    0.299673        0.012913 
   8  O   -0.546413       -0.000180 
   9  H    0.149710        0.002178 
  10  H    0.149710        0.002178 
  11  H    0.150773        0.001978 
  12  H    0.150773        0.001978 
 ---------------------------------------------------
   Sum:    0.000000        2.000000 
 ---------------------------------------------------
 
*** Unpaired Electrons
 Yamaguchi Nd:         3.28
  
**************************************************
 RAS-CI total energy for state   4:   -379.167303614612
  Excitation energy (eV) =  4.140832573707
  State symmetry: A2    (C2v      )
  <S^2>      :  2.0000
  Dipole Moment:   -0.0000 X    -0.0000 Y    -1.5074 Z
  Trans. Moment:    0.0000 X    -0.0000 Y    -0.2910 Z
  Strength   :  0.008591
  Natural transition orbitals ( 1 -> 4 ):
   e-/hole pair  1 alpha:  ampl =  0.687285 ( 47.2%)   [4 : 5]
   e-/hole pair  2 alpha:  ampl =  0.016743 (  0.0%)   [3 : 6]
   e-/hole pair  1 beta :  ampl =  0.715385 ( 51.2%)   [4 : 5]
   e-/hole pair  2 beta :  ampl =  0.023660 (  0.1%)   [3 : 6]
   Sum of square amplitudes: 0.99

 NATURAL OCCUPATION NUMBERS (higher than 1.0E-05)
            1           2           3           4           5           6
    1   2.0000000   2.0000000   2.0000000   2.0000000   2.0000000   2.0000000
            7           8           9          10          11          12
    1   2.0000000   2.0000000   2.0000000   2.0000000   2.0000000   2.0000000
           13          14          15          16          17          18
    1   2.0000000   2.0000000   2.0000000   2.0000000   2.0000000   2.0000000
           19          20          21          22          23          24
    1   2.0000000   2.0000000   2.0000000   1.9999943   1.9999938   1.9988263
           25          26          27          28          29          30
    1   1.9971622   1.9933047   1.4870934   1.0414727   1.0023309   0.4761439
           31          32          33          34          35          36
    1   0.0017512   0.0010046   0.0005229   0.0002080   0.0000770   0.0000362
           37          38          39
    1   0.0000350   0.0000126   0.0000119

 Head-Gordon Nu:    2.96
 Head-Gordon Nu_nl: 3.11

  Amplitudes : 
  
 | HOLE  | ALPHA | BETA  | PART  |    AMPLITUDE 
--------------------------------------------------
 |  23   | 1111  | 1101  |       |     7.1644545330603E-01
 |       | 1110  | 1100  |  31   |     6.8514779102151E-01
--------------------------------------------------
*** Contributions RASCI wfn    Active:   0.16
                                 Hole:  51.73
                                 Part:  48.11

      Mulliken population analysis 
 ---------------------------------------------------
   Atom    Charge (a.u.)   Spin (a.u.)  
 ---------------------------------------------------
   1  O   -0.122389        1.015639 
   2  C    0.318763        0.165781 
   3  C   -0.190468        0.162652 
   4  C   -0.190468        0.162652 
   5  C   -0.107977        0.054420 
   6  C   -0.107977        0.054420 
   7  C    0.205389        0.169550 
   8  O   -0.405823        0.210022 
   9  H    0.149259        0.001655 
  10  H    0.149259        0.001655 
  11  H    0.151216        0.000777 
  12  H    0.151216        0.000777 
 ---------------------------------------------------
   Sum:    0.000000        2.000000 
 ---------------------------------------------------
 
*** Unpaired Electrons
 Yamaguchi Nd:         3.52
  
**************************************************
 RAS-CI total energy for state   5:   -379.150969832640
  Excitation energy (eV) =  4.585297394824
  State symmetry: A1    (C2v      )
  <S^2>      :  2.0000
  Dipole Moment:   -0.0000 X    -0.0000 Y     1.9123 Z
  Trans. Moment:    0.0000 X     0.0000 Y    -0.0000 Z
  Strength   :  0.000000
  Natural transition orbitals ( 1 -> 5 ):
   e-/hole pair  1 alpha:  ampl =  0.007972 (  0.0%)   [4 : 5]
   e-/hole pair  2 alpha:  ampl =  0.002523 (  0.0%)   [3 : 6]
   e-/hole pair  1 beta :  ampl =  0.996105 ( 99.2%)   [4 : 5]
   e-/hole pair  2 beta :  ampl =  0.005068 (  0.0%)   [3 : 6]
   Sum of square amplitudes: 0.99

 NATURAL OCCUPATION NUMBERS (higher than 1.0E-05)
            1           2           3           4           5           6
    1   2.0000000   2.0000000   2.0000000   2.0000000   2.0000000   2.0000000
            7           8           9          10          11          12
    1   2.0000000   2.0000000   2.0000000   2.0000000   2.0000000   2.0000000
           13          14          15          16          17          18
    1   2.0000000   2.0000000   2.0000000   2.0000000   2.0000000   2.0000000
           19          20          21          22          23          24
    1   2.0000000   2.0000000   2.0000000   2.0000000   1.9999993   1.9999976
           25          26          27          28          29          30
    1   1.9999942   1.9999511   1.9998312   1.0001139   1.0000019   0.0000654
           31
    1   0.0000349

 Head-Gordon Nu:    2.00
 Head-Gordon Nu_nl: 2.00

  Amplitudes : 
  
 | HOLE  | ALPHA | BETA  | PART  |    AMPLITUDE 
--------------------------------------------------
 |  24   | 1111  | 1101  |       |     9.9908126537375E-01
--------------------------------------------------
*** Contributions RASCI wfn    Active:   0.00
                                 Hole:  99.99
                                 Part:   0.01

      Mulliken population analysis 
 ---------------------------------------------------
   Atom    Charge (a.u.)   Spin (a.u.)  
 ---------------------------------------------------
   1  O   -0.221552        0.945266 
   2  C    0.113513        0.018266 
   3  C   -0.240078        0.030178 
   4  C   -0.240078        0.030178 
   5  C   -0.197526        0.098236 
   6  C   -0.197526        0.098236 
   7  C    0.355999        0.107219 
   8  O   -0.006010        0.635811 
   9  H    0.157369        0.008604 
  10  H    0.157369        0.008604 
  11  H    0.159260        0.009701 
  12  H    0.159260        0.009701 
 ---------------------------------------------------
   Sum:    0.000000        2.000000 
 ---------------------------------------------------
 
*** Unpaired Electrons
 Yamaguchi Nd:         2.00
  
**************************************************
 RAS-CI total energy for state   6:   -379.147660784545
  Excitation energy (eV) =  4.675341174777
  State symmetry: B2    (C2v      )
  <S^2>      :  2.0000
  Dipole Moment:   -0.0000 X    -0.0000 Y    -1.6504 Z
  Trans. Moment:   -0.3109 X    -0.0000 Y     0.0000 Z
  Strength   :  0.011072
  Natural transition orbitals ( 1 -> 6 ):
   e-/hole pair  1 alpha:  ampl =  0.104483 (  1.1%)   [4 : 5]
   e-/hole pair  2 alpha:  ampl =  0.030449 (  0.1%)   [3 : 6]
   e-/hole pair  1 beta :  ampl =  0.979598 ( 96.0%)   [4 : 5]
   e-/hole pair  2 beta :  ampl =  0.119491 (  1.4%)   [3 : 6]
   Sum of square amplitudes: 0.99

 NATURAL OCCUPATION NUMBERS (higher than 1.0E-05)
            1           2           3           4           5           6
    1   2.0000000   2.0000000   2.0000000   2.0000000   2.0000000   2.0000000
            7           8           9          10          11          12
    1   2.0000000   2.0000000   2.0000000   2.0000000   2.0000000   2.0000000
           13          14          15          16          17          18
    1   2.0000000   2.0000000   2.0000000   2.0000000   2.0000000   2.0000000
           19          20          21          22          23          24
    1   2.0000000   2.0000000   2.0000000   1.9999610   1.9979104   1.9959754
           25          26          27          28          29          30
    1   1.9922224   1.9856115   1.9699781   1.0327563   1.0077512   0.0110596
           31          32          33          34          35          36
    1   0.0018626   0.0012874   0.0010153   0.0007538   0.0005224   0.0004008
           37          38          39          40          41          42
    1   0.0003641   0.0002456   0.0001239   0.0001030   0.0000383   0.0000243

 Head-Gordon Nu:    2.04
 Head-Gordon Nu_nl: 2.00

  Amplitudes : 
  
 | HOLE  | ALPHA | BETA  | PART  |    AMPLITUDE 
--------------------------------------------------
 |       | 1111  | 0110  |       |     7.3090754439789E-01
 |  13   | 1111  | 1110  |       |     1.5035730666808E-01
 |  15   | 1111  | 1110  |       |     2.9285790471672E-01
 |  17   | 1111  | 1110  |       |    -2.5086009618337E-01
 |  19   | 1111  | 1110  |       |    -4.0981054719514E-01
 |  20   | 1111  | 1110  |       |    -2.9153144044450E-01
 |  25   | 1111  | 1101  |       |     1.1995202825338E-01
 |       | 1110  | 1100  |  30   |    -1.0425081011784E-01
--------------------------------------------------
*** Contributions RASCI wfn    Active:  53.52
                                 Hole:  44.50
                                 Part:   1.98

      Mulliken population analysis 
 ---------------------------------------------------
   Atom    Charge (a.u.)   Spin (a.u.)  
 ---------------------------------------------------
   1  O   -0.278343        0.881032 
   2  C    0.499233        0.442733 
   3  C   -0.208673        0.051898 
   4  C   -0.208673        0.051898 
   5  C   -0.128464        0.168200 
   6  C   -0.128464        0.168200 
   7  C    0.335753        0.082148 
   8  O   -0.484097        0.147940 
   9  H    0.148955        0.001644 
  10  H    0.148955        0.001644 
  11  H    0.151909        0.001331 
  12  H    0.151909        0.001331 
 ---------------------------------------------------
   Sum:    0.000000        2.000000 
 ---------------------------------------------------
 
*** Unpaired Electrons
 Yamaguchi Nd:         2.15
  
**************************************************
 RAS-CI total energy for state   7:   -379.131013937182
  Excitation energy (eV) =  5.128324938618
  State symmetry: B2    (C2v      )
  <S^2>      :  2.0000
  Dipole Moment:   -0.0000 X    -0.0000 Y    -1.6006 Z
  Trans. Moment:   -1.3543 X    -0.0000 Y    -0.0000 Z
  Strength   :  0.230456
  Natural transition orbitals ( 1 -> 7 ):
   e-/hole pair  1 alpha:  ampl =  0.821488 ( 67.5%)   [4 : 5]
   e-/hole pair  2 alpha:  ampl =  0.018546 (  0.0%)   [3 : 6]
   e-/hole pair  1 beta :  ampl =  0.536395 ( 28.8%)   [4 : 5]
   e-/hole pair  2 beta :  ampl =  0.157106 (  2.5%)   [3 : 6]
   Sum of square amplitudes: 0.99

 NATURAL OCCUPATION NUMBERS (higher than 1.0E-05)
            1           2           3           4           5           6
    1   2.0000000   2.0000000   2.0000000   2.0000000   2.0000000   2.0000000
            7           8           9          10          11          12
    1   2.0000000   2.0000000   2.0000000   2.0000000   2.0000000   2.0000000
           13          14          15          16          17          18
    1   2.0000000   2.0000000   2.0000000   2.0000000   2.0000000   2.0000000
           19          20          21          22          23          24
    1   2.0000000   2.0000000   2.0000000   1.9999705   1.9999557   1.9995967
           25          26          27          28          29          30
    1   1.9971024   1.9748946   1.7100574   1.0245229   0.6839785   0.6083804
           31          32          33          34          35          36
    1   0.0007422   0.0003852   0.0001462   0.0000540   0.0000484   0.0000365
           37          38          39
    1   0.0000264   0.0000250   0.0000221

 Head-Gordon Nu:    2.59
 Head-Gordon Nu_nl: 2.77

  Amplitudes : 
  
 | HOLE  | ALPHA | BETA  | PART  |    AMPLITUDE 
--------------------------------------------------
 |       | 1111  | 0110  |       |    -1.2202122336697E-01
 |  25   | 1111  | 1101  |       |     5.3846315486061E-01
 |       | 1110  | 1100  |  30   |    -8.2402082586825E-01
--------------------------------------------------
*** Contributions RASCI wfn    Active:   1.49
                                 Hole:  29.96
                                 Part:  68.55

      Mulliken population analysis 
 ---------------------------------------------------
   Atom    Charge (a.u.)   Spin (a.u.)  
 ---------------------------------------------------
   1  O   -0.150150        0.943586 
   2  C    0.516894        0.053355 
   3  C   -0.266722        0.239060 
   4  C   -0.266722        0.239060 
   5  C   -0.180023        0.245264 
   6  C   -0.180023        0.245264 
   7  C    0.352394        0.020194 
   8  O   -0.422529        0.004286 
   9  H    0.148454        0.002401 
  10  H    0.148454        0.002401 
  11  H    0.149986        0.002565 
  12  H    0.149986        0.002565 
 ---------------------------------------------------
   Sum:    0.000000        2.000000 
 ---------------------------------------------------
 
*** Unpaired Electrons
 Yamaguchi Nd:         3.30
  
**************************************************
 RAS-CI total energy for state   8:   -379.092118424926
  Excitation energy (eV) =  6.186725676855
  State symmetry: B1    (C2v      )
  <S^2>      :  2.0000
  Dipole Moment:    0.0000 X    -0.0000 Y     1.1271 Z
  Trans. Moment:   -0.0000 X    -0.0193 Y    -0.0000 Z
  Strength   :  0.000056
  Natural transition orbitals ( 1 -> 8 ):
   e-/hole pair  1 alpha:  ampl =  0.008399 (  0.0%)   [4 : 5]
   e-/hole pair  2 alpha:  ampl =  0.001057 (  0.0%)   [3 : 6]
   e-/hole pair  1 beta :  ampl =  0.805806 ( 64.9%)   [4 : 5]
   e-/hole pair  2 beta :  ampl =  0.009770 (  0.0%)   [3 : 6]
   Sum of square amplitudes: 0.65

 NATURAL OCCUPATION NUMBERS (higher than 1.0E-05)
            1           2           3           4           5           6
    1   2.0000000   2.0000000   2.0000000   2.0000000   2.0000000   2.0000000
            7           8           9          10          11          12
    1   2.0000000   2.0000000   2.0000000   2.0000000   2.0000000   2.0000000
           13          14          15          16          17          18
    1   2.0000000   2.0000000   2.0000000   2.0000000   2.0000000   2.0000000
           19          20          21          22          23          24
    1   2.0000000   2.0000000   2.0000000   2.0000000   1.9999988   1.9999881
           25          26          27          28          29          30
    1   1.9997971   1.9997219   1.9983116   1.0011766   0.9998435   0.0005754
           31          32          33          34          35
    1   0.0001827   0.0001634   0.0001373   0.0000752   0.0000185

 Head-Gordon Nu:    2.00
 Head-Gordon Nu_nl: 2.00

  Amplitudes : 
  
 | HOLE  | ALPHA | BETA  | PART  |    AMPLITUDE 
--------------------------------------------------
 |  25   | 1111  | 1110  |       |     7.8949215624663E-01
 |  25   | 1111  | 1011  |       |    -6.1280139354113E-01
--------------------------------------------------
*** Contributions RASCI wfn    Active:   0.00
                                 Hole:  99.88
                                 Part:   0.12

      Mulliken population analysis 
 ---------------------------------------------------
   Atom    Charge (a.u.)   Spin (a.u.)  
 ---------------------------------------------------
   1  O   -0.631461        0.534783 
   2  C    0.117109        0.021731 
   3  C   -0.004602        0.265956 
   4  C   -0.004602        0.265956 
   5  C    0.074975        0.370833 
   6  C    0.074975        0.370833 
   7  C    0.329461        0.080653 
   8  O   -0.558409        0.083262 
   9  H    0.149983        0.001260 
  10  H    0.149983        0.001260 
  11  H    0.151294        0.001736 
  12  H    0.151294        0.001736 
 ---------------------------------------------------
   Sum:    0.000000        2.000000 
 ---------------------------------------------------
 
*** Unpaired Electrons
 Yamaguchi Nd:         2.01
  
**************************************************
 RAS-CI total energy for state   9:   -379.091941229055
  Excitation energy (eV) =  6.191547421833
  State symmetry: A1    (C2v      )
  <S^2>      :  2.0000
  Dipole Moment:   -0.0000 X     0.0000 Y    -0.8610 Z
  Trans. Moment:   -0.0000 X    -0.0000 Y     0.0000 Z
  Strength   :  0.000000
  Natural transition orbitals ( 1 -> 9 ):
   e-/hole pair  1 alpha:  ampl =  0.008935 (  0.0%)   [4 : 5]
   e-/hole pair  2 alpha:  ampl =  0.005408 (  0.0%)   [3 : 6]
   e-/hole pair  1 beta :  ampl =  0.705765 ( 49.8%)   [4 : 5]
   e-/hole pair  2 beta :  ampl =  0.047716 (  0.2%)   [3 : 6]
   Sum of square amplitudes: 0.50

 NATURAL OCCUPATION NUMBERS (higher than 1.0E-05)
            1           2           3           4           5           6
    1   2.0000000   2.0000000   2.0000000   2.0000000   2.0000000   2.0000000
            7           8           9          10          11          12
    1   2.0000000   2.0000000   2.0000000   2.0000000   2.0000000   2.0000000
           13          14          15          16          17          18
    1   2.0000000   2.0000000   2.0000000   2.0000000   2.0000000   2.0000000
           19          20          21          22          23          24
    1   2.0000000   2.0000000   2.0000000   1.9999952   1.9999474   1.9988377
           25          26          27          28          29          30
    1   1.9978286   1.9946994   1.8921186   1.0608407   0.9827417   0.0653147
           31          32          33          34          35          36
    1   0.0050978   0.0019574   0.0004028   0.0000626   0.0000441   0.0000286
           37          38          39
    1   0.0000222   0.0000152   0.0000129

 Head-Gordon Nu:    2.11
 Head-Gordon Nu_nl: 2.05

  Amplitudes : 
  
 | HOLE  | ALPHA | BETA  | PART  |    AMPLITUDE 
--------------------------------------------------
 |       | 1111  | 1010  |       |     4.0622149281532E-01
 |  22   | 1111  | 1110  |       |    -1.1883146157994E-01
 |  23   | 1111  | 1110  |       |    -5.2147380919442E-01
 |  22   | 1111  | 1011  |       |     2.0968913028455E-01
 |  23   | 1111  | 1011  |       |     6.4862577718233E-01
 |       | 1110  | 1010  |  31   |     2.6403644536921E-01
--------------------------------------------------
*** Contributions RASCI wfn    Active:  16.50
                                 Hole:  75.08
                                 Part:   8.42

      Mulliken population analysis 
 ---------------------------------------------------
   Atom    Charge (a.u.)   Spin (a.u.)  
 ---------------------------------------------------
   1  O   -0.399865        0.737305 
   2  C    0.321002        0.416178 
   3  C   -0.023076        0.239036 
   4  C   -0.023076        0.239036 
   5  C   -0.145999        0.134198 
   6  C   -0.145999        0.134198 
   7  C    0.331384        0.040566 
   8  O   -0.517537        0.056790 
   9  H    0.150969        0.000597 
  10  H    0.150969        0.000597 
  11  H    0.150614        0.000750 
  12  H    0.150614        0.000750 
 ---------------------------------------------------
   Sum:    0.000000        2.000000 
 ---------------------------------------------------
 
*** Unpaired Electrons
 Yamaguchi Nd:         2.36
  
**************************************************
 RAS-CI total energy for state  10:   -379.072636499513
  Excitation energy (eV) =  6.716855839515
  State symmetry: A2    (C2v      )
  <S^2>      :  2.0000
  Dipole Moment:   -0.0000 X     0.0000 Y    -2.5980 Z
  Trans. Moment:    0.0000 X     0.0000 Y    -2.6184 Z
  Strength   :  1.128197
  Natural transition orbitals ( 1 -> 10 ):
   e-/hole pair  1 alpha:  ampl =  0.632823 ( 40.0%)   [4 : 5]
   e-/hole pair  2 alpha:  ampl =  0.040814 (  0.2%)   [3 : 6]
   e-/hole pair  1 beta :  ampl =  0.709641 ( 50.4%)   [4 : 5]
   e-/hole pair  2 beta :  ampl =  0.169456 (  2.9%)   [3 : 6]
   Sum of square amplitudes: 0.95

 NATURAL OCCUPATION NUMBERS (higher than 1.0E-05)
            1           2           3           4           5           6
    1   2.0000000   2.0000000   2.0000000   2.0000000   2.0000000   2.0000000
            7           8           9          10          11          12
    1   2.0000000   2.0000000   2.0000000   2.0000000   2.0000000   2.0000000
           13          14          15          16          17          18
    1   2.0000000   2.0000000   2.0000000   2.0000000   2.0000000   2.0000000
           19          20          21          22          23          24
    1   2.0000000   2.0000000   2.0000000   1.9999751   1.9999423   1.9949444
           25          26          27          28          29          30
    1   1.9523070   1.9467217   1.4883565   1.1374354   1.0501497   0.4129075
           31          32          33          34          35          36
    1   0.0064882   0.0036341   0.0032029   0.0023939   0.0010908   0.0001446
           37          38          39          40          41          42
    1   0.0000912   0.0000552   0.0000475   0.0000310   0.0000209   0.0000178
           43
    1   0.0000105

 Head-Gordon Nu:    2.86
 Head-Gordon Nu_nl: 2.99

  Amplitudes : 
  
 | HOLE  | ALPHA | BETA  | PART  |    AMPLITUDE 
--------------------------------------------------
 |       | 1111  | 1001  |       |     3.2817515763627E-01
 |  21   | 1111  | 1110  |       |    -1.2365916804003E-01
 |  22   | 1111  | 1101  |       |     2.6724256851949E-01
 |  23   | 1111  | 1101  |       |     5.6729412964210E-01
 |  21   | 1111  | 1011  |       |     1.2289209891104E-01
 |       | 1110  | 1100  |  31   |    -6.3402938201117E-01
--------------------------------------------------
*** Contributions RASCI wfn    Active:  10.97
                                 Hole:  44.92
                                 Part:  44.11

      Mulliken population analysis 
 ---------------------------------------------------
   Atom    Charge (a.u.)   Spin (a.u.)  
 ---------------------------------------------------
   1  O    0.021004        1.192291 
   2  C    0.274736        0.196022 
   3  C   -0.193782        0.128038 
   4  C   -0.193782        0.128038 
   5  C   -0.113042        0.066081 
   6  C   -0.113042        0.066081 
   7  C    0.212799        0.130440 
   8  O   -0.500475        0.080233 
   9  H    0.150017        0.003308 
  10  H    0.150017        0.003308 
  11  H    0.152775        0.003079 
  12  H    0.152775        0.003079 
 ---------------------------------------------------
   Sum:    0.000000        2.000000 
 ---------------------------------------------------
 
*** Unpaired Electrons
 Yamaguchi Nd:         3.64
  
**************************************************
 RAS-CI total energy for state  11:   -379.037374897828
  Excitation energy (eV) =  7.676372840065
  State symmetry: B1    (C2v      )
  <S^2>      :  2.0000
  Dipole Moment:   -0.0000 X    -0.0000 Y    -0.0271 Z
  Trans. Moment:   -0.0000 X     0.0083 Y    -0.0000 Z
  Strength   :  0.000013
  Natural transition orbitals ( 1 -> 11 ):
   e-/hole pair  1 alpha:  ampl =  0.993522 ( 98.7%)   [4 : 5]
   e-/hole pair  2 alpha:  ampl =  0.018667 (  0.0%)   [3 : 6]
   e-/hole pair  1 beta :  ampl =  0.016411 (  0.0%)   [4 : 5]
   e-/hole pair  2 beta :  ampl =  0.002052 (  0.0%)   [3 : 6]
   Sum of square amplitudes: 0.99

 NATURAL OCCUPATION NUMBERS (higher than 1.0E-05)
            1           2           3           4           5           6
    1   2.0000000   2.0000000   2.0000000   2.0000000   2.0000000   2.0000000
            7           8           9          10          11          12
    1   2.0000000   2.0000000   2.0000000   2.0000000   2.0000000   2.0000000
           13          14          15          16          17          18
    1   2.0000000   2.0000000   2.0000000   2.0000000   2.0000000   2.0000000
           19          20          21          22          23          24
    1   2.0000000   2.0000000   2.0000000   2.0000000   1.9999997   1.9999581
           25          26          27          28          29          30
    1   1.9998821   1.9997254   1.9948595   1.0002075   0.9985884   0.0056811
           31          32          33          34          35
    1   0.0008820   0.0001256   0.0000417   0.0000238   0.0000193

 Head-Gordon Nu:    2.01
 Head-Gordon Nu_nl: 2.00

  Amplitudes : 
  
 | HOLE  | ALPHA | BETA  | PART  |    AMPLITUDE 
--------------------------------------------------
 |       | 1110  | 1100  |  32   |     9.5467028039718E-01
 |       | 1110  | 1100  |  34   |     1.6756477917818E-01
 |       | 1110  | 1100  |  35   |    -1.1395909413028E-01
 |       | 1110  | 1100  |  43   |     1.2864437969590E-01
 |       | 1110  | 1100  |  51   |    -1.0281572299848E-01
--------------------------------------------------
*** Contributions RASCI wfn    Active:   0.00
                                 Hole:   0.03
                                 Part:  99.97

      Mulliken population analysis 
 ---------------------------------------------------
   Atom    Charge (a.u.)   Spin (a.u.)  
 ---------------------------------------------------
   1  O   -0.039338        0.911283 
   2  C    1.109779       -0.423820 
   3  C   -0.285729        0.120977 
   4  C   -0.285729        0.120977 
   5  C    0.453815       -0.416038 
   6  C    0.453815       -0.416038 
   7  C    0.182073        0.238207 
   8  O   -0.334673        0.004626 
   9  H   -0.598281        0.748592 
  10  H   -0.598281        0.748592 
  11  H   -0.028725        0.181321 
  12  H   -0.028725        0.181321 
 ---------------------------------------------------
   Sum:    0.000000        2.000000 
 ---------------------------------------------------
 
*** Unpaired Electrons
 Yamaguchi Nd:         2.02
  
**************************************************
 RAS-CI total energy for state  12:   -379.031009671232
  Excitation energy (eV) =  7.849579468240
  State symmetry: B1    (C2v      )
  <S^2>      :  2.0000
  Dipole Moment:    0.0000 X     0.0000 Y     0.8423 Z
  Trans. Moment:    0.0000 X     0.0987 Y     0.0000 Z
  Strength   :  0.001874
  Natural transition orbitals ( 1 -> 12 ):
   e-/hole pair  1 alpha:  ampl =  0.991388 ( 98.3%)   [4 : 5]
   e-/hole pair  2 alpha:  ampl =  0.030926 (  0.1%)   [3 : 6]
   e-/hole pair  1 beta :  ampl =  0.040373 (  0.2%)   [4 : 5]
   e-/hole pair  2 beta :  ampl =  0.019273 (  0.0%)   [3 : 6]
   Sum of square amplitudes: 0.99

 NATURAL OCCUPATION NUMBERS (higher than 1.0E-05)
            1           2           3           4           5           6
    1   2.0000000   2.0000000   2.0000000   2.0000000   2.0000000   2.0000000
            7           8           9          10          11          12
    1   2.0000000   2.0000000   2.0000000   2.0000000   2.0000000   2.0000000
           13          14          15          16          17          18
    1   2.0000000   2.0000000   2.0000000   2.0000000   2.0000000   2.0000000
           19          20          21          22          23          24
    1   2.0000000   2.0000000   2.0000000   2.0000000   1.9999999   1.9999658
           25          26          27          28          29          30
    1   1.9997807   1.9983481   1.9919243   1.0004057   0.9949571   0.0112518
           31          32          33          34          35          36
    1   0.0025396   0.0003279   0.0002841   0.0000671   0.0000666   0.0000342
           37          38
    1   0.0000244   0.0000199

 Head-Gordon Nu:    2.02
 Head-Gordon Nu_nl: 2.00

  Amplitudes : 
  
 | HOLE  | ALPHA | BETA  | PART  |    AMPLITUDE 
--------------------------------------------------
 |       | 1110  | 1100  |  34   |     6.9867409369169E-01
 |       | 1110  | 1100  |  35   |     6.8430864472250E-01
 |       | 1110  | 1100  |  38   |     1.1365345249966E-01
--------------------------------------------------
*** Contributions RASCI wfn    Active:   0.01
                                 Hole:   0.16
                                 Part:  99.83

      Mulliken population analysis 
 ---------------------------------------------------
   Atom    Charge (a.u.)   Spin (a.u.)  
 ---------------------------------------------------
   1  O    0.411895        0.460133 
   2  C    1.223409       -0.537300 
   3  C   -1.549692        1.385778 
   4  C   -1.549692        1.385778 
   5  C    0.743008       -0.705924 
   6  C    0.743008       -0.705924 
   7  C   -0.109382        0.529226 
   8  O   -0.319497       -0.011002 
   9  H    0.097605        0.052728 
  10  H    0.097605        0.052728 
  11  H    0.105866        0.046889 
  12  H    0.105866        0.046889 
 ---------------------------------------------------
   Sum:    0.000000        2.000000 
 ---------------------------------------------------
 
*** Unpaired Electrons
 Yamaguchi Nd:         2.05
  
**************************************************
 RAS-CI total energy for state  13:   -379.027118081241
  Excitation energy (eV) =  7.955475019691
  State symmetry: A2    (C2v      )
  <S^2>      :  2.0000
  Dipole Moment:   -0.0000 X    -0.0000 Y     0.9957 Z
  Trans. Moment:   -0.0000 X    -0.0000 Y     1.2475 Z
  Strength   :  0.303346
  Natural transition orbitals ( 1 -> 13 ):
   e-/hole pair  1 alpha:  ampl =  0.307352 (  9.4%)   [4 : 5]
   e-/hole pair  2 alpha:  ampl =  0.022704 (  0.1%)   [3 : 6]
   e-/hole pair  1 beta :  ampl =  0.811987 ( 65.9%)   [4 : 5]
   e-/hole pair  2 beta :  ampl =  0.327573 ( 10.7%)   [3 : 6]
   Sum of square amplitudes: 0.87

 NATURAL OCCUPATION NUMBERS (higher than 1.0E-05)
            1           2           3           4           5           6
    1   2.0000000   2.0000000   2.0000000   2.0000000   2.0000000   2.0000000
            7           8           9          10          11          12
    1   2.0000000   2.0000000   2.0000000   2.0000000   2.0000000   2.0000000
           13          14          15          16          17          18
    1   2.0000000   2.0000000   2.0000000   2.0000000   2.0000000   2.0000000
           19          20          21          22          23          24
    1   2.0000000   2.0000000   2.0000000   1.9999912   1.9982319   1.9969326
           25          26          27          28          29          30
    1   1.9487252   1.7887643   1.6303840   1.3143558   1.2138320   0.1035942
           31          32          33          34          35          36
    1   0.0022474   0.0012769   0.0004708   0.0004629   0.0003459   0.0001666
           37          38          39          40          41          42
    1   0.0000805   0.0000248   0.0000196   0.0000189   0.0000172   0.0000143
           43
    1   0.0000107

 Head-Gordon Nu:    2.22
 Head-Gordon Nu_nl: 2.28

  Amplitudes : 
  
 | HOLE  | ALPHA | BETA  | PART  |    AMPLITUDE 
--------------------------------------------------
 |       | 1111  | 1001  |       |     2.6200273797769E-01
 |  21   | 1111  | 1110  |       |    -1.4743876458578E-01
 |  24   | 1111  | 1110  |       |    -2.5702724374369E-01
 |  22   | 1111  | 1101  |       |     6.9211094654552E-01
 |  23   | 1111  | 1101  |       |    -3.3823938433388E-01
 |  21   | 1111  | 1011  |       |     1.1406667475072E-01
 |  24   | 1111  | 1011  |       |     3.2773906380161E-01
 |       | 1110  | 1100  |  31   |     2.8675615571854E-01
--------------------------------------------------
*** Contributions RASCI wfn    Active:   6.90
                                 Hole:  82.14
                                 Part:  10.96

      Mulliken population analysis 
 ---------------------------------------------------
   Atom    Charge (a.u.)   Spin (a.u.)  
 ---------------------------------------------------
   1  O   -0.191778        0.966259 
   2  C    0.155401        0.105970 
   3  C   -0.242907        0.052890 
   4  C   -0.242907        0.052890 
   5  C   -0.198379        0.066249 
   6  C   -0.198379        0.066249 
   7  C    0.493596        0.246674 
   8  O   -0.200447        0.411872 
   9  H    0.157363        0.009416 
  10  H    0.157363        0.009416 
  11  H    0.155538        0.006059 
  12  H    0.155538        0.006059 
 ---------------------------------------------------
   Sum:    0.000000        2.000000 
 ---------------------------------------------------
 
*** Unpaired Electrons
 Yamaguchi Nd:         3.15
  
**************************************************
 RAS-CI total energy for state  14:   -379.017396627696
  Excitation energy (eV) =  8.220009229714
  State symmetry: A2    (C2v      )
  <S^2>      :  2.0000
  Dipole Moment:   -0.0000 X     0.0000 Y     2.7598 Z
  Trans. Moment:    0.0000 X     0.0000 Y    -0.0838 Z
  Strength   :  0.001415
  Natural transition orbitals ( 1 -> 14 ):
   e-/hole pair  1 alpha:  ampl =  0.124286 (  1.5%)   [4 : 5]
   e-/hole pair  2 alpha:  ampl =  0.014814 (  0.0%)   [3 : 6]
   e-/hole pair  1 beta :  ampl =  0.537907 ( 28.9%)   [4 : 5]
   e-/hole pair  2 beta :  ampl =  0.468096 ( 21.9%)   [3 : 6]
   Sum of square amplitudes: 0.53

 NATURAL OCCUPATION NUMBERS (higher than 1.0E-05)
            1           2           3           4           5           6
    1   2.0000000   2.0000000   2.0000000   2.0000000   2.0000000   2.0000000
            7           8           9          10          11          12
    1   2.0000000   2.0000000   2.0000000   2.0000000   2.0000000   2.0000000
           13          14          15          16          17          18
    1   2.0000000   2.0000000   2.0000000   2.0000000   2.0000000   2.0000000
           19          20          21          22          23          24
    1   2.0000000   2.0000000   2.0000000   1.9999775   1.9991500   1.9920635
           25          26          27          28          29          30
    1   1.9742200   1.7802348   1.7612779   1.2463749   1.2278885   0.0161206
           31          32          33          34          35          36
    1   0.0013354   0.0006987   0.0003715   0.0001260   0.0000542   0.0000288
           37          38
    1   0.0000276   0.0000104

 Head-Gordon Nu:    2.04
 Head-Gordon Nu_nl: 2.11

  Amplitudes : 
  
 | HOLE  | ALPHA | BETA  | PART  |    AMPLITUDE 
--------------------------------------------------
 |  24   | 1111  | 1110  |       |    -5.0266038986562E-01
 |  22   | 1111  | 1101  |       |    -4.6488056402143E-01
 |  24   | 1111  | 1011  |       |     7.0114112825777E-01
--------------------------------------------------
*** Contributions RASCI wfn    Active:   0.15
                                 Hole:  97.97
                                 Part:   1.88

      Mulliken population analysis 
 ---------------------------------------------------
   Atom    Charge (a.u.)   Spin (a.u.)  
 ---------------------------------------------------
   1  O   -0.379487        0.785887 
   2  C    0.104998        0.008933 
   3  C   -0.242627        0.034255 
   4  C   -0.242627        0.034255 
   5  C   -0.122437        0.170078 
   6  C   -0.122437        0.170078 
   7  C    0.440094        0.191638 
   8  O   -0.077084        0.559569 
   9  H    0.162965        0.014358 
  10  H    0.162965        0.014358 
  11  H    0.157839        0.008296 
  12  H    0.157839        0.008296 
 ---------------------------------------------------
   Sum:    0.000000        2.000000 
 ---------------------------------------------------
 
*** Unpaired Electrons
 Yamaguchi Nd:         2.80
  
**************************************************
 RAS-CI total energy for state  15:   -379.015873258514
  Excitation energy (eV) =  8.261462214219
  State symmetry: A1    (C2v      )
  <S^2>      :  2.0000
  Dipole Moment:    0.0000 X    -0.0000 Y    -1.1093 Z
  Trans. Moment:   -0.0000 X     0.0000 Y    -0.0000 Z
  Strength   :  0.000000
  Natural transition orbitals ( 1 -> 15 ):
   e-/hole pair  1 alpha:  ampl =  0.154563 (  2.4%)   [4 : 5]
   e-/hole pair  2 alpha:  ampl =  0.004421 (  0.0%)   [3 : 6]
   e-/hole pair  1 beta :  ampl =  0.983014 ( 96.6%)   [4 : 5]
   e-/hole pair  2 beta :  ampl =  0.029574 (  0.1%)   [3 : 6]
   Sum of square amplitudes: 0.99

 NATURAL OCCUPATION NUMBERS (higher than 1.0E-05)
            1           2           3           4           5           6
    1   2.0000000   2.0000000   2.0000000   2.0000000   2.0000000   2.0000000
            7           8           9          10          11          12
    1   2.0000000   2.0000000   2.0000000   2.0000000   2.0000000   2.0000000
           13          14          15          16          17          18
    1   2.0000000   2.0000000   2.0000000   2.0000000   2.0000000   2.0000000
           19          20          21          22          23          24
    1   2.0000000   2.0000000   2.0000000   2.0000000   1.9999894   1.9999777
           25          26          27          28          29          30
    1   1.9997863   1.9979474   1.9497439   1.0262832   1.0000588   0.0241618
           31          32          33
    1   0.0019111   0.0000692   0.0000305

 Head-Gordon Nu:    2.05
 Head-Gordon Nu_nl: 2.01

  Amplitudes : 
  
 | HOLE  | ALPHA | BETA  | PART  |    AMPLITUDE 
--------------------------------------------------
 |  14   | 1111  | 1101  |       |     1.0970058558843E-01
 |  21   | 1111  | 1101  |       |     9.7833943263284E-01
 |       | 1110  | 1100  |  33   |    -1.5088160103848E-01
--------------------------------------------------
*** Contributions RASCI wfn    Active:   0.00
                                 Hole:  97.38
                                 Part:   2.62

      Mulliken population analysis 
 ---------------------------------------------------
   Atom    Charge (a.u.)   Spin (a.u.)  
 ---------------------------------------------------
   1  O   -0.203947        0.959757 
   2  C    0.270936        0.163915 
   3  C   -0.159151        0.089723 
   4  C   -0.159151        0.089723 
   5  C   -0.183881        0.092516 
   6  C   -0.183881        0.092516 
   7  C    0.338586        0.090196 
   8  O   -0.486698        0.147158 
   9  H    0.169550        0.050057 
  10  H    0.169550        0.050057 
  11  H    0.214044        0.087190 
  12  H    0.214044        0.087190 
 ---------------------------------------------------
   Sum:   -0.000000        2.000000 
 ---------------------------------------------------
 
*** Unpaired Electrons
 Yamaguchi Nd:         2.15
  
**************************************************
 RAS-CI total energy for state  16:   -379.012625397833
  Excitation energy (eV) =  8.349840999932
  State symmetry: A1    (C2v      )
  <S^2>      :  2.0000
  Dipole Moment:    0.0000 X     0.0000 Y    -0.4863 Z
  Trans. Moment:   -0.0000 X     0.0000 Y    -0.0000 Z
  Strength   :  0.000000
  Natural transition orbitals ( 1 -> 16 ):
   e-/hole pair  1 alpha:  ampl =  0.982053 ( 96.4%)   [4 : 5]
   e-/hole pair  2 alpha:  ampl =  0.010073 (  0.0%)   [3 : 6]
   e-/hole pair  1 beta :  ampl =  0.154234 (  2.4%)   [4 : 5]
   e-/hole pair  2 beta :  ampl =  0.003368 (  0.0%)   [3 : 6]
   Sum of square amplitudes: 0.99

 NATURAL OCCUPATION NUMBERS (higher than 1.0E-05)
            1           2           3           4           5           6
    1   2.0000000   2.0000000   2.0000000   2.0000000   2.0000000   2.0000000
            7           8           9          10          11          12
    1   2.0000000   2.0000000   2.0000000   2.0000000   2.0000000   2.0000000
           13          14          15          16          17          18
    1   2.0000000   2.0000000   2.0000000   2.0000000   2.0000000   2.0000000
           19          20          21          22          23          24
    1   2.0000000   2.0000000   2.0000000   1.9999998   1.9999995   1.9999928
           25          26          27          28          29          30
    1   1.9998763   1.9957726   1.9760298   1.0000690   0.9756809   0.0522383
           31          32          33          34          35
    1   0.0002437   0.0000453   0.0000173   0.0000165   0.0000133

 Head-Gordon Nu:    2.06
 Head-Gordon Nu_nl: 2.01

  Amplitudes : 
  
 | HOLE  | ALPHA | BETA  | PART  |    AMPLITUDE 
--------------------------------------------------
 |  21   | 1111  | 1101  |       |    -1.5339270389721E-01
 |       | 1110  | 1100  |  33   |    -9.7372981324905E-01
--------------------------------------------------
*** Contributions RASCI wfn    Active:   0.00
                                 Hole:   2.40
                                 Part:  97.60

      Mulliken population analysis 
 ---------------------------------------------------
   Atom    Charge (a.u.)   Spin (a.u.)  
 ---------------------------------------------------
   1  O   -0.089393        0.960735 
   2  C    0.596304        0.081160 
   3  C    0.297888       -0.460411 
   4  C    0.297888       -0.460411 
   5  C    0.230034       -0.195321 
   6  C    0.230034       -0.195321 
   7  C    0.334786        0.086074 
   8  O   -0.332158        0.001851 
   9  H   -0.558329        0.710570 
  10  H   -0.558329        0.710570 
  11  H   -0.224362        0.380253 
  12  H   -0.224362        0.380253 
 ---------------------------------------------------
   Sum:   -0.000000        2.000000 
 ---------------------------------------------------
 
*** Unpaired Electrons
 Yamaguchi Nd:         2.16
  
**************************************************
 RAS-CI total energy for state  17:   -379.001565633256
  Excitation energy (eV) =  8.650792505993
  State symmetry: B1    (C2v      )
  <S^2>      :  2.0000
  Dipole Moment:    0.0000 X    -0.0000 Y    -2.3708 Z
  Trans. Moment:   -0.0000 X    -0.2556 Y     0.0000 Z
  Strength   :  0.013848
  Natural transition orbitals ( 1 -> 17 ):
   e-/hole pair  1 alpha:  ampl =  0.986136 ( 97.2%)   [4 : 5]
   e-/hole pair  2 alpha:  ampl =  0.020918 (  0.0%)   [3 : 6]
   e-/hole pair  1 beta :  ampl =  0.047574 (  0.2%)   [4 : 5]
   e-/hole pair  2 beta :  ampl =  0.020325 (  0.0%)   [3 : 6]
   Sum of square amplitudes: 0.98

 NATURAL OCCUPATION NUMBERS (higher than 1.0E-05)
            1           2           3           4           5           6
    1   2.0000000   2.0000000   2.0000000   2.0000000   2.0000000   2.0000000
            7           8           9          10          11          12
    1   2.0000000   2.0000000   2.0000000   2.0000000   2.0000000   2.0000000
           13          14          15          16          17          18
    1   2.0000000   2.0000000   2.0000000   2.0000000   2.0000000   2.0000000
           19          20          21          22          23          24
    1   2.0000000   2.0000000   2.0000000   2.0000000   1.9999945   1.9997881
           25          26          27          28          29          30
    1   1.9986585   1.9977116   1.9827779   1.0125291   0.9837836   0.0121669
           31          32          33          34          35          36
    1   0.0111692   0.0012253   0.0000775   0.0000526   0.0000218   0.0000208

 Head-Gordon Nu:    2.02
 Head-Gordon Nu_nl: 2.00

  Amplitudes : 
  
 | HOLE  | ALPHA | BETA  | PART  |    AMPLITUDE 
--------------------------------------------------
 |       | 1110  | 1100  |  32   |     2.1059003351488E-01
 |       | 1110  | 1100  |  34   |    -6.2018847540994E-01
 |       | 1110  | 1100  |  35   |     6.2031987599956E-01
 |       | 1110  | 1100  |  37   |     3.8553394002912E-01
 |       | 1110  | 1010  |  30   |     1.0491243615407E-01
--------------------------------------------------
*** Contributions RASCI wfn    Active:   0.01
                                 Hole:   0.35
                                 Part:  99.64

      Mulliken population analysis 
 ---------------------------------------------------
   Atom    Charge (a.u.)   Spin (a.u.)  
 ---------------------------------------------------
   1  O    0.028816        0.844533 
   2  C   -0.606018        1.287597 
   3  C    1.585194       -1.749626 
   4  C    1.585194       -1.749626 
   5  C   -1.857691        1.896773 
   6  C   -1.857691        1.896773 
   7  C    2.092977       -1.672117 
   8  O   -0.029016       -0.302041 
   9  H   -0.084032        0.234416 
  10  H   -0.084032        0.234416 
  11  H   -0.386849        0.539451 
  12  H   -0.386849        0.539451 
 ---------------------------------------------------
   Sum:   -0.000000        2.000000 
 ---------------------------------------------------
 
*** Unpaired Electrons
 Yamaguchi Nd:         2.09
  
**************************************************
 RAS-CI total energy for state  18:   -378.998621719275
  Excitation energy (eV) =  8.730900481195
  State symmetry: B1    (C2v      )
  <S^2>      :  2.0000
  Dipole Moment:    0.0000 X     0.0000 Y    -0.6973 Z
  Trans. Moment:    0.0000 X     0.0207 Y     0.0000 Z
  Strength   :  0.000092
  Natural transition orbitals ( 1 -> 18 ):
   e-/hole pair  1 alpha:  ampl =  0.110932 (  1.2%)   [4 : 5]
   e-/hole pair  2 alpha:  ampl =  0.036335 (  0.1%)   [3 : 6]
   e-/hole pair  1 beta :  ampl =  0.190542 (  3.6%)   [4 : 5]
   e-/hole pair  2 beta :  ampl =  0.050129 (  0.3%)   [3 : 6]
   Sum of square amplitudes: 0.05

 NATURAL OCCUPATION NUMBERS (higher than 1.0E-05)
            1           2           3           4           5           6
    1   2.0000000   2.0000000   2.0000000   2.0000000   2.0000000   2.0000000
            7           8           9          10          11          12
    1   2.0000000   2.0000000   2.0000000   2.0000000   2.0000000   2.0000000
           13          14          15          16          17          18
    1   2.0000000   2.0000000   2.0000000   2.0000000   2.0000000   2.0000000
           19          20          21          22          23          24
    1   2.0000000   2.0000000   2.0000000   2.0000000   1.9999952   1.9993747
           25          26          27          28          29          30
    1   1.9974473   1.9817448   1.8886250   1.0527086   0.8725793   0.1940153
           31          32          33          34          35          36
    1   0.0125357   0.0004024   0.0003827   0.0000602   0.0000429   0.0000311
           37
    1   0.0000311

 Head-Gordon Nu:    2.16
 Head-Gordon Nu_nl: 2.13

  Amplitudes : 
  
 | HOLE  | ALPHA | BETA  | PART  |    AMPLITUDE 
--------------------------------------------------
 |  25   | 1111  | 1110  |       |     2.0008169321042E-01
 |  25   | 1111  | 1011  |       |     2.6709990713699E-01
 |       | 1110  | 1010  |  30   |     9.2653207316577E-01
--------------------------------------------------
*** Contributions RASCI wfn    Active:   0.01
                                 Hole:  11.38
                                 Part:  88.61

      Mulliken population analysis 
 ---------------------------------------------------
   Atom    Charge (a.u.)   Spin (a.u.)  
 ---------------------------------------------------
   1  O   -0.362602        0.641120 
   2  C    0.780452        0.289824 
   3  C   -0.307058        0.235085 
   4  C   -0.307058        0.235085 
   5  C   -0.213066        0.275014 
   6  C   -0.213066        0.275014 
   7  C    0.406908        0.005687 
   8  O   -0.352465        0.009096 
   9  H    0.141882        0.007561 
  10  H    0.141882        0.007561 
  11  H    0.142096        0.009477 
  12  H    0.142096        0.009477 
 ---------------------------------------------------
   Sum:    0.000000        2.000000 
 ---------------------------------------------------
 
*** Unpaired Electrons
 Yamaguchi Nd:         2.61
  
**************************************************
 RAS-CI total energy for state  19:   -378.994973403327
  Excitation energy (eV) =  8.830176209114
  State symmetry: B1    (C2v      )
  <S^2>      :  2.0000
  Dipole Moment:    0.0000 X    -0.0000 Y    -1.1770 Z
  Trans. Moment:    0.0000 X     0.0214 Y    -0.0000 Z
  Strength   :  0.000099
  Natural transition orbitals ( 1 -> 19 ):
   e-/hole pair  1 alpha:  ampl =  0.087669 (  0.8%)   [4 : 5]
   e-/hole pair  2 alpha:  ampl =  0.007430 (  0.0%)   [3 : 6]
   e-/hole pair  1 beta :  ampl =  0.983619 ( 96.8%)   [4 : 5]
   e-/hole pair  2 beta :  ampl =  0.067551 (  0.5%)   [3 : 6]
   Sum of square amplitudes: 0.98

 NATURAL OCCUPATION NUMBERS (higher than 1.0E-05)
            1           2           3           4           5           6
    1   2.0000000   2.0000000   2.0000000   2.0000000   2.0000000   2.0000000
            7           8           9          10          11          12
    1   2.0000000   2.0000000   2.0000000   2.0000000   2.0000000   2.0000000
           13          14          15          16          17          18
    1   2.0000000   2.0000000   2.0000000   2.0000000   2.0000000   2.0000000
           19          20          21          22          23          24
    1   2.0000000   2.0000000   2.0000000   2.0000000   1.9999230   1.9978162
           25          26          27          28          29          30
    1   1.9967288   1.9841007   1.9700337   1.0251560   1.0033028   0.0102736
           31          32          33          34          35          36
    1   0.0077958   0.0020475   0.0009335   0.0008571   0.0008490   0.0000876
           37          38          39          40          41
    1   0.0000281   0.0000207   0.0000127   0.0000122   0.0000119

 Head-Gordon Nu:    2.05
 Head-Gordon Nu_nl: 2.00

  Amplitudes : 
  
 | HOLE  | ALPHA | BETA  | PART  |    AMPLITUDE 
--------------------------------------------------
 |       | 1111  | 0101  |       |    -1.5465143973239E-01
 |  19   | 1111  | 1101  |       |     2.6183513138796E-01
 |  20   | 1111  | 1101  |       |     9.3738077436554E-01
--------------------------------------------------
*** Contributions RASCI wfn    Active:   2.39
                                 Hole:  95.28
                                 Part:   2.32

      Mulliken population analysis 
 ---------------------------------------------------
   Atom    Charge (a.u.)   Spin (a.u.)  
 ---------------------------------------------------
   1  O   -0.093707        1.080242 
   2  C    0.170381        0.089031 
   3  C   -0.148797        0.110667 
   4  C   -0.148797        0.110667 
   5  C   -0.175431        0.128959 
   6  C   -0.175431        0.128959 
   7  C    0.326947        0.056278 
   8  O   -0.430249        0.200905 
   9  H    0.157035        0.012609 
  10  H    0.157035        0.012609 
  11  H    0.180507        0.034537 
  12  H    0.180507        0.034537 
 ---------------------------------------------------
   Sum:    0.000000        2.000000 
 ---------------------------------------------------
 
*** Unpaired Electrons
 Yamaguchi Nd:         2.15
  
**************************************************
 RAS-CI total energy for state  20:   -378.991632669221
  Excitation energy (eV) =  8.921082209308
  State symmetry: A2    (C2v      )
  <S^2>      :  2.0000
  Dipole Moment:    0.0000 X    -0.0000 Y    -1.8297 Z
  Trans. Moment:   -0.0000 X    -0.0000 Y    -0.5778 Z
  Strength   :  0.072974
  Natural transition orbitals ( 1 -> 20 ):
   e-/hole pair  1 alpha:  ampl =  0.452926 ( 20.5%)   [4 : 5]
   e-/hole pair  2 alpha:  ampl =  0.061297 (  0.4%)   [3 : 6]
   e-/hole pair  1 beta :  ampl =  0.776148 ( 60.2%)   [4 : 5]
   e-/hole pair  2 beta :  ampl =  0.264331 (  7.0%)   [3 : 6]
   Sum of square amplitudes: 0.89

 NATURAL OCCUPATION NUMBERS (higher than 1.0E-05)
            1           2           3           4           5           6
    1   2.0000000   2.0000000   2.0000000   2.0000000   2.0000000   2.0000000
            7           8           9          10          11          12
    1   2.0000000   2.0000000   2.0000000   2.0000000   2.0000000   2.0000000
           13          14          15          16          17          18
    1   2.0000000   2.0000000   2.0000000   2.0000000   2.0000000   2.0000000
           19          20          21          22          23          24
    1   2.0000000   2.0000000   2.0000000   1.9999995   1.9976227   1.9962955
           25          26          27          28          29          30
    1   1.9737091   1.8986723   1.5160687   1.2834476   1.1044445   0.2075307
           31          32          33          34          35          36
    1   0.0180857   0.0016202   0.0007573   0.0007076   0.0003678   0.0002498
           37          38          39          40          41          42
    1   0.0001019   0.0000810   0.0000616   0.0000410   0.0000350   0.0000239
           43          44          45
    1   0.0000186   0.0000164   0.0000131

 Head-Gordon Nu:    2.46
 Head-Gordon Nu_nl: 2.54

  Amplitudes : 
  
 | HOLE  | ALPHA | BETA  | PART  |    AMPLITUDE 
--------------------------------------------------
 |       | 1111  | 1001  |       |    -6.6235065586210E-01
 |  16   | 1111  | 1110  |       |     1.1265469881577E-01
 |  21   | 1111  | 1110  |       |     1.8656112054210E-01
 |  22   | 1111  | 1101  |       |     3.6451431581414E-01
 |  23   | 1111  | 1101  |       |     1.5595301271435E-01
 |  21   | 1111  | 1011  |       |    -1.8774640189387E-01
 |  24   | 1111  | 1011  |       |     2.0190984812240E-01
 |       | 1110  | 1100  |  31   |    -1.5677470300869E-01
 |       | 1110  | 1100  |  39   |    -4.0881970111099E-01
 |       | 1110  | 1001  |  31   |    -1.4991596971091E-01
--------------------------------------------------
*** Contributions RASCI wfn    Active:  43.91
[...]
 Total mean-field SOC matrix (cm-1): < B(S,Sz) | Hsomf | A(S',Sz') >
                       |Sz'=-1.00>                |Sz'= 0.00>                |Sz'= 1.00>
 <Sz=-1.00|     -0.000000      0.000000i       0.000000     -0.789560i       0.000000     -0.000000i
 <Sz= 0.00|     -0.000000     -0.789560i      -0.000000      0.000000i       0.000000     -0.789560i
 <Sz= 1.00|      0.000000      0.000000i      -0.000000     -0.789560i      -0.000000     -0.000000i
Mean-Field SOCC =     1.579119371 cm-1
   
**************************************************
State A: Root 30
State B: Root 28
  
Angular momentum components (a.u.)
< B | Lx | A > =    -0.000000000i
< B | Ly | A > =    -0.014239923i
< B | Lz | A > =    -0.000000000i
  
Norm of one-particle transition density matrix
||gamma^AB||_total       =  0.056996
||gamma^AB||_symmetrized =  0.040308
||gamma^AB||_anti-symm   =  0.040297
  
Spin-orbit couplings
 Using HF (reference) density for the 2-elec mean-field SOC contribution
KET: S',Sz' (Root  30) =  1.000 1.000
BRA: S ,Sz  (Root  28) =  1.000 1.000
Clebsh-Gordan coefficient: < 1.000, 1.000; 1.000, 0.000| 1.000, 1.000> =  0.707
 Reading 1e-SO integrals
 1e Reduced matrix elements (cm-1)
<S|| Hso(L-) ||S'> =     0.1198747002    -0.0000000000i
<S|| Hso(L0) ||S'> =     0.0000000000     0.0000000000i
<S|| Hso(L+) ||S'> =     0.1198747002     0.0000000000i
 1-elec SOC matrix (cm-1): < B(S,Sz) | Hso(1e) | A(S',Sz') >
                       |Sz'=-1.00>                |Sz'= 0.00>                |Sz'= 1.00>
 <Sz=-1.00|     -0.000000     -0.000000i       0.084764      0.000000i       0.000000      0.000000i
 <Sz= 0.00|     -0.084764      0.000000i      -0.000000     -0.000000i       0.084764      0.000000i
 <Sz= 1.00|      0.000000     -0.000000i      -0.084764      0.000000i      -0.000000      0.000000i
1-elec SOCC =     0.169528427 cm-1
 Reading 2e-SOMF integrals
 2e-SOMF Reduced matrix elements (cm-1)
<S|| Hso(L-) ||S'> =    -0.0340812050     0.0000000000i
<S|| Hso(L0) ||S'> =     0.0000000000    -0.0000000000i
<S|| Hso(L+) ||S'> =    -0.0340812050    -0.0000000000i
 2-elec mean-field SOC matrix (cm-1): < B(S,Sz) | Hso(2e-mf) | A(S',Sz') >
                       |Sz'=-1.00>                |Sz'= 0.00>                |Sz'= 1.00>
 <Sz=-1.00|      0.000000      0.000000i      -0.024099     -0.000000i      -0.000000     -0.000000i
 <Sz= 0.00|      0.024099     -0.000000i       0.000000      0.000000i      -0.024099     -0.000000i
 <Sz= 1.00|     -0.000000      0.000000i       0.024099     -0.000000i       0.000000     -0.000000i
 Total mean-field SOC matrix (cm-1): < B(S,Sz) | Hsomf | A(S',Sz') >
                       |Sz'=-1.00>                |Sz'= 0.00>                |Sz'= 1.00>
 <Sz=-1.00|     -0.000000     -0.000000i       0.060665      0.000000i       0.000000      0.000000i
 <Sz= 0.00|     -0.060665      0.000000i      -0.000000     -0.000000i       0.060665      0.000000i
 <Sz= 1.00|      0.000000     -0.000000i      -0.060665      0.000000i      -0.000000      0.000000i
Mean-Field SOCC =     0.121330325 cm-1
   
**************************************************
State A: Root 30
State B: Root 29
  
Angular momentum components (a.u.)
< B | Lx | A > =     0.187281044i
< B | Ly | A > =    -0.000000000i
< B | Lz | A > =     0.000000000i
  
Norm of one-particle transition density matrix
||gamma^AB||_total       =  0.963431
||gamma^AB||_symmetrized =  0.681264
||gamma^AB||_anti-symm   =  0.681232
  
Spin-orbit couplings
 Using HF (reference) density for the 2-elec mean-field SOC contribution
KET: S',Sz' (Root  30) =  1.000 1.000
BRA: S ,Sz  (Root  29) =  1.000 1.000
Clebsh-Gordan coefficient: < 1.000, 1.000; 1.000, 0.000| 1.000, 1.000> =  0.707
 Reading 1e-SO integrals
 1e Reduced matrix elements (cm-1)
<S|| Hso(L-) ||S'> =    -0.0000000005    -0.8592409570i
<S|| Hso(L0) ||S'> =     0.0000000000     0.0000000005i
<S|| Hso(L+) ||S'> =    -0.0000000005     0.8592409570i
 1-elec SOC matrix (cm-1): < B(S,Sz) | Hso(1e) | A(S',Sz') >
                       |Sz'=-1.00>                |Sz'= 0.00>                |Sz'= 1.00>
 <Sz=-1.00|      0.000000     -0.000000i      -0.000000      0.607575i      -0.000000      0.000000i
 <Sz= 0.00|      0.000000      0.607575i       0.000000     -0.000000i      -0.000000      0.607575i
 <Sz= 1.00|     -0.000000     -0.000000i       0.000000      0.607575i       0.000000      0.000000i
1-elec SOCC =     1.215150215 cm-1
 Reading 2e-SOMF integrals
 2e-SOMF Reduced matrix elements (cm-1)
<S|| Hso(L-) ||S'> =     0.0000000002     0.3359166658i
<S|| Hso(L0) ||S'> =     0.0000000000    -0.0000000003i
<S|| Hso(L+) ||S'> =     0.0000000002    -0.3359166658i
 2-elec mean-field SOC matrix (cm-1): < B(S,Sz) | Hso(2e-mf) | A(S',Sz') >
                       |Sz'=-1.00>                |Sz'= 0.00>                |Sz'= 1.00>
 <Sz=-1.00|     -0.000000      0.000000i       0.000000     -0.237529i       0.000000     -0.000000i
 <Sz= 0.00|     -0.000000     -0.237529i      -0.000000      0.000000i       0.000000     -0.237529i
 <Sz= 1.00|      0.000000      0.000000i      -0.000000     -0.237529i      -0.000000     -0.000000i
 Total mean-field SOC matrix (cm-1): < B(S,Sz) | Hsomf | A(S',Sz') >
                       |Sz'=-1.00>                |Sz'= 0.00>                |Sz'= 1.00>
 <Sz=-1.00|      0.000000     -0.000000i      -0.000000      0.370046i      -0.000000      0.000000i
 <Sz= 0.00|      0.000000      0.370046i       0.000000     -0.000000i      -0.000000      0.370046i
 <Sz= 1.00|     -0.000000     -0.000000i       0.000000      0.370046i       0.000000      0.000000i
Mean-Field SOCC =     0.740092310 cm-1
   
**************************************************
RAS-CI timing summary (seconds)
  CPU time       1129.56s
  System time       0.01s
  Wall time      1240.35s
Detailed CPU timing summary
     Fock matrix         :        10.4258 s
     Integrals           :        28.7253 s
     Addressing matrices :         0.0001 s
     Guesses             :         0.0011 s
     Iterations          :       148.5396 s
     Properties          :       941.8637 s
     RAS-CI(2) correction:         0.0000 s
  
 
 --------------------------------------------------------------
             Orbital Energies (a.u.) and Symmetries
 --------------------------------------------------------------
 
 Alpha MOs, Restricted
 -- Doubly Occupied --           
-20.705 -20.534 -11.359 -11.323 -11.277 -11.277 -11.267 -11.267
  1 A1    2 A1    3 A1    4 A1    1 B1    5 A1    2 B1    6 A1                 
 -1.512  -1.371  -1.172  -1.068  -1.000  -0.879  -0.841  -0.702
  7 A1    8 A1    9 A1    3 B1   10 A1    4 B1   11 A1    5 B1                 
 -0.685  -0.633  -0.633  -0.588  -0.558  -0.578  -0.482  -0.428
 12 A1    6 B1   13 A1   14 A1    7 B1    1 B2    2 B2    8 B1                 
 -0.406  -0.758  -0.697
  1 A2   15 A1    3 B2                                                         
 -- Singly Occupied (Occupied) --
 -0.687  -0.291
  9 B1    4 B2                                                                 
 -- Virtual --                   
  0.084   0.121   0.148   0.163   0.174   0.203   0.207   0.251
  2 A2    5 B2   16 A1   10 B1   17 A1   18 A1   11 B1   19 A1                 
  0.263   0.287   0.310   0.315   0.322   0.327   0.346   0.360
 20 A1    6 B2    7 B2   12 B1   13 B1   21 A1    3 A2   22 A1                 
  0.389   0.405   0.433   0.433   0.447   0.450   0.471   0.499
  8 B2   14 B1   23 A1    9 B2    4 A2   24 A1   15 B1   25 A1                 
  0.500   0.522   0.527   0.530   0.557   0.558   0.561   0.565
 16 B1   26 A1   10 B2   27 A1   17 B1   18 B1   28 A1   29 A1                 
  0.599   0.599   0.597   0.630   0.651   0.653   0.681   0.703
 30 A1   19 B1   11 B2   20 B1   31 A1   21 B1   32 A1   12 B2                 
  0.765   0.775   0.774   0.779   0.820   0.860   0.863   0.882
 13 B2   22 B1    5 A2   33 A1   23 B1   24 B1   34 A1   25 B1                 
  0.893   0.899   0.937   0.972   0.993   0.996   0.992   1.026
  6 A2   35 A1   36 A1    7 A2   26 B1   37 A1   14 B2   38 A1                 
  1.036   1.050   1.058   1.097   1.177   1.214   1.220   1.232
 27 B1   39 A1   15 B2   40 A1   28 B1   41 A1    8 A2   42 A1                 
  1.238   1.296   1.323   1.381   1.393   1.393   1.414   1.415
 29 B1   16 B2    9 A2   30 B1   17 B2   43 A1   31 B1   44 A1                 
  1.460   1.474   1.486   1.552   1.600   1.616   1.637   1.652
 18 B2   45 A1   32 B1   46 A1   10 A2   47 A1   33 B1   48 A1                 
  1.656   1.717   1.721   1.731   1.760   1.804   1.820   1.844
 19 B2   34 B1   11 A2   49 A1   20 B2   35 B1   50 A1   51 A1                 
  1.877   1.901   1.903   1.924   1.951   1.974   1.973   2.044
 12 A2   21 B2   52 A1   13 A2   22 B2   36 B1   53 A1   37 B1                 
  2.084   2.083   2.098   2.133   2.181   2.186   2.217   2.275
 38 B1   54 A1   23 B2   14 A2   24 B2   15 A2   55 A1   39 B1                 
  2.295   2.303   2.376   2.397   2.398   2.437   2.444   2.521
 16 A2   25 B2   40 B1   41 B1   56 A1   57 A1   58 A1   42 B1                 
  2.528   2.568   2.622   2.625   2.651   2.725   2.753   2.804
 59 A1   60 A1   17 A2   26 B2   43 B1   44 B1   61 A1   45 B1                 
  2.824   2.828   2.846   2.873   2.902   2.903   2.936   2.941
 46 B1   27 B2   62 A1   47 B1   63 A1   28 B2   48 B1   64 A1                 
  2.954   2.972   3.006   3.030   3.037   3.038   3.066   3.076
 65 A1   18 A2   29 B2   30 B2   49 B1   19 A2   66 A1   50 B1                 
  3.113   3.148   3.177   3.179   3.184   3.223   3.222   3.238
 31 B2   67 A1   68 A1   32 B2   20 A2   69 A1   33 B2   51 B1                 
  3.276   3.339   3.355   3.378   3.403   3.415   3.453   3.461
 70 A1   34 B2   71 A1   21 A2   52 B1   22 A2   53 B1   72 A1                 
  3.460   3.459   3.478   3.486   3.501   3.515   3.572   3.579
 35 B2   54 B1   73 A1   55 B1   23 A2   74 A1   36 B2   75 A1                 
  3.610   3.648   3.668   3.682   3.719   3.722   3.725   3.753
 24 A2   56 B1   25 A2   37 B2   76 A1   77 A1   57 B1   58 B1                 
  3.756   3.772   3.784   3.787   3.817   3.927   3.936   3.960
 38 B2   26 A2   39 B2   78 A1   79 A1   59 B1   80 A1   60 B1                 
  4.008   4.070   4.069   4.133   4.179   4.240   4.292   4.342
 27 A2   61 B1   40 B2   81 A1   62 B1   82 A1   63 B1   83 A1                 
  4.342   4.354   4.358   4.379   4.437   4.508   4.507   4.531
 41 B2   28 A2   64 B1   42 B2   84 A1   85 A1   43 B2   86 A1                 
  4.544   4.587   4.651   4.781   4.806   4.866   4.879   4.904
 29 A2   65 B1   66 B1   87 A1   30 A2   44 B2   88 A1   89 A1                 
  4.967   5.090   5.161   5.166   5.183   5.245   5.369   5.461
 67 B1   90 A1   68 B1   91 A1   69 B1   92 A1   70 B1   93 A1                 
  5.477   5.527   5.605   5.662   5.681   5.693   5.801   5.895
 45 B2   71 B1   72 B1   46 B2   73 B1   94 A1   31 A2   74 B1                 
  5.971   6.033   6.234   6.304   6.559   6.594   6.699   6.779
 95 A1   32 A2   96 A1   47 B2   48 B2   97 A1   33 A2   75 B1                 
  6.878   6.887   6.910   7.137   7.151   7.180   7.325   7.358
 98 A1   99 A1   34 A2  100 A1   76 B1   49 B2   50 B2   77 B1                 
  7.400   7.591   7.626  23.175  23.577  23.790  23.883  24.094
101 A1   78 B1  102 A1  103 A1   79 B1   80 B1  104 A1  105 A1                 
 24.501  45.306  45.504
106 A1  107 A1  108 A1                                                         
 
 Beta MOs, Restricted
 -- Doubly Occupied --           
-20.668 -20.528 -11.352 -11.322 -11.276 -11.276 -11.264 -11.264
  1 A1    2 A1    3 A1    4 A1    1 B1    5 A1    2 B1    6 A1                 
 -1.388  -1.353  -1.146  -1.057  -0.957  -0.859  -0.820  -0.684
  7 A1    8 A1    9 A1    3 B1   10 A1    4 B1   11 A1    5 B1                 
 -0.676  -0.628  -0.619  -0.579  -0.545  -0.523  -0.407  -0.421
 12 A1    6 B1   13 A1   14 A1    7 B1    1 B2    2 B2    8 B1                 
 -0.379  -0.726  -0.628
  1 A2   15 A1    3 B2                                                         
 -- Singly Occupied (Vacant) --  
  0.093   0.003
  9 B1    4 B2                                                                 
 -- Virtual --                   
  0.126   0.188   0.150   0.164   0.179   0.209   0.209   0.257
  2 A2    5 B2   16 A1   10 B1   17 A1   18 A1   11 B1   19 A1                 
  0.268   0.310   0.317   0.319   0.325   0.336   0.351   0.368
 20 A1    6 B2    7 B2   12 B1   13 B1   21 A1    3 A2   22 A1                 
  0.405   0.420   0.439   0.443   0.460   0.454   0.478   0.506
  8 B2   14 B1   23 A1    9 B2    4 A2   24 A1   15 B1   25 A1                 
  0.510   0.532   0.541   0.544   0.565   0.568   0.572   0.573
 16 B1   26 A1   10 B2   27 A1   17 B1   18 B1   28 A1   29 A1                 
  0.602   0.607   0.617   0.636   0.659   0.663   0.686   0.716
 30 A1   19 B1   11 B2   20 B1   31 A1   21 B1   32 A1   12 B2                 
  0.778   0.782   0.791   0.788   0.843   0.864   0.872   0.886
 13 B2   22 B1    5 A2   33 A1   23 B1   24 B1   34 A1   25 B1                 
  0.899   0.906   0.952   0.986   1.001   1.002   1.014   1.034
  6 A2   35 A1   36 A1    7 A2   26 B1   37 A1   14 B2   38 A1                 
  1.049   1.058   1.071   1.100   1.182   1.222   1.229   1.242
 27 B1   39 A1   15 B2   40 A1   28 B1   41 A1    8 A2   42 A1                 
  1.249   1.310   1.340   1.386   1.401   1.404   1.422   1.423
 29 B1   16 B2    9 A2   30 B1   17 B2   43 A1   31 B1   44 A1                 
  1.471   1.483   1.496   1.560   1.628   1.637   1.641   1.667
 18 B2   45 A1   32 B1   46 A1   10 A2   47 A1   33 B1   48 A1                 
  1.672   1.723   1.733   1.740   1.777   1.812   1.830   1.853
 19 B2   34 B1   11 A2   49 A1   20 B2   35 B1   50 A1   51 A1                 
  1.900   1.913   1.915   1.944   1.959   1.978   1.982   2.069
 12 A2   21 B2   52 A1   13 A2   22 B2   36 B1   53 A1   37 B1                 
  2.091   2.098   2.107   2.150   2.195   2.193   2.227   2.293
 38 B1   54 A1   23 B2   14 A2   24 B2   15 A2   55 A1   39 B1                 
  2.302   2.314   2.390   2.404   2.415   2.448   2.451   2.530
 16 A2   25 B2   40 B1   41 B1   56 A1   57 A1   58 A1   42 B1                 
  2.534   2.574   2.634   2.634   2.694   2.737   2.760   2.810
 59 A1   60 A1   17 A2   26 B2   43 B1   44 B1   61 A1   45 B1                 
  2.834   2.839   2.852   2.877   2.908   2.916   2.939   2.945
 46 B1   27 B2   62 A1   47 B1   63 A1   28 B2   48 B1   64 A1                 
  2.958   2.983   3.018   3.043   3.043   3.043   3.073   3.081
 65 A1   18 A2   29 B2   30 B2   49 B1   19 A2   66 A1   50 B1                 
  3.123   3.154   3.185   3.189   3.191   3.232   3.235   3.252
 31 B2   67 A1   68 A1   32 B2   20 A2   69 A1   33 B2   51 B1                 
  3.296   3.349   3.361   3.384   3.411   3.420   3.458   3.466
 70 A1   34 B2   71 A1   21 A2   52 B1   22 A2   53 B1   72 A1                 
  3.469   3.480   3.484   3.492   3.508   3.527   3.581   3.586
 35 B2   54 B1   73 A1   55 B1   23 A2   74 A1   36 B2   75 A1                 
  3.616   3.656   3.674   3.693   3.727   3.730   3.731   3.757
 24 A2   56 B1   25 A2   37 B2   76 A1   77 A1   57 B1   58 B1                 
  3.763   3.778   3.791   3.798   3.820   3.936   3.942   3.990
 38 B2   26 A2   39 B2   78 A1   79 A1   59 B1   80 A1   60 B1                 
  4.014   4.074   4.076   4.137   4.189   4.242   4.296   4.346
 27 A2   61 B1   40 B2   81 A1   62 B1   82 A1   63 B1   83 A1                 
  4.348   4.363   4.364   4.385   4.441   4.511   4.513   4.538
 41 B2   28 A2   64 B1   42 B2   84 A1   85 A1   43 B2   86 A1                 
  4.549   4.592   4.659   4.797   4.814   4.872   4.884   4.907
 29 A2   65 B1   66 B1   87 A1   30 A2   44 B2   88 A1   89 A1                 
  4.971   5.095   5.165   5.174   5.187   5.256   5.389   5.465
 67 B1   90 A1   68 B1   91 A1   69 B1   92 A1   70 B1   93 A1                 
  5.534   5.565   5.615   5.672   5.689   5.697   5.840   5.900
 45 B2   71 B1   72 B1   46 B2   73 B1   94 A1   31 A2   74 B1                 
  6.007   6.040   6.241   6.321   6.568   6.618   6.792   6.820
 95 A1   32 A2   96 A1   47 B2   48 B2   97 A1   33 A2   75 B1                 
  6.904   6.950   6.925   7.154   7.158   7.199   7.337   7.419
 98 A1   99 A1   34 A2  100 A1   76 B1   49 B2   50 B2   77 B1                 
  7.428   7.596   7.631  23.177  23.579  23.791  23.885  24.097
101 A1   78 B1  102 A1  103 A1   79 B1   80 B1  104 A1  105 A1                 
 24.503  45.326  45.508
106 A1  107 A1  108 A1                                                         
 --------------------------------------------------------------
 
          Ground-State Mulliken Net Atomic Charges

     Atom                 Charge (a.u.)
  ----------------------------------------
      1 O                    -0.166544
      2 C                     0.409627
      3 C                    -0.215042
      4 C                    -0.215042
      5 C                    -0.131694
      6 C                    -0.131694
      7 C                     0.333437
      8 O                    -0.484243
      9 H                     0.149541
     10 H                     0.149541
     11 H                     0.151057
     12 H                     0.151057
  ----------------------------------------
  Sum of atomic charges =     0.000000

 -----------------------------------------------------------------
                    Cartesian Multipole Moments
 -----------------------------------------------------------------
    Charge (ESU x 10^10)
                 0.0000
    Dipole Moment (Debye)
         X       0.0000      Y       0.0000      Z       4.0702
       Tot       4.0702
    Quadrupole Moments (Debye-Ang)
        XX     -37.2832     XY      -0.0000     YY     -47.6543
        XZ       0.0000     YZ       0.0000     ZZ     -59.1247
    Octopole Moments (Debye-Ang^2)
       XXX       0.0000    XXY       0.0000    XYY       0.0000
       YYY       0.0000    XXZ       3.1977    XYZ      -0.0000
       YYZ       0.1284    XZZ       0.0000    YZZ       0.0000
       ZZZ      38.0379
    Hexadecapole Moments (Debye-Ang^3)
      XXXX    -266.5304   XXXY       0.0000   XXYY     -67.0386
      XYYY      -0.0000   YYYY     -51.1923   XXXZ       0.0000
      XXYZ       0.0000   XYYZ       0.0000   YYYZ       0.0000
      XXZZ    -152.1741   XYZZ       0.0000   YYZZ    -130.8665
      XZZZ       0.0000   YZZZ       0.0000   ZZZZ    -886.8853
 -----------------------------------------------------------------
 Total job time:  1378.83s(wall), 1266.95s(cpu) 
 Fri Sep  6 10:07:27 2024

======= MOLDEN-FORMATTED INPUT FILE FOLLOWS =======
[Molden Format]
[Atoms] (AU)
  O      1    8      0.00000000     -0.00000000      5.08734657
  C      2    6      0.00000000     -0.00000000      2.64032228
  C      3    6      2.34535493     -0.00000000      1.30213628
  C      4    6     -2.34535493      0.00000000      1.30213628
  C      5    6     -2.33094915      0.00000000     -1.26662112
  C      6    6      2.33094915     -0.00000000     -1.26662112
  C      7    6     -0.00000000      0.00000000     -2.74150205
  O      8    8     -0.00000000      0.00000000     -5.08156798
  H      9    1      4.08183217     -0.00000000      2.38031984
  H     10    1     -4.08183217      0.00000000      2.38031984
  H     11    1      4.09009771     -0.00000000     -2.31298590
  H     12    1     -4.09009771      0.00000000     -2.31298590

======= END OF MOLDEN-FORMATTED INPUT FILE =======


        *************************************************************
        *                                                           *
        *  Thank you very much for using Q-Chem.  Have a nice day.  *
        *                                                           *
        *************************************************************


