                  Welcome to Q-Chem
     A Quantum Leap Into The Future Of Chemistry


 Q-Chem 6.0 (devel), Q-Chem, Inc., Pleasanton, CA (2022)

 E. Epifanovsky,  A. T. B. Gilbert,  Xintian Feng,  Joonho Lee,  Yuezhi Mao,  
 N. Mardirossian,  P. Pokhilko,  A. White,  M. Wormit,  M. P. Coons,  
 A. L. Dempwolff,  Zhengting Gan,  D. Hait,  P. R. Horn,  L. D. Jacobson,  
 I. Kaliman,  J. Kussmann,  A. W. Lange,  Ka Un Lao,  D. S. Levine,  Jie Liu,  
 S. C. McKenzie,  A. F. Morrison,  K. Nanda,  F. Plasser,  D. R. Rehn,  
 M. L. Vidal,  Zhi-Qiang You,  Ying Zhu,  B. Alam,  B. Albrecht,  
 A. Aldossary,  E. Alguire,  J. H. Andersen,  V. Athavale,  D. Barton,  
 K. Begam,  A. Behn,  N. Bellonzi,  Y. A. Bernard,  E. J. Berquist,  
 H. Burton,  A. Carreras,  K. Carter-Fenk,  Romit Chakraborty,  
 Chandrima Chakravarty,  Junhan Chen,  A. D. Chien,  K. D. Closser,  
 V. Cofer-Shabica,  L. Cunha,  S. Dasgupta,  Jia Deng,  M. de Wergifosse,  
 M. Diedenhofen,  Hainam Do,  S. Ehlert,  Po-Tung Fang,  S. Fatehi,  
 Qingguo Feng,  T. Friedhoff,  B. Ganoe,  J. Gayvert,  Qinghui Ge,  
 G. Gidofalvi,  M. Goldey,  J. Gomes,  C. Gonzalez-Espinoza,  S. Gulania,  
 A. Gunina,  J. A. Gyamfi,  M. W. D. Hanson-Heine,  P. H. P. Harbach,  
 A. W. Hauser,  M. F. Herbst,  M. Hernandez Vera,  M. Hodecker,  
 Z. C. Holden,  S. Houck,  Xunkun Huang,  Kerwin Hui,  B. C. Huynh,  
 K. Ikeda,  M. Ivanov,  Hyunjun Ji,  Zuxin Jin,  Hanjie Jiang,  B. Kaduk,  
 S. Kaehler,  R. Kang,  K. Khistyaev,  Jaehoon Kim,  Yongbin Kim,  
 P. Klunzinger,  Z. Koczor-Benda,  Joong Hoon Koh,  D. Kosenkov,  
 Saikiran Kotaru,  L. Koulias,  T. Kowalczyk,  C. M. Krauter,  K. Kue,  
 A. Kunitsa,  T. Kus,  A. Landau,  K. V. Lawler,  D. Lefrancois,  S. Lehtola,  
 Rain Li,  Shaozhi Li,  Yi-Pei Li,  Jiashu Liang,  M. Liebenthal,  
 Hung-Hsuan Lin,  You-Sheng Lin,  Fenglai Liu,  Kuan-Yu Liu,  
 M. Loipersberger,  A. Luenser,  C. Malbon,  A. Manjanath,  P. Manohar,  
 E. Mansoor,  S. F. Manzer,  Shan-Ping Mao,  A. V. Marenich,  T. Markovich,  
 S. Mason,  F. Matz,  S. A. Maurer,  P. F. McLaughlin,  M. F. S. J. Menger,  
 J.-M. Mewes,  S. A. Mewes,  P. Morgante,  Mohammad Mostafanejad,  
 J. W. Mullinax,  K. J. Oosterbaan,  G. Paran,  V. Parravicini,  
 Alexander C. Paul,  Suranjan K. Paul,  F. Pavosevic,  Zheng Pei,  S. Prager,  
 E. I. Proynov,  E. Ramos,  B. Rana,  A. E. Rask,  A. Rettig,  R. M. Richard,  
 F. Rob,  E. Rossomme,  T. Scheele,  M. Scheurer,  M. Schneider,  
 P. E. Schneider,  N. Sergueev,  S. M. Sharada,  Hengyuan Shen,  
 W. Skomorowski,  D. W. Small,  C. J. Stein,  Yingli Su,  Yu-Chuan Su,  
 E. J. Sundstrom,  Zhen Tao,  J. Thirman,  Hung-Yi Tsai,  T. Tsuchimochi,  
 N. M. Tubman,  C. Utku,  S. P. Veccham,  O. Vydrov,  J. Wenzel,  
 Jonathan Wong,  J. Witte,  A. Yamada,  Chou-Hsun Yang,  Kun Yao,  
 S. Yeganeh,  S. R. Yost,  A. Zech,  F. Zeller,  Igor Ying Zhang,  
 Xing Zhang,  Yu Zhang,  D. Zuev,  A. Aspuru-Guzik,  A. T. Bell,  
 N. A. Besley,  K. B. Bravaya,  B. R. Brooks,  D. Casanova,  Jeng-Da Chai,  
 Hsing-Ta Chen,  S. Coriani,  C. J. Cramer,  A. E. DePrince, III,  
 R. A. DiStasio Jr.,  A. Dreuw,  B. D. Dunietz,  T. R. Furlani,  
 W. A. Goddard III,  S. Grimme,  S. Hammes-Schiffer,  T. Head-Gordon,  
 W. J. Hehre,  Chao-Ping Hsu,  T.-C. Jagau,  Yousung Jung,  A. Klamt,  
 Jing Kong,  D. S. Lambrecht,  Xiangyuan Li,  WanZhen Liang,  N. J. Mayhall,  
 C. W. McCurdy,  J. B. Neaton,  T. Neudecker,  C. Ochsenfeld,  
 J. A. Parkhill,  R. Peverati,  V. A. Rassolov,  Haisheng Ren,  Yihan Shao,  
 L. V. Slipchenko,  R. P. Steele,  J. E. Subotnik,  A. J. W. Thom,  
 A. Tkatchenko,  D. G. Truhlar,  T. Van Voorhis,  Fan Wang,  
 T. A. Wesolowski,  K. B. Whaley,  H. L. Woodcock III,  P. M. Zimmerman,  
 S. Faraji,  P. M. W. Gill,  M. Head-Gordon,  J. M. Herbert,  A. I. Krylov

 Contributors to earlier versions of Q-Chem not listed above: 
 R. D. Adamson,  B. Austin,  R. Baer,  J. Baker,  G. J. O. Beran,  
 K. Brandhorst,  S. T. Brown,  E. F. C. Byrd,  Arup K. Chakraborty,  
 G. K. L. Chan,  Chun-Min Chang,  Yunqing Chen,  C.-L. Cheng,  
 Siu Hung Chien,  D. M. Chipman,  D. L. Crittenden,  H. Dachsel,  
 R. J. Doerksen,  A. D. Dutoi,  R. G. Edgar,  J. Fosso-Tande,  
 L. Fusti-Molnar,  D. Ghosh,  A. Ghysels,  A. Golubeva-Zadorozhnaya,  
 J. Gonthier,  M. S. Gordon,  S. R. Gwaltney,  G. Hawkins,  J. E. Herr,  
 A. Heyden,  S. Hirata,  E. G. Hohenstein,  G. Kedziora,  F. J. Keil,  
 C. Kelley,  Jihan Kim,  R. A. King,  R. Z. Khaliullin,  P. P. Korambath,  
 W. Kurlancheek,  A. Laurent,  A. M. Lee,  M. S. Lee,  S. V. Levchenko,  
 Ching Yeh Lin,  D. Liotard,  E. Livshits,  R. C. Lochan,  I. Lotan,  
 L. A. Martinez-Martinez,  P. E. Maslen,  N. Nair,  D. P. O'Neill,  
 D. Neuhauser,  E. Neuscamman,  C. M. Oana,  R. Olivares-Amaya,  R. Olson,  
 T. M. Perrine,  B. Peters,  P. A. Pieniazek,  A. Prociuk,  Y. M. Rhee,  
 J. Ritchie,  M. A. Rohrdanz,  E. Rosta,  N. J. Russ,  H. F. Schaefer III,  
 M. W. Schmidt,  N. E. Schultz,  S. Sharma,  N. Shenvi,  C. D. Sherrill,  
 A. C. Simmonett,  A. Sodt,  T. Stein,  D. Stuck,  K. S. Thanthiriwatte,  
 V. Vanovschi,  L. Vogt,  Tao Wang,  A. Warshel,  M. A. Watson,  
 C. F. Williams,  Q. Wu,  X. Xu,  Jun Yang,  W. Zhang,  Yan Zhao

   Please cite Q-Chem as follows:
  "Software for the frontiers of quantum chemistry:
   An overview of developments in the Q-Chem 5 package"
   J. Chem. Phys. 155, 084801 (2021)
   https://doi.org/10.1063/5.0055522 (open access)

 Q-Chem 6.0.1 for Intel X86 EM64T Linux

 Parts of Q-Chem use Armadillo 9.900.5 (Nocturnal Misbehaviour).
 http://arma.sourceforge.net/

 Q-Chem begins on Mon Oct 21 10:53:44 2024  

 Host: hyperion-288
0

     Scratch files written to ./qchem2067286//
 Processing $rem in /scratch/abel/SOFTWARE/qchem/config/preferences:
 Processing $rem in /home/acebg/.qchemrc:

 Checking the input file for inconsistencies... 	...done.

--------------------------------------------------------------
User input:
--------------------------------------------------------------
$comment
 TD-DFT/TDA CALCULATION
$end

$molecule
 READ fluorenone.molecule
$end

$rem
!**REFERENCE***     
JOBTYPE            SP
EXCHANGE           B3LYP   !gen:specify in $xc_functional
CORRELATION        NONE
BASIS              def2-TZVP 

!***SCF REFERENCE***
INPUT_BOHR          TRUE
!SKIP_SCFMAN        FALSE
!UNRESTRICTED       FALSE !rectricted-TDDFT not avail in doublets
!SCF_GUESS          core
!SCF_GUESS_MIX      FALSE
!SCF_GUESS_ALWAYS   FALSE
MAX_SCF_CYCLES     999
!SCF_CONVERGENCE    10
SCF_ALGORITHM      DIIS_GDM !DIIS,DM,DIIS_DM,GDM,DIIS_GDM,GD

!SYMMETRY           TRUE !use of symmetry for calculating integrals
!SYM_IGNORE         FALSE !turn off using symmetry
!SYM_TOL            5 !tolerance for determining point group

!THRESH             14
!SCF_FINAL_PRINT    2 !0,1,2,3

!****CIS****
CIS_N_ROOTS        50
!CIS_CONVERGENCE   10
MAX_CIS_CYCLES     200
!CIS_SINGLETS      true
!CIS_TRIPLETS      true
CALC_SOC           2 !not available in doublets in TDDFT
STS_ANGMOM        true
!RPA                FALSE !RPA=1 TDA calc used as guess of TDDFT

!Spin-orbit coupling calculations are implemented for
!restricted, unrestricted CIS/TDDFT, and SF TDDFT
!using Wigner-Eckart theorem: Try CALC_SOC = 2.

!****MEMORY****
MEM_TOTAL          80000        !Default 2000 MB
MEM_STATIC         25000         !Default 64 MB

!**Molecular Properties and Analysis **
!POP_MULLIKEN       FALSE   !Run Mulliken population analysis
!LOWDIN_POPULATION  FALSE  !Run Löwdin population analysis
!GUI                0
!STATE_ANALYSIS     TRUE
!MOLDEN_FORMAT      FALSE
!PRINT_ORBITALS     5
$end

--------------------------------------------------------------
 ----------------------------------------------------------------
             Standard Nuclear Orientation (Bohr)
    I     Atom           X                Y                Z
 ----------------------------------------------------------------
    1      C      -0.0000000000    -0.0000000000     3.0318066276
    2      O      -0.0000000000    -0.0000000000     5.3638644743
    3      C      -2.1864624130    -0.0000000000     1.3211263669
    4      C       2.1864624130     0.0000000000     1.3211263669
    5      C       1.3222785792     0.0000000000    -1.3152461482
    6      C       4.7555386627     0.0000000000     1.8776505802
    7      C       6.4695983050     0.0000000000    -0.0972082822
    8      C       3.1392439890     0.0000000000    -3.3016694193
    9      C       5.6496513315     0.0000000000    -2.6924387954
   10      H       5.3730975132     0.0000000000     3.8295121100
   11      H       2.5395104465     0.0000000000    -5.2593503586
   12      H       8.4790954600     0.0000000000     0.2945733557
   13      H       7.0667355415     0.0000000000    -4.1688986988
   14      C      -1.3222785792    -0.0000000000    -1.3152461482
   15      C      -4.7555386627    -0.0000000000     1.8776505802
   16      C      -3.1392439890    -0.0000000000    -3.3016694193
   17      C      -6.4695983050    -0.0000000000    -0.0972082822
   18      C      -5.6496513315    -0.0000000000    -2.6924387954
   19      H      -2.5395104465    -0.0000000000    -5.2593503586
   20      H      -5.3730975132    -0.0000000000     3.8295121100
   21      H      -8.4790954600    -0.0000000000     0.2945733557
   22      H      -7.0667355415    -0.0000000000    -4.1688986988
 ----------------------------------------------------------------
 Molecular Point Group                 C2v   NOp =  4
 Largest Abelian Subgroup              C2v   NOp =  4
 Nuclear Repulsion Energy =         775.12034816 hartrees
 There are       48 alpha and       46 beta electrons
 Requested basis set is def2-TZVP
 There are 186 shells and 482 basis functions

 Q-Chem warning in module libmdc/get_mega.C, line 167:

 Allowed MEM_STATIC has been capped at MEM_STATIC=8191.
 Reduce the value of MEM_STATIC to silence this warning.


 Total QAlloc Memory Limit  80000 MB
 Mega-Array Size      8007 MB
 MEM_STATIC part      8191 MB

 A cutoff of  1.0D-12 yielded  14392 shell pairs
 There are     97856 function pairs (    127798 Cartesian)
 Smallest overlap matrix eigenvalue = 7.88E-06

 Scale SEOQF with 1.000000e-01/1.000000e+00/1.000000e-01

 Standard Electronic Orientation quadrupole field applied
 Nucleus-field energy     =    -0.0000000045 hartrees
 Guess from superposition of atomic densities
 Warning:  Energy on first SCF cycle will be non-variational
 SAD guess density has 94.000000 electrons

 -----------------------------------------------------------------------
  General SCF calculation program by
  Eric Jon Sundstrom, Paul Horn, Yuezhi Mao, Dmitri Zuev, Alec White,
  David Stuck, Shaama M.S., Shane Yost, Joonho Lee, David Small,
  Daniel Levine, Susi Lehtola, Hugh Burton, Evgeny Epifanovsky,
  Bang C. Huynh
 -----------------------------------------------------------------------
 Exchange:     0.2000 Hartree-Fock + 0.0800 Slater + 0.7200 B88
 Correlation:  0.1900 VWN1RPA + 0.8100 LYP
 Using SG-1 standard quadrature grid
 A unrestricted SCF calculation will be
 performed using DIIS, GDM
 SCF converges when RMS gradient is below 1.0e-08
 ---------------------------------------
  Cycle       Energy         DIIS error
 ---------------------------------------
    1    -579.0410161146      1.33e-02  
    2    -575.3359833624      1.40e-03  Done DIIS. Switching to GDM
 ---------------------------------------
  Cycle       Energy        RMS Gradient
 ---------------------------------------
    1    -575.3359833624      2.85e-01   Descent step
    2    -575.5211566834      9.35e-02   Descent step
    3    -575.5240664073      1.79e-01   Normal BFGS step
    4    -575.5607932169      1.68e-02   Normal BFGS step
    5    -575.5612665028      2.36e-02   Normal BFGS step
    6    -575.5623148441      8.87e-03   Normal BFGS step
    7    -575.5624470264      5.81e-03   Normal BFGS step
    8    -575.5626290969      3.17e-03   Normal BFGS step
    9    -575.5626356799      2.65e-03   Normal BFGS step
   10    -575.5626566121      8.20e-04   Normal BFGS step
   11    -575.5626580724      6.53e-04   Normal BFGS step
   12    -575.5626615158      2.13e-04   Normal BFGS step
   13    -575.5626617206      1.17e-04   Normal BFGS step
   14    -575.5626618998      3.78e-05   Normal BFGS step
   15    -575.5626619137      2.07e-05   Normal BFGS step
   16    -575.5626619164      1.34e-05   Normal BFGS step
   17    -575.5626619180      2.23e-06   Normal BFGS step
   18    -575.5626619182      7.84e-07   Normal BFGS step
   19    -575.5626619184      1.60e-07   Normal BFGS step
   20    -575.5626619187      1.27e-07   Normal BFGS step
   21    -575.5626619188      9.07e-08   Normal BFGS step
  GDM::WARNING energy changes are now smaller than effective accuracy.
  GDM::        calculation will continue, but THRESH should be increased
  GDM::        or SCF_CONVERGENCE decreased. 
  GDM::        effective_thresh = 4.09e-09
   22    -575.5626619187      6.78e-08   Normal BFGS step
  GDM::WARNING energy changes are now smaller than effective accuracy.
  GDM::        calculation will continue, but THRESH should be increased
  GDM::        or SCF_CONVERGENCE decreased. 
  GDM::        effective_thresh = 4.09e-09
   23    -575.5626619182      2.23e-08   Normal BFGS step
   24    -575.5626619182      1.86e-08   Normal BFGS step
  GDM::WARNING energy changes are now smaller than effective accuracy.
  GDM::        calculation will continue, but THRESH should be increased
  GDM::        or SCF_CONVERGENCE decreased. 
  GDM::        effective_thresh = 4.09e-09
   25    -575.5626619177      1.76e-08   Normal BFGS step
   26    -575.5626619179      8.27e-09  Convergence criterion met
 ---------------------------------------
 SCF time:   CPU 865.56s  wall 882.00s 
<S^2> =          2.024299381
 SCF   energy in the final basis set =     -575.5626619179
 Total energy in the final basis set =     -575.5626619179
 
 MAX_CIS_SUBSPACE fits in available memory
 Direct TDDFT/TDA calculation will be performed
 Exchange:     0.2000 Hartree-Fock + 0.0800 Slater + 0.7200 B88
 Correlation:  0.1900 VWN1RPA + 0.8100 LYP
 Using SG-1 standard quadrature grid
 CIS energy converged when residual is below 10e- 6
 ---------------------------------------------------
 Iter    Rts Conv    Rts Left    Ttl Dev     Max Dev
 ---------------------------------------------------
   1         0          50      0.014881    0.001188
   2         0          50      0.003431    0.000394
   3         0          50      0.001339    0.000250
   4        17          33      0.000397    0.000132
   5        39          11      0.000128    0.000037
   6        46           4      0.000038    0.000011
   7        48           2      0.000018    0.000002
   8        50           0      0.000015    0.000001    Roots Converged
 ---------------------------------------------------
 
 ---------------------------------------------------
         TDDFT/TDA Excitation Energies              
 ---------------------------------------------------

 Excited state   1: excitation energy (eV) =    0.6611
 Total energy for state  1:                  -575.53836629 au
    <S**2>     :  2.0265
    Trans. Mom.: -0.0000 X   0.0217 Y   0.0000 Z
    Strength   :     0.0000076611
    D(   46) --> S(    1) amplitude =  0.9975 beta

 Excited state   2: excitation energy (eV) =    1.4015
 Total energy for state  2:                  -575.51115713 au
    <S**2>     :  2.0534
    Trans. Mom.: -0.3020 X  -0.0000 Y   0.0000 Z
    Strength   :     0.0031307955
    S(    2) --> V(    2) amplitude = -0.2813 alpha
    D(   45) --> S(    1) amplitude =  0.9519 beta

 Excited state   3: excitation energy (eV) =    1.5242
 Total energy for state  3:                  -575.50664964 au
    <S**2>     :  2.0763
    Trans. Mom.:  0.0000 X   0.0000 Y   0.1982 Z
    Strength   :     0.0014662815
    S(    2) --> V(    1) amplitude =  0.7644 alpha
    D(   44) --> S(    1) amplitude = -0.6305 beta

 Excited state   4: excitation energy (eV) =    1.8533
 Total energy for state  4:                  -575.49455567 au
    <S**2>     :  2.0279
    Trans. Mom.: -0.0000 X  -0.0000 Y   0.4819 Z
    Strength   :     0.0105459402
    S(    2) --> V(    1) amplitude =  0.6264 alpha
    D(   44) --> S(    1) amplitude =  0.7625 beta

 Excited state   5: excitation energy (eV) =    2.1258
 Total energy for state  5:                  -575.48453857 au
    <S**2>     :  2.0462
    Trans. Mom.:  0.3601 X  -0.0000 Y   0.0000 Z
    Strength   :     0.0067532005
    S(    2) --> V(    2) amplitude =  0.5241 alpha
    S(    2) --> V(    3) amplitude =  0.2033 alpha
    D(   43) --> S(    1) amplitude =  0.8023 beta

 Excited state   6: excitation energy (eV) =    2.3839
 Total energy for state  6:                  -575.47505615 au
    <S**2>     :  2.1170
    Trans. Mom.: -0.0000 X   0.0000 Y   0.0000 Z
    Strength   :     0.0000000000
    D(   46) --> S(    2) amplitude =  0.9798 beta

 Excited state   7: excitation energy (eV) =    2.8405
 Total energy for state  7:                  -575.45827514 au
    <S**2>     :  2.0880
    Trans. Mom.: -1.1864 X   0.0000 Y  -0.0000 Z
    Strength   :     0.0979486023
    D(   46) --> V(    1) amplitude =  0.2399 alpha
    S(    2) --> V(    2) amplitude =  0.6741 alpha
    S(    2) --> V(    3) amplitude = -0.5247 alpha
    D(   42) --> S(    1) amplitude =  0.1924 beta
    D(   43) --> S(    1) amplitude = -0.3139 beta
    D(   45) --> S(    1) amplitude =  0.1985 beta

 Excited state   8: excitation energy (eV) =    3.5551
 Total energy for state  8:                  -575.43201598 au
    <S**2>     :  2.0596
    Trans. Mom.: -1.1348 X   0.0000 Y   0.0000 Z
    Strength   :     0.1121606913
    D(   46) --> V(    1) amplitude =  0.3705 alpha
    S(    2) --> V(    2) amplitude =  0.2229 alpha
    S(    2) --> V(    3) amplitude =  0.7858 alpha
    D(   42) --> S(    1) amplitude =  0.1575 beta
    D(   43) --> S(    1) amplitude = -0.3274 beta
    D(   44) --> S(    2) amplitude =  0.1770 beta

 Excited state   9: excitation energy (eV) =    3.6542
 Total energy for state  9:                  -575.42837156 au
    <S**2>     :  2.0367
    Trans. Mom.:  0.0000 X   0.0366 Y   0.0000 Z
    Strength   :     0.0001197769
    D(   41) --> S(    1) amplitude =  0.9941 beta

 Excited state  10: excitation energy (eV) =    3.6863
 Total energy for state 10:                  -575.42719235 au
    <S**2>     :  2.2590
    Trans. Mom.:  0.0000 X  -0.0000 Y   0.3179 Z
    Strength   :     0.0091299440
    D(   44) --> V(    1) amplitude = -0.1524 alpha
    D(   45) --> V(    2) amplitude = -0.1610 alpha
    S(    2) --> V(    4) amplitude =  0.5670 alpha
    D(   39) --> S(    1) amplitude =  0.2976 beta
    D(   45) --> S(    2) amplitude =  0.6878 beta

 Excited state  11: excitation energy (eV) =    3.7315
 Total energy for state 11:                  -575.42553181 au
    <S**2>     :  2.0622
    Trans. Mom.:  0.3152 X  -0.0000 Y   0.0000 Z
    Strength   :     0.0090836858
    D(   46) --> V(    1) amplitude = -0.3543 alpha
    D(   42) --> S(    1) amplitude =  0.9069 beta

 Excited state  12: excitation energy (eV) =    3.7624
 Total energy for state 12:                  -575.42439798 au
    <S**2>     :  2.0359
    Trans. Mom.: -0.0000 X  -0.0000 Y  -0.0000 Z
    Strength   :     0.0000000000
    D(   40) --> S(    1) amplitude =  0.9895 beta

 Excited state  13: excitation energy (eV) =    3.9374
 Total energy for state 13:                  -575.41796340 au
    <S**2>     :  3.1179
    Trans. Mom.: -0.0000 X   0.0000 Y  -0.0000 Z
    Strength   :     0.0000000000
    S(    1) --> V(    1) amplitude =  0.9882 alpha

 Excited state  14: excitation energy (eV) =    4.0690
 Total energy for state 14:                  -575.41312717 au
    <S**2>     :  2.1243
    Trans. Mom.: -0.0000 X  -0.0000 Y  -0.5040 Z
    Strength   :     0.0253233908
    D(   46) --> V(    2) amplitude =  0.2271 alpha
    D(   46) --> V(    3) amplitude =  0.1904 alpha
    S(    2) --> V(    4) amplitude =  0.1596 alpha
    D(   39) --> S(    1) amplitude =  0.7581 beta
    D(   45) --> S(    2) amplitude = -0.4769 beta

 Excited state  15: excitation energy (eV) =    4.0813
 Total energy for state 15:                  -575.41267603 au
    <S**2>     :  2.0699
    Trans. Mom.: -0.3996 X   0.0000 Y   0.0000 Z
    Strength   :     0.0159633907
    D(   46) --> V(    1) amplitude = -0.4766 alpha
    D(   42) --> S(    1) amplitude = -0.2170 beta
    D(   44) --> S(    2) amplitude =  0.8213 beta

 Excited state  16: excitation energy (eV) =    4.1889
 Total energy for state 16:                  -575.40872410 au
    <S**2>     :  2.8358
    Trans. Mom.:  0.0000 X  -0.0000 Y   0.0000 Z
    Strength   :     0.0000000000
    D(   46) --> V(    1) amplitude =  0.9850 beta

 Excited state  17: excitation energy (eV) =    4.4784
 Total energy for state 17:                  -575.39808270 au
    <S**2>     :  3.7551
    Trans. Mom.: -1.0450 X  -0.0000 Y   0.0000 Z
    Strength   :     0.1198189775
    D(   44) --> V(    2) amplitude =  0.2501 alpha
    D(   45) --> V(    1) amplitude =  0.6175 alpha
    D(   46) --> V(    1) amplitude = -0.2362 alpha
    S(    2) --> V(    2) amplitude =  0.1604 alpha
    D(   44) --> V(    1) amplitude =  0.5660 beta
    D(   45) --> V(    2) amplitude =  0.1883 beta

 Excited state  18: excitation energy (eV) =    4.4991
 Total energy for state 18:                  -575.39732253 au
    <S**2>     :  2.1184
    Trans. Mom.: -0.0000 X   0.0000 Y  -0.3497 Z
    Strength   :     0.0134813824
    D(   44) --> V(    1) amplitude =  0.1869 alpha
    D(   46) --> V(    2) amplitude =  0.5074 alpha
    S(    2) --> V(    4) amplitude =  0.5075 alpha
    D(   39) --> S(    1) amplitude = -0.3703 beta
    D(   43) --> S(    2) amplitude =  0.4834 beta

 Excited state  19: excitation energy (eV) =    4.5307
 Total energy for state 19:                  -575.39616057 au
    <S**2>     :  2.0578
    Trans. Mom.: -0.0000 X  -0.0158 Y   0.0000 Z
    Strength   :     0.0000277847
    S(    2) --> V(    5) amplitude =  0.9953 alpha

 Excited state  20: excitation energy (eV) =    4.5652
 Total energy for state 20:                  -575.39489348 au
    <S**2>     :  2.0511
    Trans. Mom.:  0.0000 X  -0.0000 Y   0.0000 Z
    Strength   :     0.0000000000
    D(   38) --> S(    1) amplitude =  0.9815 beta

 Excited state  21: excitation energy (eV) =    4.6065
 Total energy for state 21:                  -575.39337548 au
    <S**2>     :  2.0517
    Trans. Mom.:  0.0000 X  -0.0267 Y  -0.0000 Z
    Strength   :     0.0000802564
    D(   37) --> S(    1) amplitude =  0.9869 beta

 Excited state  22: excitation energy (eV) =    4.6186
 Total energy for state 22:                  -575.39292991 au
    <S**2>     :  3.4961
    Trans. Mom.:  0.0000 X  -0.0000 Y   0.2038 Z
    Strength   :     0.0047020249
    D(   44) --> V(    1) amplitude =  0.4341 alpha
    D(   45) --> V(    3) amplitude = -0.1529 alpha
    D(   46) --> V(    2) amplitude = -0.1961 alpha
    D(   39) --> S(    1) amplitude =  0.1687 beta
    D(   43) --> V(    1) amplitude =  0.1690 beta
    D(   44) --> V(    2) amplitude =  0.1564 beta
    D(   45) --> S(    2) amplitude =  0.2035 beta
    D(   45) --> V(    1) amplitude =  0.7201 beta

 Excited state  23: excitation energy (eV) =    4.7279
 Total energy for state 23:                  -575.38891534 au
    <S**2>     :  2.2262
    Trans. Mom.:  0.0000 X   0.0000 Y   0.3466 Z
    Strength   :     0.0139135309
    D(   44) --> V(    1) amplitude = -0.2913 alpha
    D(   45) --> V(    2) amplitude = -0.1658 alpha
    D(   46) --> V(    3) amplitude =  0.2383 alpha
    S(    2) --> V(    4) amplitude = -0.4461 alpha
    D(   43) --> S(    2) amplitude =  0.7442 beta
    D(   45) --> S(    2) amplitude =  0.1826 beta

 Excited state  24: excitation energy (eV) =    4.8080
 Total energy for state 24:                  -575.38596950 au
    <S**2>     :  2.0565
    Trans. Mom.:  0.0000 X   0.0000 Y  -0.0000 Z
    Strength   :     0.0000000000
    S(    2) --> V(    6) amplitude =  0.9961 alpha

 Excited state  25: excitation energy (eV) =    4.8229
 Total energy for state 25:                  -575.38542256 au
    <S**2>     :  3.2350
    Trans. Mom.: -0.0000 X  -0.0293 Y  -0.0000 Z
    Strength   :     0.0001013650
    S(    1) --> V(    2) amplitude =  0.9848 alpha

 Excited state  26: excitation energy (eV) =    4.9925
 Total energy for state 26:                  -575.37919248 au
    <S**2>     :  2.1974
    Trans. Mom.:  2.9781 X  -0.0000 Y   0.0000 Z
    Strength   :     1.0848291322
    D(   44) --> V(    2) amplitude = -0.1857 alpha
    D(   45) --> V(    1) amplitude =  0.1817 alpha
    D(   46) --> V(    1) amplitude =  0.5856 alpha
    S(    2) --> V(    2) amplitude = -0.2247 alpha
    S(    2) --> V(    3) amplitude = -0.2030 alpha
    D(   42) --> S(    1) amplitude =  0.1847 beta
    D(   43) --> S(    1) amplitude =  0.2599 beta
    D(   44) --> S(    2) amplitude =  0.4510 beta
    D(   44) --> V(    1) amplitude =  0.2928 beta
    D(   45) --> V(    2) amplitude =  0.1707 beta

 Excited state  27: excitation energy (eV) =    5.1998
 Total energy for state 27:                  -575.37157402 au
    <S**2>     :  2.8911
    Trans. Mom.:  0.0000 X   0.0000 Y  -0.6108 Z
    Strength   :     0.0475256317
    D(   43) --> V(    1) amplitude = -0.2400 alpha
    D(   46) --> V(    2) amplitude = -0.4900 alpha
    D(   46) --> V(    3) amplitude =  0.3269 alpha
    D(   39) --> S(    1) amplitude = -0.1930 beta
    D(   43) --> V(    1) amplitude =  0.5928 beta
    D(   45) --> V(    1) amplitude = -0.3507 beta

 Excited state  28: excitation energy (eV) =    5.2064
 Total energy for state 28:                  -575.37133070 au
    <S**2>     :  2.0578
    Trans. Mom.: -0.0000 X   0.0568 Y   0.0000 Z
    Strength   :     0.0004113402
    S(    2) --> V(    7) amplitude =  0.9902 alpha

 Excited state  29: excitation energy (eV) =    5.2674
 Total energy for state 29:                  -575.36909029 au
    <S**2>     :  2.7923
    Trans. Mom.: -0.0000 X  -0.0404 Y   0.0000 Z
    Strength   :     0.0002109079
    D(   46) --> V(    2) amplitude =  0.9761 beta

 Excited state  30: excitation energy (eV) =    5.2797
 Total energy for state 30:                  -575.36863555 au
    <S**2>     :  2.3164
    Trans. Mom.: -0.0000 X  -0.0000 Y   0.9440 Z
    Strength   :     0.1152585402
    D(   43) --> V(    1) amplitude = -0.1790 alpha
    D(   44) --> V(    1) amplitude =  0.4024 alpha
    D(   46) --> V(    2) amplitude =  0.4649 alpha
    D(   46) --> V(    3) amplitude =  0.2148 alpha
    S(    2) --> V(    4) amplitude = -0.3502 alpha
    D(   43) --> S(    2) amplitude = -0.2056 beta
    D(   43) --> V(    1) amplitude =  0.1771 beta
    D(   44) --> V(    2) amplitude =  0.1666 beta
    D(   45) --> S(    2) amplitude =  0.3308 beta
    D(   45) --> V(    1) amplitude = -0.3740 beta

 Excited state  31: excitation energy (eV) =    5.3274
 Total energy for state 31:                  -575.36688283 au
    <S**2>     :  2.0493
    Trans. Mom.: -0.0000 X   0.0000 Y  -0.0000 Z
    Strength   :     0.0000000000
    D(   36) --> S(    1) amplitude =  0.9760 beta

 Excited state  32: excitation energy (eV) =    5.3728
 Total energy for state 32:                  -575.36521571 au
    <S**2>     :  2.5188
    Trans. Mom.:  0.8356 X   0.0000 Y   0.0000 Z
    Strength   :     0.0918978525
    D(   44) --> V(    2) amplitude =  0.3107 alpha
    D(   45) --> V(    1) amplitude = -0.1660 alpha
    S(    2) --> V(   16) amplitude = -0.1988 alpha
    D(   35) --> S(    1) amplitude =  0.7930 beta
    D(   44) --> S(    2) amplitude =  0.1904 beta
    D(   45) --> V(    2) amplitude =  0.2231 beta

 Excited state  33: excitation energy (eV) =    5.5516
 Total energy for state 33:                  -575.35864269 au
    <S**2>     :  3.1337
    Trans. Mom.: -0.0000 X  -0.0000 Y   0.4462 Z
    Strength   :     0.0270839059
    D(   44) --> V(    1) amplitude = -0.4117 alpha
    D(   44) --> V(    4) amplitude =  0.1976 alpha
    D(   45) --> V(    2) amplitude =  0.5752 alpha
    S(    2) --> V(   14) amplitude =  0.1540 alpha
    D(   42) --> S(    2) amplitude =  0.4775 beta
    D(   44) --> V(    2) amplitude =  0.2884 beta
    D(   45) --> V(    6) amplitude =  0.1518 beta

 Excited state  34: excitation energy (eV) =    5.6897
 Total energy for state 34:                  -575.35356790 au
    <S**2>     :  3.0066
    Trans. Mom.:  0.0000 X   0.0239 Y   0.0000 Z
    Strength   :     0.0000793476
    S(    1) --> V(    3) amplitude =  0.9658 alpha
    S(    2) --> V(    9) amplitude = -0.2014 alpha

 Excited state  35: excitation energy (eV) =    5.7101
 Total energy for state 35:                  -575.35281807 au
    <S**2>     :  2.0929
    Trans. Mom.: -0.0000 X  -0.0106 Y   0.0000 Z
    Strength   :     0.0000156248
    S(    1) --> V(    3) amplitude =  0.2363 alpha
    S(    2) --> V(    9) amplitude =  0.8619 alpha
    S(    2) --> V(   10) amplitude =  0.4020 alpha
    S(    2) --> V(   11) amplitude =  0.1530 alpha

 Excited state  36: excitation energy (eV) =    5.7348
 Total energy for state 36:                  -575.35191352 au
    <S**2>     :  2.0549
    Trans. Mom.:  0.0000 X   0.0000 Y   0.0000 Z
    Strength   :     0.0000000000
    S(    2) --> V(    8) amplitude =  0.9955 alpha

 Excited state  37: excitation energy (eV) =    5.7829
 Total energy for state 37:                  -575.35014259 au
    <S**2>     :  2.0338
    Trans. Mom.: -0.6036 X   0.0000 Y   0.0000 Z
    Strength   :     0.0516155174
    D(   45) --> V(    1) amplitude = -0.6319 alpha
    D(   46) --> V(    4) amplitude = -0.1814 alpha
    D(   44) --> V(    1) amplitude =  0.6793 beta
    D(   45) --> V(    2) amplitude = -0.1508 beta

 Excited state  38: excitation energy (eV) =    5.8545
 Total energy for state 38:                  -575.34751437 au
    <S**2>     :  3.4644
    Trans. Mom.: -0.5284 X  -0.0000 Y  -0.0000 Z
    Strength   :     0.0400452458
    D(   43) --> V(    2) amplitude =  0.1567 alpha
    D(   44) --> V(    2) amplitude =  0.4683 alpha
    D(   45) --> V(    1) amplitude = -0.2002 alpha
    D(   35) --> S(    1) amplitude = -0.4321 beta
    D(   45) --> V(    2) amplitude =  0.6398 beta

 Excited state  39: excitation energy (eV) =    5.8618
 Total energy for state 39:                  -575.34724325 au
    <S**2>     :  2.8823
    Trans. Mom.:  0.0000 X   0.0000 Y   0.6898 Z
    Strength   :     0.0683373922
    D(   43) --> V(    1) amplitude = -0.3276 alpha
    D(   44) --> V(    1) amplitude = -0.3921 alpha
    D(   45) --> V(    2) amplitude = -0.2441 alpha
    D(   45) --> V(    3) amplitude = -0.2267 alpha
    D(   46) --> V(    2) amplitude =  0.2573 alpha
    D(   46) --> V(    3) amplitude = -0.2464 alpha
    D(   43) --> S(    2) amplitude = -0.1532 beta
    D(   43) --> V(    1) amplitude =  0.4462 beta
    D(   44) --> V(    2) amplitude = -0.3065 beta
    D(   45) --> V(    1) amplitude =  0.3038 beta

 Excited state  40: excitation energy (eV) =    5.8692
 Total energy for state 40:                  -575.34697421 au
    <S**2>     :  2.0869
    Trans. Mom.:  0.0000 X  -0.0060 Y   0.0000 Z
    Strength   :     0.0000051272
    D(   34) --> S(    1) amplitude =  0.9567 beta

 Excited state  41: excitation energy (eV) =    5.9588
 Total energy for state 41:                  -575.34368023 au
    <S**2>     :  2.0542
    Trans. Mom.:  0.0000 X   0.1000 Y  -0.0000 Z
    Strength   :     0.0014595253
    S(    2) --> V(    9) amplitude = -0.4479 alpha
    S(    2) --> V(   10) amplitude =  0.8572 alpha
    S(    2) --> V(   11) amplitude =  0.1828 alpha

 Excited state  42: excitation energy (eV) =    6.0279
 Total energy for state 42:                  -575.34114246 au
    <S**2>     :  2.1388
    Trans. Mom.:  0.0000 X   0.0000 Y   0.2561 Z
    Strength   :     0.0096845987
    D(   44) --> V(    1) amplitude = -0.1982 alpha
    D(   45) --> V(    2) amplitude =  0.2781 alpha
    D(   46) --> V(    2) amplitude =  0.2128 alpha
    D(   46) --> V(    3) amplitude =  0.6321 alpha
    D(   42) --> S(    2) amplitude = -0.4135 beta
    D(   43) --> S(    2) amplitude = -0.2494 beta
    D(   44) --> V(    2) amplitude = -0.3003 beta
    D(   45) --> V(    1) amplitude =  0.1812 beta

 Excited state  43: excitation energy (eV) =    6.0711
 Total energy for state 43:                  -575.33955485 au
    <S**2>     :  2.1921
    Trans. Mom.:  0.0000 X  -0.0000 Y  -0.0000 Z
    Strength   :     0.0000000000
    S(    1) --> V(    4) amplitude = -0.2030 alpha
    D(   33) --> S(    1) amplitude =  0.8489 beta
    D(   41) --> S(    2) amplitude =  0.3956 beta

 Excited state  44: excitation energy (eV) =    6.0775
 Total energy for state 44:                  -575.33931658 au
    <S**2>     :  2.7601
    Trans. Mom.:  0.0000 X  -0.0342 Y  -0.0000 Z
    Strength   :     0.0001742819
    D(   40) --> S(    2) amplitude =  0.4215 beta
    D(   46) --> V(    3) amplitude =  0.8799 beta

 Excited state  45: excitation energy (eV) =    6.1280
 Total energy for state 45:                  -575.33746232 au
    <S**2>     :  2.1869
    Trans. Mom.:  0.0000 X  -0.0000 Y   0.0000 Z
    Strength   :     0.0000000000
    S(    1) --> V(    4) amplitude = -0.2171 alpha
    D(   33) --> S(    1) amplitude = -0.4495 beta
    D(   41) --> S(    2) amplitude =  0.8299 beta

 Excited state  46: excitation energy (eV) =    6.1499
 Total energy for state 46:                  -575.33665796 au
    <S**2>     :  2.2594
    Trans. Mom.: -0.0000 X   0.0329 Y  -0.0000 Z
    Strength   :     0.0001630393
    D(   36) --> S(    2) amplitude = -0.1676 beta
    D(   40) --> S(    2) amplitude = -0.8586 beta
    D(   46) --> V(    3) amplitude =  0.4282 beta

 Excited state  47: excitation energy (eV) =    6.1743
 Total energy for state 47:                  -575.33576081 au
    <S**2>     :  2.6702
    Trans. Mom.: -0.0000 X   0.0000 Y   0.1053 Z
    Strength   :     0.0016771734
    D(   43) --> V(    1) amplitude =  0.3905 alpha
    D(   44) --> V(    1) amplitude =  0.1641 alpha
    D(   45) --> V(    2) amplitude = -0.2961 alpha
    D(   46) --> V(    3) amplitude =  0.3727 alpha
    S(    2) --> V(   14) amplitude =  0.1636 alpha
    D(   42) --> S(    2) amplitude =  0.5894 beta
    D(   44) --> V(    2) amplitude = -0.3477 beta

 Excited state  48: excitation energy (eV) =    6.2195
 Total energy for state 48:                  -575.33410098 au
    <S**2>     :  3.1196
    Trans. Mom.: -0.0000 X  -0.0000 Y   0.0000 Z
    Strength   :     0.0000000000
    S(    1) --> V(    4) amplitude = -0.9014 alpha
    S(    1) --> V(   14) amplitude = -0.1684 alpha
    D(   41) --> S(    2) amplitude = -0.3217 beta

 Excited state  49: excitation energy (eV) =    6.3555
 Total energy for state 49:                  -575.32910044 au
    <S**2>     :  2.8555
    Trans. Mom.: -0.2874 X   0.0000 Y  -0.0000 Z
    Strength   :     0.0128655043
    D(   43) --> V(    2) amplitude =  0.3716 alpha
    D(   46) --> V(    4) amplitude =  0.4983 alpha
    D(   39) --> S(    2) amplitude =  0.5187 beta
    D(   43) --> V(    2) amplitude = -0.3853 beta
    D(   45) --> V(    2) amplitude = -0.2193 beta
    D(   45) --> V(    3) amplitude = -0.2069 beta

 Excited state  50: excitation energy (eV) =    6.3557
 Total energy for state 50:                  -575.32909316 au
    <S**2>     :  2.0842
    Trans. Mom.:  0.0000 X   0.0080 Y  -0.0000 Z
    Strength   :     0.0000100460
    S(    2) --> V(   11) amplitude =  0.2169 alpha
    D(   32) --> S(    1) amplitude = -0.9446 beta
    D(   46) --> V(    3) amplitude =  0.1529 beta
 
 ---------------------------------------------------
  SETman timing summary (seconds)
  CPU time              6864.03s
  System time              0.00s
  Wall time             7021.56s



            *********SPIN-ORBIT COUPLING JOB USING WIGNER–ECKART THEOREM BEGINS HERE*********

 Calculating one electron integrals:  Completed calculation of one electron integrals!
 Calculating MF integrals:  Completed calculation of MF integrals!
 Calculating S^2 values of the spin-states: S^2 values computed!
 Computing transition densities and evaluating SOCME with Libwe: 

**************************************************
 State A: Root 0
 State B: Root 1


 Analysing Sz ans S^2 of the pair of states...
 Ket state:  Computed S^2 = 2.0242993814 will be treated as 2.0000000000 Sz = 1.0000000000
 Bra state:  Computed S^2 = 2.0264911751 will be treated as 2.0000000000 Sz = 1.0000000000
 Clebsh-Gordan coefficient: <1.000,1.000;1.000,0.000|1.000,1.000> = 0.707

_______________________________
 One-electron SO (cm-1)
 Reduced matrix elements:
 <S|| Hso(L-) ||S'> = (-0.000000,3.888577)
 <S|| Hso(L0) ||S'> = (0.000000,-0.000000)
 <S|| Hso(L+) ||S'> = (-0.000000,-3.888577)

 SOCC = 5.499279


 Actual matrix elements:
       |Sz=-1.00>           |Sz=0.00>           |Sz=1.00>
 <Sz=-1.00|(0.000000,0.000000)(-0.000000,-2.749639)(-0.000000,-0.000000)
 <Sz=0.00|(0.000000,-2.749639)(0.000000,0.000000)(-0.000000,-2.749639)
 <Sz=1.00|(-0.000000,0.000000)(0.000000,-2.749639)(0.000000,-0.000000)
_______________________________
 Mean-field SO (cm-1)
 Reduced matrix elements:
 <S|| Hso(L-) ||S'> = (0.000000,2.011825)
 <S|| Hso(L0) ||S'> = (0.000000,-0.000000)
 <S|| Hso(L+) ||S'> = (0.000000,-2.026559)

 Singlet part of <S|| Hso(L0) ||S'> = (-0.000000,-0.000000) (excluded from all matrix elements)
 L-/L+ Averaged reduced matrix elements:
 <S|| Hso(L-) ||S'> = (0.000000,2.019192)
 <S|| Hso(L+) ||S'> = (0.000000,-2.019192)

 SOCC = 2.855568


 Actual matrix elements:
       |Sz=-1.00>           |Sz=0.00>           |Sz=1.00>
 <Sz=-1.00|(-0.000000,0.000000)(0.000000,-1.427784)(0.000000,-0.000000)
 <Sz=0.00|(-0.000000,-1.427784)(-0.000000,0.000000)(0.000000,-1.427784)
 <Sz=1.00|(0.000000,0.000000)(-0.000000,-1.427784)(-0.000000,-0.000000)
_______________________________

**************************************************

**************************************************
 State A: Root 0
 State B: Root 2


 Analysing Sz ans S^2 of the pair of states...
 Ket state:  Computed S^2 = 2.024299 will be treated as 2.000000 Sz = 1.000000
 Bra state:  Computed S^2 = 2.053441 will be treated as 2.000000 Sz = 1.000000
 Clebsh-Gordan coefficient: <1.000,1.000;1.000,0.000|1.000,1.000> = 0.707

_______________________________
 One-electron SO (cm-1)
 Reduced matrix elements:
 <S|| Hso(L-) ||S'> = (-1.262299,0.000000)
 <S|| Hso(L0) ||S'> = (0.000000,0.000000)
 <S|| Hso(L+) ||S'> = (-1.262299,-0.000000)

 SOCC = 1.785160


 Actual matrix elements:
       |Sz=-1.00>           |Sz=0.00>           |Sz=1.00>
 <Sz=-1.00|(0.000000,-0.000000)(-0.892580,-0.000000)(-0.000000,0.000000)
 <Sz=0.00|(0.892580,-0.000000)(0.000000,0.000000)(-0.892580,-0.000000)
 <Sz=1.00|(-0.000000,0.000000)(0.892580,-0.000000)(0.000000,0.000000)
_______________________________
 Mean-field SO (cm-1)
 Reduced matrix elements:
 <S|| Hso(L-) ||S'> = (-0.026901,0.000000)
 <S|| Hso(L0) ||S'> = (0.000000,0.000000)
 <S|| Hso(L+) ||S'> = (-0.031866,-0.000000)

 Singlet part of <S|| Hso(L0) ||S'> = (0.000000,0.000000) (excluded from all matrix elements)
 L-/L+ Averaged reduced matrix elements:
 <S|| Hso(L-) ||S'> = (-0.029384,0.000000)
 <S|| Hso(L+) ||S'> = (-0.029384,-0.000000)

 SOCC = 0.041555


 Actual matrix elements:
       |Sz=-1.00>           |Sz=0.00>           |Sz=1.00>
 <Sz=-1.00|(0.000000,-0.000000)(-0.020777,-0.000000)(-0.000000,0.000000)
 <Sz=0.00|(0.020777,-0.000000)(0.000000,0.000000)(-0.020777,-0.000000)
 <Sz=1.00|(-0.000000,0.000000)(0.020777,-0.000000)(0.000000,0.000000)
_______________________________

**************************************************

**************************************************
 State A: Root 0
 State B: Root 3


 Analysing Sz ans S^2 of the pair of states...
 Ket state:  Computed S^2 = 2.024299 will be treated as 2.000000 Sz = 1.000000
 Bra state:  Computed S^2 = 2.076344 will be treated as 2.000000 Sz = 1.000000
 Clebsh-Gordan coefficient: <1.000,1.000;1.000,0.000|1.000,1.000> = 0.707

_______________________________
 One-electron SO (cm-1)
 Reduced matrix elements:
 <S|| Hso(L-) ||S'> = (0.000000,-0.000000)
 <S|| Hso(L0) ||S'> = (0.000000,-0.000000)
 <S|| Hso(L+) ||S'> = (0.000000,0.000000)

 SOCC = 0.000000


 Actual matrix elements:
       |Sz=-1.00>           |Sz=0.00>           |Sz=1.00>
 <Sz=-1.00|(-0.000000,0.000000)(0.000000,0.000000)(0.000000,-0.000000)
 <Sz=0.00|(-0.000000,0.000000)(-0.000000,-0.000000)(0.000000,0.000000)
 <Sz=1.00|(0.000000,-0.000000)(-0.000000,0.000000)(-0.000000,-0.000000)
_______________________________
 Mean-field SO (cm-1)
 Reduced matrix elements:
 <S|| Hso(L-) ||S'> = (0.000000,-0.000000)
 <S|| Hso(L0) ||S'> = (0.000000,-0.000000)
 <S|| Hso(L+) ||S'> = (0.000000,0.000000)

 Singlet part of <S|| Hso(L0) ||S'> = (-0.000000,-0.000000) (excluded from all matrix elements)
 L-/L+ Averaged reduced matrix elements:
 <S|| Hso(L-) ||S'> = (0.000000,-0.000000)
 <S|| Hso(L+) ||S'> = (0.000000,0.000000)

 SOCC = 0.000000


 Actual matrix elements:
       |Sz=-1.00>           |Sz=0.00>           |Sz=1.00>
 <Sz=-1.00|(-0.000000,0.000000)(0.000000,0.000000)(0.000000,-0.000000)
 <Sz=0.00|(-0.000000,0.000000)(-0.000000,-0.000000)(0.000000,0.000000)
 <Sz=1.00|(0.000000,-0.000000)(-0.000000,0.000000)(-0.000000,-0.000000)
_______________________________

**************************************************

**************************************************
 State A: Root 0
 State B: Root 4


 Analysing Sz ans S^2 of the pair of states...
 Ket state:  Computed S^2 = 2.024299 will be treated as 2.000000 Sz = 1.000000
 Bra state:  Computed S^2 = 2.027889 will be treated as 2.000000 Sz = 1.000000
 Clebsh-Gordan coefficient: <1.000,1.000;1.000,0.000|1.000,1.000> = 0.707

_______________________________
 One-electron SO (cm-1)
 Reduced matrix elements:
 <S|| Hso(L-) ||S'> = (-0.000000,0.000000)
 <S|| Hso(L0) ||S'> = (0.000000,-0.000000)
 <S|| Hso(L+) ||S'> = (-0.000000,-0.000000)

 SOCC = 0.000000


 Actual matrix elements:
       |Sz=-1.00>           |Sz=0.00>           |Sz=1.00>
 <Sz=-1.00|(0.000000,0.000000)(-0.000000,-0.000000)(-0.000000,-0.000000)
 <Sz=0.00|(0.000000,-0.000000)(0.000000,0.000000)(-0.000000,-0.000000)
 <Sz=1.00|(-0.000000,0.000000)(0.000000,-0.000000)(0.000000,-0.000000)
_______________________________
 Mean-field SO (cm-1)
 Reduced matrix elements:
 <S|| Hso(L-) ||S'> = (-0.000000,0.000000)
 <S|| Hso(L0) ||S'> = (0.000000,-0.000000)
 <S|| Hso(L+) ||S'> = (-0.000000,-0.000000)

 Singlet part of <S|| Hso(L0) ||S'> = (0.000000,0.000000) (excluded from all matrix elements)
 L-/L+ Averaged reduced matrix elements:
 <S|| Hso(L-) ||S'> = (-0.000000,0.000000)
 <S|| Hso(L+) ||S'> = (-0.000000,-0.000000)

 SOCC = 0.000000


 Actual matrix elements:
       |Sz=-1.00>           |Sz=0.00>           |Sz=1.00>
 <Sz=-1.00|(0.000000,0.000000)(-0.000000,-0.000000)(-0.000000,-0.000000)
 <Sz=0.00|(0.000000,-0.000000)(0.000000,0.000000)(-0.000000,-0.000000)
 <Sz=1.00|(-0.000000,0.000000)(0.000000,-0.000000)(0.000000,-0.000000)
_______________________________

**************************************************

**************************************************
 State A: Root 0
 State B: Root 5


 Analysing Sz ans S^2 of the pair of states...
 Ket state:  Computed S^2 = 2.024299 will be treated as 2.000000 Sz = 1.000000
 Bra state:  Computed S^2 = 2.046206 will be treated as 2.000000 Sz = 1.000000
 Clebsh-Gordan coefficient: <1.000,1.000;1.000,0.000|1.000,1.000> = 0.707

_______________________________
 One-electron SO (cm-1)
 Reduced matrix elements:
 <S|| Hso(L-) ||S'> = (-0.002978,0.000000)
 <S|| Hso(L0) ||S'> = (0.000000,-0.000000)
 <S|| Hso(L+) ||S'> = (-0.002978,-0.000000)

 SOCC = 0.004212


 Actual matrix elements:
       |Sz=-1.00>           |Sz=0.00>           |Sz=1.00>
 <Sz=-1.00|(0.000000,0.000000)(-0.002106,-0.000000)(-0.000000,-0.000000)
 <Sz=0.00|(0.002106,-0.000000)(0.000000,0.000000)(-0.002106,-0.000000)
 <Sz=1.00|(-0.000000,-0.000000)(0.002106,-0.000000)(0.000000,-0.000000)
_______________________________
 Mean-field SO (cm-1)
 Reduced matrix elements:
 <S|| Hso(L-) ||S'> = (-0.038111,0.000000)
 <S|| Hso(L0) ||S'> = (0.000000,-0.000000)
 <S|| Hso(L+) ||S'> = (-0.047355,-0.000000)

 Singlet part of <S|| Hso(L0) ||S'> = (0.000000,0.000000) (excluded from all matrix elements)
 L-/L+ Averaged reduced matrix elements:
 <S|| Hso(L-) ||S'> = (-0.042733,0.000000)
 <S|| Hso(L+) ||S'> = (-0.042733,-0.000000)

 SOCC = 0.060434


 Actual matrix elements:
       |Sz=-1.00>           |Sz=0.00>           |Sz=1.00>
 <Sz=-1.00|(0.000000,0.000000)(-0.030217,-0.000000)(-0.000000,-0.000000)
 <Sz=0.00|(0.030217,-0.000000)(0.000000,-0.000000)(-0.030217,-0.000000)
 <Sz=1.00|(-0.000000,-0.000000)(0.030217,-0.000000)(0.000000,-0.000000)
_______________________________

**************************************************

**************************************************
 State A: Root 0
 State B: Root 6


 Analysing Sz ans S^2 of the pair of states...
 Ket state:  Computed S^2 = 2.024299 will be treated as 2.000000 Sz = 1.000000
 Bra state:  Computed S^2 = 2.116992 will be treated as 2.000000 Sz = 1.000000
 Clebsh-Gordan coefficient: <1.000,1.000;1.000,0.000|1.000,1.000> = 0.707

_______________________________
 One-electron SO (cm-1)
 Reduced matrix elements:
 <S|| Hso(L-) ||S'> = (-0.000000,0.000000)
 <S|| Hso(L0) ||S'> = (0.000000,-79.764166)
 <S|| Hso(L+) ||S'> = (-0.000000,-0.000000)

 SOCC = 79.764166


 Actual matrix elements:
       |Sz=-1.00>           |Sz=0.00>           |Sz=1.00>
 <Sz=-1.00|(0.000000,56.401782)(-0.000000,-0.000000)(-0.000000,-0.000000)
 <Sz=0.00|(0.000000,-0.000000)(0.000000,-0.000000)(-0.000000,-0.000000)
 <Sz=1.00|(-0.000000,-0.000000)(0.000000,-0.000000)(0.000000,-56.401782)
_______________________________
 Mean-field SO (cm-1)
 Reduced matrix elements:
 <S|| Hso(L-) ||S'> = (-0.000000,0.000000)
 <S|| Hso(L0) ||S'> = (0.000000,-50.805369)
 <S|| Hso(L+) ||S'> = (-0.000000,-0.000000)

 Singlet part of <S|| Hso(L0) ||S'> = (-0.000000,-0.070709) (excluded from all matrix elements)
 L-/L+ Averaged reduced matrix elements:
 <S|| Hso(L-) ||S'> = (-0.000000,0.000000)
 <S|| Hso(L+) ||S'> = (-0.000000,-0.000000)

 SOCC = 50.805369


 Actual matrix elements:
       |Sz=-1.00>           |Sz=0.00>           |Sz=1.00>
 <Sz=-1.00|(0.000000,35.924821)(-0.000000,-0.000000)(-0.000000,-0.000000)
 <Sz=0.00|(0.000000,-0.000000)(0.000000,-0.000000)(-0.000000,-0.000000)
 <Sz=1.00|(-0.000000,-0.000000)(0.000000,-0.000000)(0.000000,-35.924821)
_______________________________

**************************************************

**************************************************
 State A: Root 0
 State B: Root 7


 Analysing Sz ans S^2 of the pair of states...
 Ket state:  Computed S^2 = 2.024299 will be treated as 2.000000 Sz = 1.000000
 Bra state:  Computed S^2 = 2.088004 will be treated as 2.000000 Sz = 1.000000
 Clebsh-Gordan coefficient: <1.000,1.000;1.000,0.000|1.000,1.000> = 0.707

_______________________________
 One-electron SO (cm-1)
 Reduced matrix elements:
 <S|| Hso(L-) ||S'> = (1.079333,-0.000000)
 <S|| Hso(L0) ||S'> = (0.000000,0.000000)
 <S|| Hso(L+) ||S'> = (1.079333,0.000000)

 SOCC = 1.526407


 Actual matrix elements:
       |Sz=-1.00>           |Sz=0.00>           |Sz=1.00>
 <Sz=-1.00|(-0.000000,-0.000000)(0.763204,0.000000)(0.000000,0.000000)
 <Sz=0.00|(-0.763204,0.000000)(-0.000000,0.000000)(0.763204,0.000000)
 <Sz=1.00|(0.000000,0.000000)(-0.763204,0.000000)(-0.000000,0.000000)
_______________________________
 Mean-field SO (cm-1)
 Reduced matrix elements:
 <S|| Hso(L-) ||S'> = (-0.099625,0.000000)
 <S|| Hso(L0) ||S'> = (0.000000,0.000000)
 <S|| Hso(L+) ||S'> = (-0.108870,-0.000000)

 Singlet part of <S|| Hso(L0) ||S'> = (-0.000000,-0.000000) (excluded from all matrix elements)
 L-/L+ Averaged reduced matrix elements:
 <S|| Hso(L-) ||S'> = (-0.104248,0.000000)
 <S|| Hso(L+) ||S'> = (-0.104248,-0.000000)

 SOCC = 0.147429


 Actual matrix elements:
       |Sz=-1.00>           |Sz=0.00>           |Sz=1.00>
 <Sz=-1.00|(0.000000,-0.000000)(-0.073714,-0.000000)(-0.000000,0.000000)
 <Sz=0.00|(0.073714,-0.000000)(0.000000,0.000000)(-0.073714,-0.000000)
 <Sz=1.00|(-0.000000,0.000000)(0.073714,-0.000000)(0.000000,0.000000)
_______________________________

**************************************************

**************************************************
 State A: Root 0
 State B: Root 8


 Analysing Sz ans S^2 of the pair of states...
 Ket state:  Computed S^2 = 2.024299 will be treated as 2.000000 Sz = 1.000000
 Bra state:  Computed S^2 = 2.059622 will be treated as 2.000000 Sz = 1.000000
 Clebsh-Gordan coefficient: <1.000,1.000;1.000,0.000|1.000,1.000> = 0.707

_______________________________
 One-electron SO (cm-1)
 Reduced matrix elements:
 <S|| Hso(L-) ||S'> = (-0.377762,-0.000000)
 <S|| Hso(L0) ||S'> = (0.000000,0.000000)
 <S|| Hso(L+) ||S'> = (-0.377762,0.000000)

 SOCC = 0.534236


 Actual matrix elements:
       |Sz=-1.00>           |Sz=0.00>           |Sz=1.00>
 <Sz=-1.00|(0.000000,-0.000000)(-0.267118,0.000000)(-0.000000,0.000000)
 <Sz=0.00|(0.267118,0.000000)(0.000000,0.000000)(-0.267118,0.000000)
 <Sz=1.00|(-0.000000,0.000000)(0.267118,0.000000)(0.000000,0.000000)
_______________________________
 Mean-field SO (cm-1)
 Reduced matrix elements:
 <S|| Hso(L-) ||S'> = (0.051929,-0.000000)
 <S|| Hso(L0) ||S'> = (0.000000,0.000000)
 <S|| Hso(L+) ||S'> = (0.054831,0.000000)

 Singlet part of <S|| Hso(L0) ||S'> = (-0.000000,-0.000000) (excluded from all matrix elements)
 L-/L+ Averaged reduced matrix elements:
 <S|| Hso(L-) ||S'> = (0.053380,-0.000000)
 <S|| Hso(L+) ||S'> = (0.053380,0.000000)

 SOCC = 0.075491


 Actual matrix elements:
       |Sz=-1.00>           |Sz=0.00>           |Sz=1.00>
 <Sz=-1.00|(-0.000000,-0.000000)(0.037745,0.000000)(0.000000,0.000000)
 <Sz=0.00|(-0.037745,0.000000)(-0.000000,0.000000)(0.037745,0.000000)
 <Sz=1.00|(0.000000,0.000000)(-0.037745,0.000000)(-0.000000,0.000000)
_______________________________

**************************************************

**************************************************
 State A: Root 0
 State B: Root 9


 Analysing Sz ans S^2 of the pair of states...
 Ket state:  Computed S^2 = 2.024299 will be treated as 2.000000 Sz = 1.000000
 Bra state:  Computed S^2 = 2.036699 will be treated as 2.000000 Sz = 1.000000
 Clebsh-Gordan coefficient: <1.000,1.000;1.000,0.000|1.000,1.000> = 0.707

_______________________________
 One-electron SO (cm-1)
 Reduced matrix elements:
 <S|| Hso(L-) ||S'> = (-0.000000,-0.858315)
 <S|| Hso(L0) ||S'> = (0.000000,0.000000)
 <S|| Hso(L+) ||S'> = (-0.000000,0.858315)

 SOCC = 1.213840


 Actual matrix elements:
       |Sz=-1.00>           |Sz=0.00>           |Sz=1.00>
 <Sz=-1.00|(0.000000,-0.000000)(-0.000000,0.606920)(-0.000000,0.000000)
 <Sz=0.00|(0.000000,0.606920)(0.000000,-0.000000)(-0.000000,0.606920)
 <Sz=1.00|(-0.000000,-0.000000)(0.000000,0.606920)(0.000000,0.000000)
_______________________________
 Mean-field SO (cm-1)
 Reduced matrix elements:
 <S|| Hso(L-) ||S'> = (0.000000,-0.352258)
 <S|| Hso(L0) ||S'> = (0.000000,0.000000)
 <S|| Hso(L+) ||S'> = (0.000000,0.342967)

 Singlet part of <S|| Hso(L0) ||S'> = (-0.000000,-0.000000) (excluded from all matrix elements)
 L-/L+ Averaged reduced matrix elements:
 <S|| Hso(L-) ||S'> = (0.000000,-0.347613)
 <S|| Hso(L+) ||S'> = (0.000000,0.347613)

 SOCC = 0.491598


 Actual matrix elements:
       |Sz=-1.00>           |Sz=0.00>           |Sz=1.00>
 <Sz=-1.00|(-0.000000,-0.000000)(0.000000,0.245799)(0.000000,0.000000)
 <Sz=0.00|(-0.000000,0.245799)(-0.000000,-0.000000)(0.000000,0.245799)
 <Sz=1.00|(0.000000,-0.000000)(-0.000000,0.245799)(-0.000000,0.000000)
_______________________________

**************************************************

**************************************************
 State A: Root 0
 State B: Root 10


 Analysing Sz ans S^2 of the pair of states...
 Ket state:  Computed S^2 = 2.024299 will be treated as 2.000000 Sz = 1.000000
 Bra state:  Computed S^2 = 2.258963 will be treated as 2.000000 Sz = 1.000000
 Clebsh-Gordan coefficient: <1.000,1.000;1.000,0.000|1.000,1.000> = 0.707

_______________________________
 One-electron SO (cm-1)
 Reduced matrix elements:
 <S|| Hso(L-) ||S'> = (0.000000,0.000000)
 <S|| Hso(L0) ||S'> = (0.000000,0.000000)
 <S|| Hso(L+) ||S'> = (0.000000,-0.000000)

 SOCC = 0.000000


 Actual matrix elements:
       |Sz=-1.00>           |Sz=0.00>           |Sz=1.00>
 <Sz=-1.00|(-0.000000,-0.000000)(0.000000,-0.000000)(0.000000,0.000000)
 <Sz=0.00|(-0.000000,-0.000000)(-0.000000,0.000000)(0.000000,-0.000000)
 <Sz=1.00|(0.000000,0.000000)(-0.000000,-0.000000)(-0.000000,0.000000)
_______________________________
 Mean-field SO (cm-1)
 Reduced matrix elements:
 <S|| Hso(L-) ||S'> = (-0.000000,0.000000)
 <S|| Hso(L0) ||S'> = (0.000000,0.000000)
 <S|| Hso(L+) ||S'> = (-0.000000,-0.000000)

 Singlet part of <S|| Hso(L0) ||S'> = (0.000000,0.000000) (excluded from all matrix elements)
 L-/L+ Averaged reduced matrix elements:
 <S|| Hso(L-) ||S'> = (-0.000000,0.000000)
 <S|| Hso(L+) ||S'> = (-0.000000,-0.000000)

 SOCC = 0.000000


 Actual matrix elements:
       |Sz=-1.00>           |Sz=0.00>           |Sz=1.00>
 <Sz=-1.00|(0.000000,-0.000000)(-0.000000,-0.000000)(-0.000000,0.000000)
 <Sz=0.00|(0.000000,-0.000000)(0.000000,0.000000)(-0.000000,-0.000000)
 <Sz=1.00|(-0.000000,0.000000)(0.000000,-0.000000)(0.000000,0.000000)
_______________________________

**************************************************

**************************************************
 State A: Root 0
 State B: Root 11


 Analysing Sz ans S^2 of the pair of states...
 Ket state:  Computed S^2 = 2.024299 will be treated as 2.000000 Sz = 1.000000
 Bra state:  Computed S^2 = 2.062222 will be treated as 2.000000 Sz = 1.000000
 Clebsh-Gordan coefficient: <1.000,1.000;1.000,0.000|1.000,1.000> = 0.707

_______________________________
 One-electron SO (cm-1)
 Reduced matrix elements:
 <S|| Hso(L-) ||S'> = (-0.244381,0.000000)
 <S|| Hso(L0) ||S'> = (0.000000,0.000000)
 <S|| Hso(L+) ||S'> = (-0.244381,-0.000000)

 SOCC = 0.345607


 Actual matrix elements:
       |Sz=-1.00>           |Sz=0.00>           |Sz=1.00>
 <Sz=-1.00|(0.000000,-0.000000)(-0.172804,-0.000000)(-0.000000,-0.000000)
 <Sz=0.00|(0.172804,-0.000000)(0.000000,0.000000)(-0.172804,-0.000000)
 <Sz=1.00|(-0.000000,0.000000)(0.172804,-0.000000)(0.000000,0.000000)
_______________________________
 Mean-field SO (cm-1)
 Reduced matrix elements:
 <S|| Hso(L-) ||S'> = (0.041729,0.000000)
 <S|| Hso(L0) ||S'> = (0.000000,0.000000)
 <S|| Hso(L+) ||S'> = (0.053828,-0.000000)

 Singlet part of <S|| Hso(L0) ||S'> = (-0.000000,-0.000000) (excluded from all matrix elements)
 L-/L+ Averaged reduced matrix elements:
 <S|| Hso(L-) ||S'> = (0.047778,0.000000)
 <S|| Hso(L+) ||S'> = (0.047778,-0.000000)

 SOCC = 0.067569


 Actual matrix elements:
       |Sz=-1.00>           |Sz=0.00>           |Sz=1.00>
 <Sz=-1.00|(-0.000000,-0.000000)(0.033784,-0.000000)(0.000000,-0.000000)
 <Sz=0.00|(-0.033784,-0.000000)(-0.000000,0.000000)(0.033784,-0.000000)
 <Sz=1.00|(0.000000,0.000000)(-0.033784,-0.000000)(-0.000000,0.000000)
_______________________________

**************************************************

**************************************************
 State A: Root 0
 State B: Root 12


 Analysing Sz ans S^2 of the pair of states...
 Ket state:  Computed S^2 = 2.024299 will be treated as 2.000000 Sz = 1.000000
 Bra state:  Computed S^2 = 2.035907 will be treated as 2.000000 Sz = 1.000000
 Clebsh-Gordan coefficient: <1.000,1.000;1.000,0.000|1.000,1.000> = 0.707

_______________________________
 One-electron SO (cm-1)
 Reduced matrix elements:
 <S|| Hso(L-) ||S'> = (0.000000,0.000000)
 <S|| Hso(L0) ||S'> = (0.000000,1.495354)
 <S|| Hso(L+) ||S'> = (0.000000,-0.000000)

 SOCC = 1.495354


 Actual matrix elements:
       |Sz=-1.00>           |Sz=0.00>           |Sz=1.00>
 <Sz=-1.00|(-0.000000,-1.057375)(0.000000,-0.000000)(0.000000,0.000000)
 <Sz=0.00|(-0.000000,-0.000000)(-0.000000,0.000000)(0.000000,-0.000000)
 <Sz=1.00|(0.000000,0.000000)(-0.000000,-0.000000)(-0.000000,1.057375)
_______________________________
 Mean-field SO (cm-1)
 Reduced matrix elements:
 <S|| Hso(L-) ||S'> = (-0.000000,0.000000)
 <S|| Hso(L0) ||S'> = (0.000000,0.761785)
 <S|| Hso(L+) ||S'> = (-0.000000,-0.000000)

 Singlet part of <S|| Hso(L0) ||S'> = (-0.000000,-0.001802) (excluded from all matrix elements)
 L-/L+ Averaged reduced matrix elements:
 <S|| Hso(L-) ||S'> = (-0.000000,0.000000)
 <S|| Hso(L+) ||S'> = (-0.000000,-0.000000)

 SOCC = 0.761785


 Actual matrix elements:
       |Sz=-1.00>           |Sz=0.00>           |Sz=1.00>
 <Sz=-1.00|(0.000000,-0.538663)(-0.000000,-0.000000)(-0.000000,0.000000)
 <Sz=0.00|(0.000000,-0.000000)(0.000000,0.000000)(-0.000000,-0.000000)
 <Sz=1.00|(-0.000000,0.000000)(0.000000,-0.000000)(0.000000,0.538663)
_______________________________

**************************************************

**************************************************
 State A: Root 0
 State B: Root 13


 Analysing Sz ans S^2 of the pair of states...
 Ket state:  Computed S^2 = 2.024299 will be treated as 2.000000 Sz = 1.000000
WARNING! The deviation of S^2 from the correct value is large, indicating a significant spin contamination. The results may be unreliable
 Bra state:  Computed S^2 = 3.117932 will be treated as 2.000000 Sz = 1.000000
 Clebsh-Gordan coefficient: <1.000,1.000;1.000,0.000|1.000,1.000> = 0.707

_______________________________
 One-electron SO (cm-1)
 Reduced matrix elements:
 <S|| Hso(L-) ||S'> = (-0.000000,0.000000)
 <S|| Hso(L0) ||S'> = (0.000000,-23.067706)
 <S|| Hso(L+) ||S'> = (-0.000000,-0.000000)

 SOCC = 23.067706


 Actual matrix elements:
       |Sz=-1.00>           |Sz=0.00>           |Sz=1.00>
 <Sz=-1.00|(0.000000,16.311331)(-0.000000,-0.000000)(-0.000000,-0.000000)
 <Sz=0.00|(0.000000,-0.000000)(0.000000,-0.000000)(-0.000000,-0.000000)
 <Sz=1.00|(-0.000000,-0.000000)(0.000000,-0.000000)(0.000000,-16.311331)
_______________________________
 Mean-field SO (cm-1)
 Reduced matrix elements:
 <S|| Hso(L-) ||S'> = (-0.000000,0.000000)
 <S|| Hso(L0) ||S'> = (0.000000,-14.670379)
 <S|| Hso(L+) ||S'> = (-0.000000,-0.000000)

 Singlet part of <S|| Hso(L0) ||S'> = (0.000000,0.026664) (excluded from all matrix elements)
 L-/L+ Averaged reduced matrix elements:
 <S|| Hso(L-) ||S'> = (-0.000000,0.000000)
 <S|| Hso(L+) ||S'> = (-0.000000,-0.000000)

 SOCC = 14.670379


 Actual matrix elements:
       |Sz=-1.00>           |Sz=0.00>           |Sz=1.00>
 <Sz=-1.00|(0.000000,10.373525)(-0.000000,-0.000000)(-0.000000,-0.000000)
 <Sz=0.00|(0.000000,-0.000000)(0.000000,-0.000000)(-0.000000,-0.000000)
 <Sz=1.00|(-0.000000,-0.000000)(0.000000,-0.000000)(0.000000,-10.373525)
_______________________________

**************************************************

**************************************************
 State A: Root 0
 State B: Root 14


 Analysing Sz ans S^2 of the pair of states...
 Ket state:  Computed S^2 = 2.024299 will be treated as 2.000000 Sz = 1.000000
 Bra state:  Computed S^2 = 2.124316 will be treated as 2.000000 Sz = 1.000000
 Clebsh-Gordan coefficient: <1.000,1.000;1.000,0.000|1.000,1.000> = 0.707

_______________________________
 One-electron SO (cm-1)
 Reduced matrix elements:
 <S|| Hso(L-) ||S'> = (-0.000000,0.000000)
 <S|| Hso(L0) ||S'> = (0.000000,-0.000000)
 <S|| Hso(L+) ||S'> = (-0.000000,-0.000000)

 SOCC = 0.000000


 Actual matrix elements:
       |Sz=-1.00>           |Sz=0.00>           |Sz=1.00>
 <Sz=-1.00|(0.000000,0.000000)(-0.000000,-0.000000)(-0.000000,-0.000000)
 <Sz=0.00|(0.000000,-0.000000)(0.000000,-0.000000)(-0.000000,-0.000000)
 <Sz=1.00|(-0.000000,-0.000000)(0.000000,-0.000000)(0.000000,-0.000000)
_______________________________
 Mean-field SO (cm-1)
 Reduced matrix elements:
 <S|| Hso(L-) ||S'> = (-0.000000,-0.000000)
 <S|| Hso(L0) ||S'> = (0.000000,-0.000000)
 <S|| Hso(L+) ||S'> = (-0.000000,0.000000)

 Singlet part of <S|| Hso(L0) ||S'> = (-0.000000,-0.000000) (excluded from all matrix elements)
 L-/L+ Averaged reduced matrix elements:
 <S|| Hso(L-) ||S'> = (-0.000000,-0.000000)
 <S|| Hso(L+) ||S'> = (-0.000000,0.000000)

 SOCC = 0.000000


 Actual matrix elements:
       |Sz=-1.00>           |Sz=0.00>           |Sz=1.00>
 <Sz=-1.00|(0.000000,0.000000)(-0.000000,0.000000)(-0.000000,-0.000000)
 <Sz=0.00|(0.000000,0.000000)(0.000000,-0.000000)(-0.000000,0.000000)
 <Sz=1.00|(-0.000000,-0.000000)(0.000000,0.000000)(0.000000,-0.000000)
_______________________________

**************************************************

**************************************************
 State A: Root 0
 State B: Root 15


 Analysing Sz ans S^2 of the pair of states...
 Ket state:  Computed S^2 = 2.024299 will be treated as 2.000000 Sz = 1.000000
 Bra state:  Computed S^2 = 2.069855 will be treated as 2.000000 Sz = 1.000000
 Clebsh-Gordan coefficient: <1.000,1.000;1.000,0.000|1.000,1.000> = 0.707

_______________________________
 One-electron SO (cm-1)
 Reduced matrix elements:
 <S|| Hso(L-) ||S'> = (-0.276484,0.000000)
 <S|| Hso(L0) ||S'> = (0.000000,0.000000)
 <S|| Hso(L+) ||S'> = (-0.276484,-0.000000)

 SOCC = 0.391007


 Actual matrix elements:
       |Sz=-1.00>           |Sz=0.00>           |Sz=1.00>
 <Sz=-1.00|(0.000000,-0.000000)(-0.195504,-0.000000)(-0.000000,0.000000)
 <Sz=0.00|(0.195504,-0.000000)(0.000000,0.000000)(-0.195504,-0.000000)
 <Sz=1.00|(-0.000000,0.000000)(0.195504,-0.000000)(0.000000,0.000000)
_______________________________
 Mean-field SO (cm-1)
 Reduced matrix elements:
 <S|| Hso(L-) ||S'> = (-0.033748,0.000000)
 <S|| Hso(L0) ||S'> = (0.000000,0.000000)
 <S|| Hso(L+) ||S'> = (-0.029494,-0.000000)

 Singlet part of <S|| Hso(L0) ||S'> = (-0.000000,-0.000000) (excluded from all matrix elements)
 L-/L+ Averaged reduced matrix elements:
 <S|| Hso(L-) ||S'> = (-0.031621,0.000000)
 <S|| Hso(L+) ||S'> = (-0.031621,-0.000000)

 SOCC = 0.044719


 Actual matrix elements:
       |Sz=-1.00>           |Sz=0.00>           |Sz=1.00>
 <Sz=-1.00|(0.000000,-0.000000)(-0.022360,-0.000000)(-0.000000,0.000000)
 <Sz=0.00|(0.022360,-0.000000)(0.000000,0.000000)(-0.022360,-0.000000)
 <Sz=1.00|(-0.000000,0.000000)(0.022360,-0.000000)(0.000000,0.000000)
_______________________________

**************************************************

**************************************************
 State A: Root 0
 State B: Root 16


 Analysing Sz ans S^2 of the pair of states...
 Ket state:  Computed S^2 = 2.024299 will be treated as 2.000000 Sz = 1.000000
WARNING! The deviation of S^2 from the correct value is large, indicating a significant spin contamination. The results may be unreliable
 Bra state:  Computed S^2 = 2.835765 will be treated as 2.000000 Sz = 1.000000
 Clebsh-Gordan coefficient: <1.000,1.000;1.000,0.000|1.000,1.000> = 0.707

_______________________________
 One-electron SO (cm-1)
 Reduced matrix elements:
 <S|| Hso(L-) ||S'> = (0.000000,-0.000000)
 <S|| Hso(L0) ||S'> = (0.000000,6.724289)
 <S|| Hso(L+) ||S'> = (0.000000,0.000000)

 SOCC = 6.724289


 Actual matrix elements:
       |Sz=-1.00>           |Sz=0.00>           |Sz=1.00>
 <Sz=-1.00|(-0.000000,-4.754790)(0.000000,0.000000)(0.000000,0.000000)
 <Sz=0.00|(-0.000000,0.000000)(-0.000000,0.000000)(0.000000,0.000000)
 <Sz=1.00|(0.000000,0.000000)(-0.000000,0.000000)(-0.000000,4.754790)
_______________________________
 Mean-field SO (cm-1)
 Reduced matrix elements:
 <S|| Hso(L-) ||S'> = (0.000000,-0.000000)
 <S|| Hso(L0) ||S'> = (0.000000,4.361957)
 <S|| Hso(L+) ||S'> = (0.000000,0.000000)

 Singlet part of <S|| Hso(L0) ||S'> = (0.000000,0.011195) (excluded from all matrix elements)
 L-/L+ Averaged reduced matrix elements:
 <S|| Hso(L-) ||S'> = (0.000000,-0.000000)
 <S|| Hso(L+) ||S'> = (0.000000,0.000000)

 SOCC = 4.361957


 Actual matrix elements:
       |Sz=-1.00>           |Sz=0.00>           |Sz=1.00>
 <Sz=-1.00|(-0.000000,-3.084370)(0.000000,0.000000)(0.000000,0.000000)
 <Sz=0.00|(-0.000000,0.000000)(-0.000000,0.000000)(0.000000,0.000000)
 <Sz=1.00|(0.000000,0.000000)(-0.000000,0.000000)(-0.000000,3.084370)
_______________________________

**************************************************

**************************************************
 State A: Root 0
 State B: Root 17


 Analysing Sz ans S^2 of the pair of states...
 Ket state:  Computed S^2 = 2.024299 will be treated as 2.000000 Sz = 1.000000
WARNING! The deviation of S^2 from the correct value is large, indicating a significant spin contamination. The results may be unreliable
 Bra state:  Computed S^2 = 3.755058 will be treated as 6.000000 Sz = 1.000000
 Clebsh-Gordan coefficient: <1.000,1.000;1.000,0.000|2.000,1.000> = 0.707

_______________________________
 One-electron SO (cm-1)
 Reduced matrix elements:
 <S|| Hso(L-) ||S'> = (-1.217171,0.000000)
 <S|| Hso(L0) ||S'> = (0.000000,0.000000)
 <S|| Hso(L+) ||S'> = (-1.217171,-0.000000)

 SOCC = 2.222240


 Actual matrix elements:
       |Sz=-1.00>           |Sz=0.00>           |Sz=1.00>
 <Sz=-2.00|(-1.217171,-0.000000)(0.000000,0.000000)(0.000000,0.000000)
 <Sz=-1.00|(-0.000000,0.000000)(-0.860670,-0.000000)(-0.000000,-0.000000)
 <Sz=0.00|(-0.496908,0.000000)(0.000000,0.000000)(-0.496908,-0.000000)
 <Sz=1.00|(-0.000000,0.000000)(-0.860670,0.000000)(-0.000000,0.000000)
 <Sz=2.00|(0.000000,0.000000)(0.000000,0.000000)(-1.217171,0.000000)
_______________________________
 Mean-field SO (cm-1)
 Reduced matrix elements:
 <S|| Hso(L-) ||S'> = (0.017874,0.000000)
 <S|| Hso(L0) ||S'> = (0.000000,0.000000)
 <S|| Hso(L+) ||S'> = (0.017825,-0.000000)

 Singlet part of <S|| Hso(L0) ||S'> = (-0.000000,-0.000000) (excluded from all matrix elements)
 L-/L+ Averaged reduced matrix elements:
 <S|| Hso(L-) ||S'> = (0.017850,0.000000)
 <S|| Hso(L+) ||S'> = (0.017850,-0.000000)

 SOCC = 0.032589


 Actual matrix elements:
       |Sz=-1.00>           |Sz=0.00>           |Sz=1.00>
 <Sz=-2.00|(0.017850,-0.000000)(0.000000,0.000000)(0.000000,0.000000)
 <Sz=-1.00|(0.000000,0.000000)(0.012622,-0.000000)(0.000000,-0.000000)
 <Sz=0.00|(0.007287,0.000000)(-0.000000,0.000000)(0.007287,-0.000000)
 <Sz=1.00|(0.000000,0.000000)(0.012622,0.000000)(0.000000,0.000000)
 <Sz=2.00|(0.000000,0.000000)(0.000000,0.000000)(0.017850,0.000000)
_______________________________

**************************************************

**************************************************
 State A: Root 0
 State B: Root 18


 Analysing Sz ans S^2 of the pair of states...
 Ket state:  Computed S^2 = 2.024299 will be treated as 2.000000 Sz = 1.000000
 Bra state:  Computed S^2 = 2.118436 will be treated as 2.000000 Sz = 1.000000
 Clebsh-Gordan coefficient: <1.000,1.000;1.000,0.000|1.000,1.000> = 0.707

_______________________________
 One-electron SO (cm-1)
 Reduced matrix elements:
 <S|| Hso(L-) ||S'> = (-0.000000,-0.000000)
 <S|| Hso(L0) ||S'> = (0.000000,0.000000)
 <S|| Hso(L+) ||S'> = (-0.000000,0.000000)

 SOCC = 0.000000


 Actual matrix elements:
       |Sz=-1.00>           |Sz=0.00>           |Sz=1.00>
 <Sz=-1.00|(0.000000,-0.000000)(-0.000000,0.000000)(-0.000000,0.000000)
 <Sz=0.00|(0.000000,0.000000)(0.000000,-0.000000)(-0.000000,0.000000)
 <Sz=1.00|(-0.000000,0.000000)(0.000000,0.000000)(0.000000,0.000000)
_______________________________
 Mean-field SO (cm-1)
 Reduced matrix elements:
 <S|| Hso(L-) ||S'> = (-0.000000,-0.000000)
 <S|| Hso(L0) ||S'> = (0.000000,0.000000)
 <S|| Hso(L+) ||S'> = (-0.000000,0.000000)

 Singlet part of <S|| Hso(L0) ||S'> = (0.000000,0.000000) (excluded from all matrix elements)
 L-/L+ Averaged reduced matrix elements:
 <S|| Hso(L-) ||S'> = (-0.000000,-0.000000)
 <S|| Hso(L+) ||S'> = (-0.000000,0.000000)

 SOCC = 0.000000


 Actual matrix elements:
       |Sz=-1.00>           |Sz=0.00>           |Sz=1.00>
 <Sz=-1.00|(0.000000,-0.000000)(-0.000000,0.000000)(-0.000000,0.000000)
 <Sz=0.00|(0.000000,0.000000)(0.000000,0.000000)(-0.000000,0.000000)
 <Sz=1.00|(-0.000000,0.000000)(0.000000,0.000000)(0.000000,0.000000)
_______________________________

**************************************************

**************************************************
 State A: Root 0
 State B: Root 19


 Analysing Sz ans S^2 of the pair of states...
 Ket state:  Computed S^2 = 2.024299 will be treated as 2.000000 Sz = 1.000000
 Bra state:  Computed S^2 = 2.057798 will be treated as 2.000000 Sz = 1.000000
 Clebsh-Gordan coefficient: <1.000,1.000;1.000,0.000|1.000,1.000> = 0.707

_______________________________
 One-electron SO (cm-1)
 Reduced matrix elements:
 <S|| Hso(L-) ||S'> = (-0.000000,-3.790534)
 <S|| Hso(L0) ||S'> = (0.000000,0.000000)
 <S|| Hso(L+) ||S'> = (-0.000000,3.790534)

 SOCC = 5.360625


 Actual matrix elements:
       |Sz=-1.00>           |Sz=0.00>           |Sz=1.00>
 <Sz=-1.00|(0.000000,-0.000000)(-0.000000,2.680312)(-0.000000,0.000000)
 <Sz=0.00|(0.000000,2.680312)(0.000000,-0.000000)(-0.000000,2.680312)
 <Sz=1.00|(-0.000000,-0.000000)(0.000000,2.680312)(0.000000,0.000000)
_______________________________
 Mean-field SO (cm-1)
 Reduced matrix elements:
 <S|| Hso(L-) ||S'> = (0.000000,-1.792300)
 <S|| Hso(L0) ||S'> = (0.000000,0.000000)
 <S|| Hso(L+) ||S'> = (-0.000000,1.789285)

 Singlet part of <S|| Hso(L0) ||S'> = (-0.000000,-0.000000) (excluded from all matrix elements)
 L-/L+ Averaged reduced matrix elements:
 <S|| Hso(L-) ||S'> = (-0.000000,-1.790793)
 <S|| Hso(L+) ||S'> = (-0.000000,1.790793)

 SOCC = 2.532563


 Actual matrix elements:
       |Sz=-1.00>           |Sz=0.00>           |Sz=1.00>
 <Sz=-1.00|(0.000000,-0.000000)(-0.000000,1.266282)(-0.000000,0.000000)
 <Sz=0.00|(0.000000,1.266282)(0.000000,-0.000000)(-0.000000,1.266282)
 <Sz=1.00|(-0.000000,-0.000000)(0.000000,1.266282)(0.000000,0.000000)
_______________________________

**************************************************

**************************************************
 State A: Root 0
 State B: Root 20


 Analysing Sz ans S^2 of the pair of states...
 Ket state:  Computed S^2 = 2.024299 will be treated as 2.000000 Sz = 1.000000
 Bra state:  Computed S^2 = 2.051077 will be treated as 2.000000 Sz = 1.000000
 Clebsh-Gordan coefficient: <1.000,1.000;1.000,0.000|1.000,1.000> = 0.707

_______________________________
 One-electron SO (cm-1)
 Reduced matrix elements:
 <S|| Hso(L-) ||S'> = (0.000000,0.000000)
 <S|| Hso(L0) ||S'> = (0.000000,1.663189)
 <S|| Hso(L+) ||S'> = (0.000000,-0.000000)

 SOCC = 1.663189


 Actual matrix elements:
       |Sz=-1.00>           |Sz=0.00>           |Sz=1.00>
 <Sz=-1.00|(-0.000000,-1.176052)(0.000000,-0.000000)(0.000000,0.000000)
 <Sz=0.00|(-0.000000,-0.000000)(-0.000000,0.000000)(0.000000,-0.000000)
 <Sz=1.00|(0.000000,0.000000)(-0.000000,-0.000000)(-0.000000,1.176052)
_______________________________
 Mean-field SO (cm-1)
 Reduced matrix elements:
 <S|| Hso(L-) ||S'> = (0.000000,0.000000)
 <S|| Hso(L0) ||S'> = (0.000000,0.926405)
 <S|| Hso(L+) ||S'> = (0.000000,-0.000000)

 Singlet part of <S|| Hso(L0) ||S'> = (-0.000000,-0.010649) (excluded from all matrix elements)
 L-/L+ Averaged reduced matrix elements:
 <S|| Hso(L-) ||S'> = (0.000000,0.000000)
 <S|| Hso(L+) ||S'> = (0.000000,-0.000000)

 SOCC = 0.926405


 Actual matrix elements:
       |Sz=-1.00>           |Sz=0.00>           |Sz=1.00>
 <Sz=-1.00|(-0.000000,-0.655067)(0.000000,-0.000000)(0.000000,0.000000)
 <Sz=0.00|(-0.000000,-0.000000)(-0.000000,0.000000)(0.000000,-0.000000)
 <Sz=1.00|(0.000000,0.000000)(-0.000000,-0.000000)(-0.000000,0.655067)
_______________________________

**************************************************

**************************************************
 State A: Root 0
 State B: Root 21


 Analysing Sz ans S^2 of the pair of states...
 Ket state:  Computed S^2 = 2.024299 will be treated as 2.000000 Sz = 1.000000
 Bra state:  Computed S^2 = 2.051710 will be treated as 2.000000 Sz = 1.000000
 Clebsh-Gordan coefficient: <1.000,1.000;1.000,0.000|1.000,1.000> = 0.707

_______________________________
 One-electron SO (cm-1)
 Reduced matrix elements:
 <S|| Hso(L-) ||S'> = (0.000000,1.670193)
 <S|| Hso(L0) ||S'> = (0.000000,-0.000000)
 <S|| Hso(L+) ||S'> = (0.000000,-1.670193)

 SOCC = 2.362009


 Actual matrix elements:
       |Sz=-1.00>           |Sz=0.00>           |Sz=1.00>
 <Sz=-1.00|(-0.000000,0.000000)(0.000000,-1.181005)(0.000000,-0.000000)
 <Sz=0.00|(-0.000000,-1.181005)(-0.000000,0.000000)(0.000000,-1.181005)
 <Sz=1.00|(0.000000,0.000000)(-0.000000,-1.181005)(-0.000000,-0.000000)
_______________________________
 Mean-field SO (cm-1)
 Reduced matrix elements:
 <S|| Hso(L-) ||S'> = (0.000000,0.937850)
 <S|| Hso(L0) ||S'> = (0.000000,-0.000000)
 <S|| Hso(L+) ||S'> = (0.000000,-0.940835)

 Singlet part of <S|| Hso(L0) ||S'> = (0.000000,0.000000) (excluded from all matrix elements)
 L-/L+ Averaged reduced matrix elements:
 <S|| Hso(L-) ||S'> = (0.000000,0.939342)
 <S|| Hso(L+) ||S'> = (0.000000,-0.939342)

 SOCC = 1.328430


 Actual matrix elements:
       |Sz=-1.00>           |Sz=0.00>           |Sz=1.00>
 <Sz=-1.00|(-0.000000,0.000000)(0.000000,-0.664215)(0.000000,-0.000000)
 <Sz=0.00|(-0.000000,-0.664215)(-0.000000,0.000000)(0.000000,-0.664215)
 <Sz=1.00|(0.000000,0.000000)(-0.000000,-0.664215)(-0.000000,-0.000000)
_______________________________

**************************************************

**************************************************
 State A: Root 0
 State B: Root 22


 Analysing Sz ans S^2 of the pair of states...
 Ket state:  Computed S^2 = 2.024299 will be treated as 2.000000 Sz = 1.000000
WARNING! The deviation of S^2 from the correct value is large, indicating a significant spin contamination. The results may be unreliable
 Bra state:  Computed S^2 = 3.496119 will be treated as 2.000000 Sz = 1.000000
 Clebsh-Gordan coefficient: <1.000,1.000;1.000,0.000|1.000,1.000> = 0.707

_______________________________
 One-electron SO (cm-1)
 Reduced matrix elements:
 <S|| Hso(L-) ||S'> = (0.000000,0.000000)
 <S|| Hso(L0) ||S'> = (0.000000,0.000000)
 <S|| Hso(L+) ||S'> = (0.000000,-0.000000)

 SOCC = 0.000000


 Actual matrix elements:
       |Sz=-1.00>           |Sz=0.00>           |Sz=1.00>
 <Sz=-1.00|(-0.000000,-0.000000)(0.000000,-0.000000)(0.000000,0.000000)
 <Sz=0.00|(-0.000000,-0.000000)(-0.000000,0.000000)(0.000000,-0.000000)
 <Sz=1.00|(0.000000,0.000000)(-0.000000,-0.000000)(-0.000000,0.000000)
_______________________________
 Mean-field SO (cm-1)
 Reduced matrix elements:
 <S|| Hso(L-) ||S'> = (0.000000,0.000000)
 <S|| Hso(L0) ||S'> = (0.000000,0.000000)
 <S|| Hso(L+) ||S'> = (0.000000,-0.000000)

 Singlet part of <S|| Hso(L0) ||S'> = (0.000000,0.000000) (excluded from all matrix elements)
 L-/L+ Averaged reduced matrix elements:
 <S|| Hso(L-) ||S'> = (0.000000,0.000000)
 <S|| Hso(L+) ||S'> = (0.000000,-0.000000)

 SOCC = 0.000000


 Actual matrix elements:
       |Sz=-1.00>           |Sz=0.00>           |Sz=1.00>
 <Sz=-1.00|(-0.000000,-0.000000)(0.000000,-0.000000)(0.000000,0.000000)
 <Sz=0.00|(-0.000000,-0.000000)(-0.000000,0.000000)(0.000000,-0.000000)
 <Sz=1.00|(0.000000,0.000000)(-0.000000,-0.000000)(-0.000000,0.000000)
_______________________________

**************************************************

**************************************************
 State A: Root 0
 State B: Root 23


 Analysing Sz ans S^2 of the pair of states...
 Ket state:  Computed S^2 = 2.024299 will be treated as 2.000000 Sz = 1.000000
 Bra state:  Computed S^2 = 2.226187 will be treated as 2.000000 Sz = 1.000000
 Clebsh-Gordan coefficient: <1.000,1.000;1.000,0.000|1.000,1.000> = 0.707

_______________________________
 One-electron SO (cm-1)
 Reduced matrix elements:
 <S|| Hso(L-) ||S'> = (0.000000,0.000000)
 <S|| Hso(L0) ||S'> = (0.000000,0.000000)
 <S|| Hso(L+) ||S'> = (0.000000,-0.000000)

 SOCC = 0.000000


 Actual matrix elements:
       |Sz=-1.00>           |Sz=0.00>           |Sz=1.00>
 <Sz=-1.00|(-0.000000,-0.000000)(0.000000,-0.000000)(0.000000,0.000000)
 <Sz=0.00|(-0.000000,-0.000000)(-0.000000,0.000000)(0.000000,-0.000000)
 <Sz=1.00|(0.000000,0.000000)(-0.000000,-0.000000)(-0.000000,0.000000)
_______________________________
 Mean-field SO (cm-1)
 Reduced matrix elements:
 <S|| Hso(L-) ||S'> = (0.000000,0.000000)
 <S|| Hso(L0) ||S'> = (0.000000,0.000000)
 <S|| Hso(L+) ||S'> = (0.000000,-0.000000)

 Singlet part of <S|| Hso(L0) ||S'> = (0.000000,0.000000) (excluded from all matrix elements)
 L-/L+ Averaged reduced matrix elements:
 <S|| Hso(L-) ||S'> = (0.000000,0.000000)
 <S|| Hso(L+) ||S'> = (0.000000,-0.000000)

 SOCC = 0.000000


 Actual matrix elements:
       |Sz=-1.00>           |Sz=0.00>           |Sz=1.00>
 <Sz=-1.00|(-0.000000,-0.000000)(0.000000,-0.000000)(0.000000,0.000000)
 <Sz=0.00|(-0.000000,-0.000000)(-0.000000,0.000000)(0.000000,-0.000000)
 <Sz=1.00|(0.000000,0.000000)(-0.000000,-0.000000)(-0.000000,0.000000)
_______________________________

**************************************************

**************************************************
 State A: Root 0
 State B: Root 24


 Analysing Sz ans S^2 of the pair of states...
 Ket state:  Computed S^2 = 2.024299 will be treated as 2.000000 Sz = 1.000000
 Bra state:  Computed S^2 = 2.056541 will be treated as 2.000000 Sz = 1.000000
 Clebsh-Gordan coefficient: <1.000,1.000;1.000,0.000|1.000,1.000> = 0.707

_______________________________
 One-electron SO (cm-1)
 Reduced matrix elements:
 <S|| Hso(L-) ||S'> = (-0.000000,-0.000000)
 <S|| Hso(L0) ||S'> = (0.000000,-6.173355)
 <S|| Hso(L+) ||S'> = (-0.000000,0.000000)

 SOCC = 6.173355


 Actual matrix elements:
       |Sz=-1.00>           |Sz=0.00>           |Sz=1.00>
 <Sz=-1.00|(0.000000,4.365221)(-0.000000,0.000000)(-0.000000,-0.000000)
 <Sz=0.00|(0.000000,0.000000)(0.000000,-0.000000)(-0.000000,0.000000)
 <Sz=1.00|(-0.000000,-0.000000)(0.000000,0.000000)(0.000000,-4.365221)
_______________________________
 Mean-field SO (cm-1)
 Reduced matrix elements:
 <S|| Hso(L-) ||S'> = (-0.000000,-0.000000)
 <S|| Hso(L0) ||S'> = (0.000000,-3.796972)
 <S|| Hso(L+) ||S'> = (-0.000000,0.000000)

 Singlet part of <S|| Hso(L0) ||S'> = (0.000000,0.006582) (excluded from all matrix elements)
 L-/L+ Averaged reduced matrix elements:
 <S|| Hso(L-) ||S'> = (-0.000000,-0.000000)
 <S|| Hso(L+) ||S'> = (-0.000000,0.000000)

 SOCC = 3.796972


 Actual matrix elements:
       |Sz=-1.00>           |Sz=0.00>           |Sz=1.00>
 <Sz=-1.00|(0.000000,2.684864)(-0.000000,0.000000)(-0.000000,-0.000000)
 <Sz=0.00|(0.000000,0.000000)(0.000000,-0.000000)(-0.000000,0.000000)
 <Sz=1.00|(-0.000000,-0.000000)(0.000000,0.000000)(0.000000,-2.684864)
_______________________________

**************************************************

**************************************************
 State A: Root 0
 State B: Root 25


 Analysing Sz ans S^2 of the pair of states...
 Ket state:  Computed S^2 = 2.024299 will be treated as 2.000000 Sz = 1.000000
WARNING! The deviation of S^2 from the correct value is large, indicating a significant spin contamination. The results may be unreliable
 Bra state:  Computed S^2 = 3.234997 will be treated as 2.000000 Sz = 1.000000
 Clebsh-Gordan coefficient: <1.000,1.000;1.000,0.000|1.000,1.000> = 0.707

_______________________________
 One-electron SO (cm-1)
 Reduced matrix elements:
 <S|| Hso(L-) ||S'> = (-0.000000,7.058194)
 <S|| Hso(L0) ||S'> = (0.000000,0.000000)
 <S|| Hso(L+) ||S'> = (-0.000000,-7.058194)

 SOCC = 9.981794


 Actual matrix elements:
       |Sz=-1.00>           |Sz=0.00>           |Sz=1.00>
 <Sz=-1.00|(0.000000,-0.000000)(-0.000000,-4.990897)(-0.000000,-0.000000)
 <Sz=0.00|(0.000000,-4.990897)(0.000000,0.000000)(-0.000000,-4.990897)
 <Sz=1.00|(-0.000000,0.000000)(0.000000,-4.990897)(0.000000,0.000000)
_______________________________
 Mean-field SO (cm-1)
 Reduced matrix elements:
 <S|| Hso(L-) ||S'> = (-0.000000,3.551226)
 <S|| Hso(L0) ||S'> = (0.000000,0.000000)
 <S|| Hso(L+) ||S'> = (-0.000000,-3.579880)

 Singlet part of <S|| Hso(L0) ||S'> = (0.000000,0.000000) (excluded from all matrix elements)
[...]
 22 A1   17 B1    3 B2    4 B2    2 A2    3 A2   18 B1    5 B2                 
 -- Virtual --                   
 -0.064  -0.033  -0.001   0.031   0.035   0.044   0.059   0.078
  6 B2    4 A2    5 A2    7 B2   23 A1   19 B1   24 A1   20 B1                 
  0.082   0.093   0.108   0.109   0.124   0.130   0.130   0.143
 25 A1   26 A1   27 A1   21 B1   22 B1    8 B2   23 B1    6 A2                 
  0.148   0.170   0.176   0.184   0.193   0.194   0.197   0.199
 28 A1   29 A1    9 B2   30 A1   31 A1   24 B1   32 A1    7 A2                 
  0.203   0.208   0.219   0.227   0.237   0.247   0.253   0.257
 25 B1   26 B1   10 B2   33 A1   11 B2    8 A2   34 A1   27 B1                 
  0.264   0.277   0.279   0.288   0.292   0.302   0.306   0.309
 28 B1   35 A1   29 B1   36 A1    9 A2   12 B2   13 B2   37 A1                 
  0.310   0.332   0.340   0.345   0.351   0.358   0.366   0.366
 30 B1   38 A1   31 B1   10 A2   39 A1   32 B1   40 A1   11 A2                 
  0.372   0.376   0.382   0.394   0.399   0.401   0.418   0.418
 14 B2   33 B1   34 B1   41 A1   42 A1   35 B1   15 B2   43 A1                 
  0.424   0.439   0.444   0.452   0.453   0.464   0.470   0.479
 36 B1   44 A1   12 A2   45 A1   37 B1   46 A1   38 B1   39 B1                 
  0.489   0.490   0.498   0.498   0.520   0.541   0.559   0.563
 16 B2   47 A1   40 B1   48 A1   41 B1   42 B1   49 A1   43 B1                 
  0.567   0.593   0.603   0.617   0.622   0.636   0.639   0.647
 17 B2   13 A2   50 A1   44 B1   51 A1   52 A1   45 B1   53 A1                 
  0.662   0.663   0.665   0.667   0.673   0.684   0.706   0.707
 14 A2   18 B2   46 B1   54 A1   47 B1   55 A1   15 A2   48 B1                 
  0.711   0.714   0.733   0.738   0.748   0.756   0.783   0.785
 49 B1   19 B2   20 B2   56 A1   57 A1   50 B1   51 B1   58 A1                 
  0.792   0.795   0.823   0.833   0.836   0.840   0.846   0.870
 21 B2   16 A2   59 A1   52 B1   22 B2   53 B1   60 A1   61 A1                 
  0.873   0.873   0.891   0.905   0.912   0.932   0.953   0.964
 17 A2   54 B1   62 A1   55 B1   56 B1   63 A1   18 A2   57 B1                 
  0.969   0.987   1.003   1.013   1.020   1.042   1.046   1.048
 64 A1   23 B2   65 A1   66 A1   19 A2   24 B2   67 A1   58 B1                 
  1.068   1.094   1.101   1.130   1.138   1.144   1.162   1.165
 59 B1   25 B2   20 A2   21 A2   68 A1   60 B1   26 B2   69 A1                 
  1.175   1.188   1.201   1.205   1.213   1.225   1.228   1.240
 61 B1   70 A1   27 B2   71 A1   62 B1   72 A1   63 B1   73 A1                 
  1.251   1.270   1.310   1.314   1.315   1.315   1.327   1.336
 64 B1   22 A2   74 A1   65 B1   28 B2   23 A2   66 B1   75 A1                 
  1.347   1.353   1.378   1.381   1.407   1.410   1.433   1.439
 67 B1   29 B2   76 A1   24 A2   77 A1   68 B1   25 A2   69 B1                 
  1.450   1.456   1.464   1.482   1.511   1.525   1.528   1.537
 78 A1   30 B2   31 B2   26 A2   70 B1   79 A1   71 B1   80 A1                 
  1.548   1.572   1.575   1.579   1.590   1.611   1.634   1.636
 81 A1   32 B2   72 B1   27 A2   33 B2   73 B1   82 A1   28 A2                 
  1.643   1.655   1.664   1.675   1.684   1.688   1.691   1.700
 34 B2   83 A1   74 B1   84 A1   85 A1   35 B2   29 A2   75 B1                 
  1.718   1.744   1.749   1.789   1.806   1.819   1.825   1.848
 76 B1   30 A2   86 A1   77 B1   36 B2   31 A2   87 A1   37 B2                 
  1.859   1.892   1.900   1.907   1.962   1.976   1.986   2.011
 32 A2   33 A2   38 B2   88 A1   78 B1   39 B2   34 A2   89 A1                 
  2.028   2.028   2.030   2.037   2.068   2.068   2.084   2.089
 35 A2   79 B1   90 A1   80 B1   81 B1   91 A1   92 A1   40 B2                 
  2.110   2.117   2.143   2.159   2.166   2.181   2.200   2.201
 82 B1   93 A1   94 A1   83 B1   95 A1   84 B1   96 A1   85 B1                 
  2.246   2.280   2.292   2.306   2.314   2.314   2.339   2.396
 86 B1   97 A1   41 B2   87 B1   42 B2   98 A1   36 A2   88 B1                 
  2.400   2.420   2.423   2.427   2.436   2.448   2.482   2.524
 99 A1  100 A1   37 A2   89 B1  101 A1   90 B1   43 B2  102 A1                 
  2.537   2.553   2.571   2.580   2.582   2.591   2.596   2.601
 91 B1   92 B1  103 A1   44 B2  104 A1   93 B1  105 A1   94 B1                 
  2.605   2.628   2.638   2.638   2.639   2.664   2.682   2.697
 38 A2  106 A1   39 A2   45 B2   95 B1   46 B2   96 B1   47 B2                 
  2.697   2.702   2.713   2.714   2.718   2.720   2.721   2.759
 40 A2   97 B1   98 B1  107 A1   48 B2   41 A2  108 A1  109 A1                 
  2.763   2.795   2.802   2.806   2.810   2.820   2.839   2.844
 49 B2   99 B1   42 A2  100 B1  110 A1   50 B2  111 A1  101 B1                 
  2.863   2.866   2.872   2.891   2.897   2.908   2.920   2.927
112 A1   43 A2  102 B1   44 A2  113 A1  103 B1   51 B2   52 B2                 
  2.933   2.941   2.967   2.982   2.992   2.995   3.003   3.025
114 A1  104 B1  115 A1  116 A1   45 A2   53 B2  105 B1   46 A2                 
  3.031   3.031   3.043   3.053   3.068   3.086   3.102   3.113
 47 A2   54 B2   55 B2  117 A1   56 B2  118 A1  119 A1  106 B1                 
  3.127   3.139   3.143   3.153   3.153   3.159   3.163   3.171
107 B1   48 A2  120 A1  108 B1   57 B2  121 A1  109 B1   49 A2                 
  3.181   3.205   3.207   3.215   3.235   3.240   3.253   3.263
 50 A2  110 B1   58 B2  122 A1  111 B1   51 A2  123 A1   59 B2                 
  3.276   3.286   3.287   3.303   3.323   3.333   3.341   3.346
112 B1   60 B2  124 A1  125 A1   52 A2  113 B1   61 B2  114 B1                 
  3.349   3.379   3.383   3.386   3.389   3.400   3.417   3.435
126 A1   62 B2  115 B1  127 A1   53 A2   63 B2  128 A1  116 B1                 
  3.452   3.455   3.465   3.487   3.492   3.503   3.515   3.517
117 B1  129 A1   54 A2   64 B2   55 A2  130 A1   56 A2  118 B1                 
  3.532   3.534   3.540   3.541   3.545   3.559   3.562   3.592
131 A1  119 B1   57 A2  120 B1   65 B2  132 A1   58 A2  133 A1                 
  3.597   3.641   3.650   3.663   3.686   3.736   3.759   3.798
121 B1  134 A1  122 B1   66 B2   59 A2  123 B1  135 A1  124 B1                 
  3.802   3.806   3.821   3.848   3.877   3.885   3.887   3.909
 60 A2   67 B2  136 A1  137 A1  125 B1   68 B2  126 B1  138 A1                 
  3.917   3.938   3.988   4.012   4.026   4.027   4.043   4.050
127 B1  139 A1  140 A1  141 A1   69 B2  128 B1   70 B2  129 B1                 
  4.070   4.098   4.111   4.129   4.136   4.168   4.173   4.182
142 A1  130 B1   61 A2   62 A2  143 A1  144 A1   71 B2  131 B1                 
  4.203   4.212   4.220   4.242   4.248   4.288   4.293   4.298
 63 A2   72 B2  145 A1  132 B1   64 A2   65 A2  133 B1   73 B2                 
  4.316   4.352   4.402   4.407   4.426   4.432   4.432   4.536
134 B1  146 A1  135 B1  147 A1  136 B1  148 A1   66 A2  149 A1                 
  4.553   4.612   4.623   4.627   4.670   4.684   4.723   4.743
 74 B2   75 B2  150 A1  137 B1  138 B1  151 A1  152 A1  139 B1                 
  4.747   4.762   4.773   4.798   4.872   4.889   4.924   4.952
 67 A2   68 A2  153 A1  140 B1  154 A1  141 B1  155 A1  142 B1                 
  4.992   5.019   5.044   5.107   5.198   5.213   5.234   5.250
143 B1  156 A1  144 B1  157 A1  145 B1   76 B2  158 A1  146 B1                 
  5.250   5.292   5.366   5.399   5.515   5.529   5.553   5.627
159 A1  147 B1  148 B1  160 A1  161 A1  149 B1  162 A1   69 A2                 
  5.642   5.731   5.801   5.958   6.163   6.390   6.470   6.617
150 B1  151 B1  163 A1  152 B1   77 B2   70 A2  164 A1  165 A1                 
  6.820   6.835   7.107   7.213  21.879  22.451  22.466  22.567
153 B1   78 B2  166 A1  154 B1  167 A1  155 B1  168 A1  156 B1                 
 22.597  22.639  22.660  22.890  22.944  23.115  23.372  23.512
169 A1  170 A1  157 B1  171 A1  158 B1  159 B1  172 A1  173 A1                 
 23.599  43.991
160 B1  174 A1                                                                 
 
 Beta MOs, Unrestricted
 -- Occupied --                  
-19.079 -10.230 -10.208 -10.207 -10.206 -10.206 -10.204 -10.204
  1 A1    2 A1    3 A1    1 B1    2 B1    4 A1    3 B1    5 A1                 
-10.200 -10.200 -10.196 -10.196 -10.195 -10.195  -0.998  -0.896
  4 B1    6 A1    5 B1    7 A1    6 B1    8 A1    9 A1   10 A1                 
 -0.862  -0.811  -0.782  -0.769  -0.723  -0.678  -0.651  -0.605
  7 B1   11 A1   12 A1    8 B1    9 B1   13 A1   14 A1   10 B1                 
 -0.591  -0.571  -0.528  -0.517  -0.492  -0.465  -0.461  -0.451
 11 B1   15 A1   16 A1   12 B1   17 A1   18 A1   13 B1   14 B1                 
 -0.443  -0.438  -0.418  -0.408  -0.387  -0.386  -0.367  -0.358
 19 A1   15 B1    1 B2   20 A1   16 B1   21 A1    1 A2   22 A1                 
 -0.354  -0.349  -0.295  -0.276  -0.265  -0.235
 17 B1    2 B2    3 B2    2 A2    4 B2   18 B1                                 
 -- Virtual --                   
 -0.177  -0.086  -0.051  -0.008   0.020   0.036   0.045   0.055
  3 A2    5 B2    6 B2    4 A2    5 A2   23 A1   19 B1    7 B2                 
  0.060   0.079   0.082   0.095   0.110   0.110   0.126   0.131
 24 A1   20 B1   25 A1   26 A1   21 B1   27 A1   22 B1   23 B1                 
  0.150   0.154   0.167   0.171   0.180   0.188   0.195   0.196
 28 A1    8 B2    6 A2   29 A1    9 B2   30 A1   24 B1   31 A1                 
  0.200   0.203   0.206   0.209   0.221   0.229   0.244   0.248
 32 A1    7 A2   25 B1   26 B1   10 B2   33 A1   11 B2    8 A2                 
  0.255   0.260   0.268   0.282   0.283   0.293   0.299   0.309
 34 A1   27 B1   28 B1   29 B1   35 A1   36 A1    9 A2   12 B2                 
  0.313   0.313   0.316   0.336   0.346   0.354   0.354   0.365
 37 A1   13 B2   30 B1   38 A1   31 B1   39 A1   10 A2   32 B1                 
  0.368   0.372   0.374   0.381   0.382   0.397   0.401   0.404
 40 A1   11 A2   14 B2   33 B1   34 B1   41 A1   42 A1   35 B1                 
  0.421   0.426   0.426   0.441   0.453   0.455   0.455   0.465
 43 A1   36 B1   15 B2   44 A1   12 A2   45 A1   37 B1   46 A1                 
  0.472   0.482   0.492   0.498   0.501   0.501   0.522   0.543
 38 B1   39 B1   47 A1   16 B2   48 A1   40 B1   41 B1   42 B1                 
  0.562   0.565   0.576   0.599   0.606   0.621   0.625   0.640
 49 A1   43 B1   17 B2   13 A2   50 A1   44 B1   51 A1   52 A1                 
  0.642   0.650   0.668   0.670   0.671   0.671   0.677   0.685
 45 B1   53 A1   46 B1   54 A1   14 A2   18 B2   47 B1   55 A1                 
  0.709   0.712   0.714   0.722   0.739   0.740   0.752   0.759
 48 B1   15 A2   49 B1   19 B2   56 A1   20 B2   57 A1   50 B1                 
  0.786   0.788   0.801   0.803   0.826   0.835   0.843   0.846
 51 B1   58 A1   21 B2   16 A2   59 A1   52 B1   53 B1   22 B2                 
  0.848   0.875   0.875   0.880   0.893   0.906   0.915   0.936
 60 A1   54 B1   61 A1   17 A2   62 A1   55 B1   56 B1   63 A1                 
  0.961   0.968   0.975   0.991   1.007   1.016   1.027   1.049
 18 A2   57 B1   64 A1   23 B2   65 A1   66 A1   19 A2   67 A1                 
  1.050   1.051   1.074   1.102   1.107   1.137   1.143   1.145
 58 B1   24 B2   59 B1   25 B2   20 A2   21 A2   68 A1   60 B1                 
  1.168   1.170   1.180   1.191   1.207   1.211   1.215   1.227
 69 A1   26 B2   61 B1   70 A1   71 A1   27 B2   62 B1   72 A1                 
  1.233   1.242   1.254   1.279   1.314   1.316   1.321   1.324
 63 B1   73 A1   64 B1   22 A2   74 A1   65 B1   28 B2   23 A2                 
  1.329   1.338   1.351   1.365   1.383   1.393   1.409   1.415
 66 B1   75 A1   67 B1   29 B2   76 A1   24 A2   77 A1   68 B1                 
  1.442   1.444   1.452   1.464   1.479   1.493   1.514   1.528
 69 B1   25 A2   78 A1   30 B2   31 B2   26 A2   70 B1   79 A1                 
  1.530   1.537   1.551   1.579   1.581   1.593   1.602   1.614
 71 B1   80 A1   81 A1   72 B1   32 B2   27 A2   33 B2   73 B1                 
  1.636   1.646   1.649   1.660   1.666   1.681   1.686   1.695
 82 A1   28 A2   34 B2   83 A1   74 B1   84 A1   85 A1   35 B2                 
  1.699   1.704   1.720   1.752   1.752   1.790   1.813   1.826
 29 A2   75 B1   76 B1   30 A2   86 A1   77 B1   36 B2   31 A2                 
  1.829   1.861   1.869   1.905   1.906   1.913   1.966   1.981
 87 A1   37 B2   32 A2   38 B2   33 A2   88 A1   78 B1   39 B2                 
  1.992   2.015   2.031   2.033   2.036   2.042   2.073   2.073
 34 A2   89 A1   35 A2   79 B1   90 A1   80 B1   81 B1   91 A1                 
  2.088   2.100   2.116   2.123   2.150   2.165   2.171   2.185
 92 A1   40 B2   82 B1   93 A1   94 A1   83 B1   95 A1   84 B1                 
  2.204   2.204   2.250   2.285   2.299   2.312   2.318   2.324
 85 B1   96 A1   86 B1   97 A1   41 B2   87 B1   98 A1   42 B2                 
  2.346   2.400   2.403   2.425   2.430   2.432   2.440   2.453
 36 A2   88 B1   99 A1  100 A1   37 A2   89 B1  101 A1   90 B1                 
  2.491   2.532   2.540   2.556   2.574   2.583   2.594   2.595
 43 B2  102 A1   91 B1   92 B1  103 A1  104 A1   44 B2   93 B1                 
  2.599   2.604   2.615   2.631   2.642   2.644   2.645   2.677
105 A1   94 B1   38 A2  106 A1   95 B1   39 A2   45 B2   46 B2                 
  2.687   2.705   2.705   2.706   2.717   2.718   2.725   2.726
 96 B1   40 A2   97 B1   47 B2   98 B1  107 A1  108 A1   41 A2                 
  2.727   2.766   2.771   2.800   2.810   2.811   2.813   2.827
 48 B2  109 A1   49 B2   99 B1   42 A2  100 B1  110 A1   50 B2                 
  2.846   2.848   2.870   2.873   2.878   2.898   2.904   2.913
111 A1  101 B1  112 A1   43 A2  102 B1   44 A2  113 A1  103 B1                 
  2.929   2.935   2.939   2.946   2.974   2.989   3.000   3.004
 51 B2   52 B2  114 A1  104 B1  115 A1  116 A1   45 A2   53 B2                 
  3.010   3.034   3.040   3.040   3.055   3.060   3.076   3.092
105 B1   46 A2   47 A2   54 B2   55 B2  117 A1   56 B2  118 A1                 
  3.109   3.120   3.131   3.145   3.147   3.159   3.164   3.166
119 A1  106 B1  107 B1   48 A2  120 A1  108 B1   57 B2  121 A1                 
  3.171   3.175   3.191   3.207   3.217   3.222   3.241   3.249
109 B1   49 A2   50 A2  110 B1   58 B2  122 A1  111 B1   51 A2                 
  3.260   3.268   3.281   3.290   3.291   3.309   3.326   3.339
123 A1   59 B2  112 B1  124 A1   60 B2  125 A1   52 A2  113 B1                 
  3.352   3.353   3.354   3.387   3.390   3.392   3.398   3.409
114 B1   61 B2  126 A1  115 B1   62 B2  127 A1   53 A2   63 B2                 
  3.422   3.441   3.455   3.458   3.475   3.496   3.501   3.505
128 A1  116 B1  117 B1  129 A1   54 A2   64 B2   55 A2  130 A1                 
  3.520   3.529   3.536   3.539   3.546   3.547   3.556   3.562
118 B1   56 A2  131 A1  119 B1  120 B1   57 A2   65 B2  132 A1                 
  3.575   3.595   3.600   3.644   3.652   3.672   3.696   3.739
 58 A2  133 A1  121 B1  134 A1  122 B1   66 B2   59 A2  123 B1                 
  3.760   3.802   3.810   3.815   3.824   3.852   3.880   3.889
135 A1  124 B1   60 A2   67 B2  136 A1  137 A1  125 B1  126 B1                 
  3.894   3.913   3.921   3.941   3.991   4.016   4.030   4.037
 68 B2  138 A1  127 B1  139 A1  140 A1  141 A1  128 B1   69 B2                 
  4.054   4.055   4.073   4.103   4.123   4.139   4.140   4.172
129 B1   70 B2  142 A1  130 B1   61 A2  143 A1   62 A2  144 A1                 
  4.182   4.185   4.214   4.221   4.222   4.244   4.258   4.297
 71 B2  131 B1   63 A2   72 B2  145 A1  132 B1   64 A2  133 B1                 
  4.298   4.308   4.318   4.357   4.405   4.411   4.429   4.436
 65 A2   73 B2  134 B1  146 A1  135 B1  147 A1  136 B1  148 A1                 
  4.443   4.540   4.561   4.621   4.628   4.631   4.671   4.688
 66 A2  149 A1   74 B2   75 B2  150 A1  137 B1  138 B1  151 A1                 
  4.727   4.746   4.758   4.773   4.775   4.802   4.874   4.893
152 A1  139 B1   67 A2   68 A2  153 A1  140 B1  154 A1  141 B1                 
  4.929   4.957   4.995   5.023   5.048   5.109   5.211   5.231
155 A1  142 B1  143 B1  156 A1  144 B1  157 A1  145 B1   76 B2                 
  5.238   5.253   5.255   5.294   5.370   5.406   5.519   5.534
158 A1  159 A1  146 B1  147 B1  148 B1  160 A1  161 A1  149 B1                 
  5.556   5.639   5.647   5.735   5.809   5.960   6.181   6.415
162 A1   69 A2  150 B1  151 B1  163 A1  152 B1   77 B2   70 A2                 
  6.481   6.641   6.823   6.857   7.116   7.216  21.882  22.454
164 A1  165 A1  153 B1   78 B2  166 A1  154 B1  167 A1  155 B1                 
 22.468  22.569  22.602  22.640  22.661  22.890  22.945  23.120
168 A1  156 B1  169 A1  170 A1  157 B1  171 A1  158 B1  159 B1                 
 23.375  23.515  23.603  43.999
172 A1  173 A1  160 B1  174 A1                                                 
 --------------------------------------------------------------
 
          Ground-State Mulliken Net Atomic Charges

     Atom                 Charge (a.u.)    Spin (a.u.)
  --------------------------------------------------------
      1 C                     0.016981       0.004844
      2 O                    -0.342616       0.269976
      3 C                     0.121237       0.319966
      4 C                     0.121237       0.319966
      5 C                     0.120804       0.219595
      6 C                    -0.212114      -0.095618
      7 C                    -0.049953       0.312510
      8 C                    -0.219899       0.043180
      9 C                    -0.091686       0.083238
     10 H                     0.134803       0.003247
     11 H                     0.111283      -0.002851
     12 H                     0.127922      -0.015239
     13 H                     0.120419      -0.005437
     14 C                     0.120804       0.219595
     15 C                    -0.212114      -0.095618
     16 C                    -0.219899       0.043180
     17 C                    -0.049953       0.312510
     18 C                    -0.091686       0.083238
     19 H                     0.111283      -0.002851
     20 H                     0.134803       0.003247
     21 H                     0.127922      -0.015239
     22 H                     0.120419      -0.005437
  --------------------------------------------------------
  Sum of atomic charges =     0.000000
  Sum of spin   charges =     2.000000

 -----------------------------------------------------------------
                    Cartesian Multipole Moments
 -----------------------------------------------------------------
    Charge (ESU x 10^10)
                -0.0000
    Dipole Moment (Debye)
         X       0.0000      Y      -0.0000      Z      -4.8981
       Tot       4.8981
    Quadrupole Moments (Debye-Ang)
        XX     -60.3639     XY      -0.0000     YY     -84.3531
        XZ      -0.0000     YZ       0.0000     ZZ     -86.2196
    Octopole Moments (Debye-Ang^2)
       XXX       0.0000    XXY      -0.0000    XYY      -0.0000
       YYY      -0.0000    XXZ       1.5646    XYZ      -0.0000
       YYZ       6.7435    XZZ       0.0000    YZZ       0.0000
       ZZZ     -52.5806
    Hexadecapole Moments (Debye-Ang^3)
      XXXX   -2048.3103   XXXY      -0.0000   XXYY    -461.9734
      XYYY      -0.0000   YYYY     -96.3574   XXXZ      -0.0000
      XXYZ       0.0000   XYYZ      -0.0000   YYYZ       0.0000
      XXZZ    -511.9331   XYZZ      -0.0000   YYZZ    -197.9630
      XZZZ      -0.0000   YZZZ       0.0000   ZZZZ   -1107.9780
 -----------------------------------------------------------------
 Total job time:  14539.02s(wall), 14330.92s(cpu) 
 Mon Oct 21 14:56:03 2024

        *************************************************************
        *                                                           *
        *  Thank you very much for using Q-Chem.  Have a nice day.  *
        *                                                           *
        *************************************************************


