                  Welcome to Q-Chem
     A Quantum Leap Into The Future Of Chemistry


 Q-Chem 6.0 (devel), Q-Chem, Inc., Pleasanton, CA (2022)

 E. Epifanovsky,  A. T. B. Gilbert,  Xintian Feng,  Joonho Lee,  Yuezhi Mao,  
 N. Mardirossian,  P. Pokhilko,  A. White,  M. Wormit,  M. P. Coons,  
 A. L. Dempwolff,  Zhengting Gan,  D. Hait,  P. R. Horn,  L. D. Jacobson,  
 I. Kaliman,  J. Kussmann,  A. W. Lange,  Ka Un Lao,  D. S. Levine,  Jie Liu,  
 S. C. McKenzie,  A. F. Morrison,  K. Nanda,  F. Plasser,  D. R. Rehn,  
 M. L. Vidal,  Zhi-Qiang You,  Ying Zhu,  B. Alam,  B. Albrecht,  
 A. Aldossary,  E. Alguire,  J. H. Andersen,  V. Athavale,  D. Barton,  
 K. Begam,  A. Behn,  N. Bellonzi,  Y. A. Bernard,  E. J. Berquist,  
 H. Burton,  A. Carreras,  K. Carter-Fenk,  Romit Chakraborty,  
 Chandrima Chakravarty,  Junhan Chen,  A. D. Chien,  K. D. Closser,  
 V. Cofer-Shabica,  L. Cunha,  S. Dasgupta,  Jia Deng,  M. de Wergifosse,  
 M. Diedenhofen,  Hainam Do,  S. Ehlert,  Po-Tung Fang,  S. Fatehi,  
 Qingguo Feng,  T. Friedhoff,  B. Ganoe,  J. Gayvert,  Qinghui Ge,  
 G. Gidofalvi,  M. Goldey,  J. Gomes,  C. Gonzalez-Espinoza,  S. Gulania,  
 A. Gunina,  J. A. Gyamfi,  M. W. D. Hanson-Heine,  P. H. P. Harbach,  
 A. W. Hauser,  M. F. Herbst,  M. Hernandez Vera,  M. Hodecker,  
 Z. C. Holden,  S. Houck,  Xunkun Huang,  Kerwin Hui,  B. C. Huynh,  
 K. Ikeda,  M. Ivanov,  Hyunjun Ji,  Zuxin Jin,  Hanjie Jiang,  B. Kaduk,  
 S. Kaehler,  R. Kang,  K. Khistyaev,  Jaehoon Kim,  Yongbin Kim,  
 P. Klunzinger,  Z. Koczor-Benda,  Joong Hoon Koh,  D. Kosenkov,  
 Saikiran Kotaru,  L. Koulias,  T. Kowalczyk,  C. M. Krauter,  K. Kue,  
 A. Kunitsa,  T. Kus,  A. Landau,  K. V. Lawler,  D. Lefrancois,  S. Lehtola,  
 Rain Li,  Shaozhi Li,  Yi-Pei Li,  Jiashu Liang,  M. Liebenthal,  
 Hung-Hsuan Lin,  You-Sheng Lin,  Fenglai Liu,  Kuan-Yu Liu,  
 M. Loipersberger,  A. Luenser,  C. Malbon,  A. Manjanath,  P. Manohar,  
 E. Mansoor,  S. F. Manzer,  Shan-Ping Mao,  A. V. Marenich,  T. Markovich,  
 S. Mason,  F. Matz,  S. A. Maurer,  P. F. McLaughlin,  M. F. S. J. Menger,  
 J.-M. Mewes,  S. A. Mewes,  P. Morgante,  Mohammad Mostafanejad,  
 J. W. Mullinax,  K. J. Oosterbaan,  G. Paran,  V. Parravicini,  
 Alexander C. Paul,  Suranjan K. Paul,  F. Pavosevic,  Zheng Pei,  S. Prager,  
 E. I. Proynov,  E. Ramos,  B. Rana,  A. E. Rask,  A. Rettig,  R. M. Richard,  
 F. Rob,  E. Rossomme,  T. Scheele,  M. Scheurer,  M. Schneider,  
 P. E. Schneider,  N. Sergueev,  S. M. Sharada,  Hengyuan Shen,  
 W. Skomorowski,  D. W. Small,  C. J. Stein,  Yingli Su,  Yu-Chuan Su,  
 E. J. Sundstrom,  Zhen Tao,  J. Thirman,  Hung-Yi Tsai,  T. Tsuchimochi,  
 N. M. Tubman,  C. Utku,  S. P. Veccham,  O. Vydrov,  J. Wenzel,  
 Jonathan Wong,  J. Witte,  A. Yamada,  Chou-Hsun Yang,  Kun Yao,  
 S. Yeganeh,  S. R. Yost,  A. Zech,  F. Zeller,  Igor Ying Zhang,  
 Xing Zhang,  Yu Zhang,  D. Zuev,  A. Aspuru-Guzik,  A. T. Bell,  
 N. A. Besley,  K. B. Bravaya,  B. R. Brooks,  D. Casanova,  Jeng-Da Chai,  
 Hsing-Ta Chen,  S. Coriani,  C. J. Cramer,  A. E. DePrince, III,  
 R. A. DiStasio Jr.,  A. Dreuw,  B. D. Dunietz,  T. R. Furlani,  
 W. A. Goddard III,  S. Grimme,  S. Hammes-Schiffer,  T. Head-Gordon,  
 W. J. Hehre,  Chao-Ping Hsu,  T.-C. Jagau,  Yousung Jung,  A. Klamt,  
 Jing Kong,  D. S. Lambrecht,  Xiangyuan Li,  WanZhen Liang,  N. J. Mayhall,  
 C. W. McCurdy,  J. B. Neaton,  T. Neudecker,  C. Ochsenfeld,  
 J. A. Parkhill,  R. Peverati,  V. A. Rassolov,  Haisheng Ren,  Yihan Shao,  
 L. V. Slipchenko,  R. P. Steele,  J. E. Subotnik,  A. J. W. Thom,  
 A. Tkatchenko,  D. G. Truhlar,  T. Van Voorhis,  Fan Wang,  
 T. A. Wesolowski,  K. B. Whaley,  H. L. Woodcock III,  P. M. Zimmerman,  
 S. Faraji,  P. M. W. Gill,  M. Head-Gordon,  J. M. Herbert,  A. I. Krylov

 Contributors to earlier versions of Q-Chem not listed above: 
 R. D. Adamson,  B. Austin,  R. Baer,  J. Baker,  G. J. O. Beran,  
 K. Brandhorst,  S. T. Brown,  E. F. C. Byrd,  Arup K. Chakraborty,  
 G. K. L. Chan,  Chun-Min Chang,  Yunqing Chen,  C.-L. Cheng,  
 Siu Hung Chien,  D. M. Chipman,  D. L. Crittenden,  H. Dachsel,  
 R. J. Doerksen,  A. D. Dutoi,  R. G. Edgar,  J. Fosso-Tande,  
 L. Fusti-Molnar,  D. Ghosh,  A. Ghysels,  A. Golubeva-Zadorozhnaya,  
 J. Gonthier,  M. S. Gordon,  S. R. Gwaltney,  G. Hawkins,  J. E. Herr,  
 A. Heyden,  S. Hirata,  E. G. Hohenstein,  G. Kedziora,  F. J. Keil,  
 C. Kelley,  Jihan Kim,  R. A. King,  R. Z. Khaliullin,  P. P. Korambath,  
 W. Kurlancheek,  A. Laurent,  A. M. Lee,  M. S. Lee,  S. V. Levchenko,  
 Ching Yeh Lin,  D. Liotard,  E. Livshits,  R. C. Lochan,  I. Lotan,  
 L. A. Martinez-Martinez,  P. E. Maslen,  N. Nair,  D. P. O'Neill,  
 D. Neuhauser,  E. Neuscamman,  C. M. Oana,  R. Olivares-Amaya,  R. Olson,  
 T. M. Perrine,  B. Peters,  P. A. Pieniazek,  A. Prociuk,  Y. M. Rhee,  
 J. Ritchie,  M. A. Rohrdanz,  E. Rosta,  N. J. Russ,  H. F. Schaefer III,  
 M. W. Schmidt,  N. E. Schultz,  S. Sharma,  N. Shenvi,  C. D. Sherrill,  
 A. C. Simmonett,  A. Sodt,  T. Stein,  D. Stuck,  K. S. Thanthiriwatte,  
 V. Vanovschi,  L. Vogt,  Tao Wang,  A. Warshel,  M. A. Watson,  
 C. F. Williams,  Q. Wu,  X. Xu,  Jun Yang,  W. Zhang,  Yan Zhao

   Please cite Q-Chem as follows:
  "Software for the frontiers of quantum chemistry:
   An overview of developments in the Q-Chem 5 package"
   J. Chem. Phys. 155, 084801 (2021)
   https://doi.org/10.1063/5.0055522 (open access)

 Q-Chem 6.0.1 for Intel X86 EM64T Linux

 Parts of Q-Chem use Armadillo 9.900.5 (Nocturnal Misbehaviour).
 http://arma.sourceforge.net/

 Q-Chem begins on Fri Sep  6 11:04:36 2024  

 Host: atlas-320
0

     Scratch files written to ./qchem18663//
 Processing $rem in /scratch/abel/SOFTWARE/qchem/config/preferences:
 Processing $rem in /dipc/acebg/.qchemrc:

 Checking the input file for inconsistencies... 	...done.

--------------------------------------------------------------
User input:
--------------------------------------------------------------
$comment
 RAS-SF CALCULATION
$end

$molecule
READ fluorenone.molecule
$end

$rem
!**CALCULATION TYPE***     
JOBTYPE            sp    
EXCHANGE           HF
CORRELATION        RASCI    !RASCI=Casanova; RASCI2=Zimmerman
BASIS              def2-TZVP
BASIS2             STO-3G

!***SCF REFERENCE***
INPUT_BOHR          TRUE
!SKIP_SCFMAN        FALSE
UNRESTRICTED       FALSE
!SCF_GUESS          core
!SCF_GUESS_MIX      FALSE
!SCF_GUESS_ALWAYS   FALSE
MAX_SCF_CYCLES     999
!SCF_CONVERGENCE    10
SCF_ALGORITHM      DIIS_GDM !DIIS,DM,DIIS_DM,GDM,DIIS_GDM,GD

!SYMMETRY           TRUE   !use of symmetry for calculating integrals
!SYM_IGNORE         FALSE  !turn off using symmetry
!SYM_TOL            5      !tolerance for determining point group
!USE_ABELIAN_SUBGROUP      !define to use abelian group

!THRESH             14
!SCF_FINAL_PRINT     1 !0,1,2,3

!****RAS-SF****
RAS_ROOTS          30       !number of RAS-CI roots to be computed
SET_ITER           100     !number of iterations in RASCI
RAS_ELEC 12
RAS_ELEC_ALPHA 7
RAS_ELEC_BETA 5

RAS_ACT 8
RAS_ACT_ORB [30, 33, 35, 38, 43, 47, 48, 50]
RAS_OCC 41
!N_FROZEN_CORE      FC     !Number of frozen core orbitals
!N_FROZEN_VIRTUAL   0      !Number of frozen virtual orbitals

!RAS_DO_HOLE        TRUE   !presence of hole excitations in RAS-CI wave function
!RAS_DO_PART        TRUE   !presence of particle excitations
!RAS_AMPL_PRINT     10     !threshold (×10 2 ) for the CI amplitudes

!RAS_GUESS_CS       0      !number of closed shell guess conﬁgurations
!RAS_SPIN_MULT      0      !spin multiplicity. Only for Ms = 0 
!RAS_SRDFT          FALSE  !short-range density functional RAS-CI
!RAS_NFRAG          0     !fragments of excitation analysis in RASCI

RAS_PRINT          2      !level of information
!RAS_NATORB         TRUE   !computation of the natural orbital occupancies
!RAS_NATORB_STATE  0      !Saves NO of i RAS computed state in .fchk ﬁle
!RAS_FOD            TRUE

!****RAS-SOC****
CALC_SOC           TRUE   !calculate SOC for EOM-CC, RAS-CI, ADC, TDDFT/TDA and TDDFT
!RAS_SOC_2E        TRUE   !two-electron mean-ﬁeld contribution, default=true
RAS_SOC_SYM_DENS   TRUE   !averaging of α and β densities

!****MEMORY****
MEM_TOTAL          50000 !Default 2000 MB
MEM_STATIC         2000  !Default 64 MB

!**Molecular Properties and Analysis **                                                                                          
GUI                0       !Checkpoints generation
STATE_ANALYSIS     TRUE
$end
--------------------------------------------------------------
 ----------------------------------------------------------------
             Standard Nuclear Orientation (Bohr)
    I     Atom           X                Y                Z
 ----------------------------------------------------------------
    1      C      -0.0000000000    -0.0000000000     3.0318066276
    2      O      -0.0000000000    -0.0000000000     5.3638644743
    3      C      -2.1864624130    -0.0000000000     1.3211263669
    4      C       2.1864624130     0.0000000000     1.3211263669
    5      C       1.3222785792     0.0000000000    -1.3152461482
    6      C       4.7555386627     0.0000000000     1.8776505802
    7      C       6.4695983050     0.0000000000    -0.0972082822
    8      C       3.1392439890     0.0000000000    -3.3016694193
    9      C       5.6496513315     0.0000000000    -2.6924387954
   10      H       5.3730975132     0.0000000000     3.8295121100
   11      H       2.5395104465     0.0000000000    -5.2593503586
   12      H       8.4790954600     0.0000000000     0.2945733557
   13      H       7.0667355415     0.0000000000    -4.1688986988
   14      C      -1.3222785792    -0.0000000000    -1.3152461482
   15      C      -4.7555386627    -0.0000000000     1.8776505802
   16      C      -3.1392439890    -0.0000000000    -3.3016694193
   17      C      -6.4695983050    -0.0000000000    -0.0972082822
   18      C      -5.6496513315    -0.0000000000    -2.6924387954
   19      H      -2.5395104465    -0.0000000000    -5.2593503586
   20      H      -5.3730975132    -0.0000000000     3.8295121100
   21      H      -8.4790954600    -0.0000000000     0.2945733557
   22      H      -7.0667355415    -0.0000000000    -4.1688986988
 ----------------------------------------------------------------
 Molecular Point Group                 C2v   NOp =  4
 Largest Abelian Subgroup              C2v   NOp =  4
 Nuclear Repulsion Energy =         775.12034816 hartrees
 There are       48 alpha and       46 beta electrons
 Requested basis set is def2-TZVP
 There are 186 shells and 482 basis functions

 Total QAlloc Memory Limit  50000 MB
 Mega-Array Size      1956 MB
 MEM_STATIC part      2000 MB

 A cutoff of  1.0D-09 yielded  13341 shell pairs
 There are     89641 function pairs (    116642 Cartesian)
 Smallest overlap matrix eigenvalue = 7.88E-06

 Q-Chem warning in module stvman/mkSTV.C, line 313:

 Overlap eigenvalue is smaller than square root of threshold
 Use THRESH >= 12 to get rid of this warning


 Scale SEOQF with 1.000000e-01/1.000000e+00/1.000000e-01

 Standard Electronic Orientation quadrupole field applied
 Nucleus-field energy     =    -0.0000000045 hartrees
 Requested basis set is STO-3G
 There are 36 shells and 78 basis functions
 A cutoff of  1.0D-09 yielded    508 shell pairs
 There are      2824 function pairs
 Smallest overlap matrix eigenvalue = 1.76E-01
 Constructing guess Fock matrix from core Hamiltonian
 Applying Wolfsberg-Helmholtz approximation
 A restricted Hartree-Fock SCF calculation will be
 performed using Geometric Direct Minimization
 SCF converges when RMS gradient is below 1.0E-04
 ---------------------------------------
  Cycle       Energy        RMS Gradient
 ---------------------------------------
    1    -562.9071884020      5.40E-01 Descent step
    2    -563.4687844878      3.98E-01 Descent step
    3    -563.9065938671      2.32E-01 Descent step
    4    -564.2366040034      1.45E-01 Descent step
    5    -564.4695535386      8.16E-02 Descent step
    6    -564.6116778141      5.24E-02 Dog-leg BFGS step
    7    -564.6679870182      2.32E-02 Normal BFGS step
    8    -564.6702340444      9.19E-03 Normal BFGS step
    9    -564.6705084635      3.00E-03 Normal BFGS step
   10    -564.6705718159      1.54E-03 Normal BFGS step
   11    -564.6705774858      5.91E-04 Normal BFGS step
   12    -564.6705785197      2.39E-04 Normal BFGS step
   13    -564.6705787715      1.08E-04 Normal BFGS step
   14    -564.6705788166      3.43E-05 Convergence criterion met
 ---------------------------------------
 SCF time:  CPU 1.18 s  wall 2.09 s
 SCF   energy in the small basis set = -564.67057882
 Total energy in the small basis set = -564.67057882
 ----------------------------------------------------
  Cycle       Energy    
 ----------------------------------------------------
    1     -70.8912839774     -7.09E+01
 A restricted Hartree-Fock SCF calculation will be
 performed using Geometric Direct Minimization
 SCF converges when RMS gradient is below 1.0E-05
 ---------------------------------------
  Cycle       Energy        RMS Gradient
 ---------------------------------------
    1    -571.6538726055      3.32E-01 Descent step
    2    -571.8116593413      9.92E-02 Descent step
    3    -571.9032318624      4.53E-02 Normal BFGS step
    4    -571.9223098008      2.25E-02 Normal BFGS step
    5    -571.9247201919      1.27E-02 Normal BFGS step
    6    -571.9252359201      8.63E-03 Normal BFGS step
    7    -571.9255113145      4.10E-03 Normal BFGS step
    8    -571.9255879012      1.83E-03 Normal BFGS step
    9    -571.9256014489      1.28E-03 Normal BFGS step
   10    -571.9256069452      4.08E-04 Normal BFGS step
   11    -571.9256078801      1.77E-04 Normal BFGS step
   12    -571.9256081325      4.46E-05 Normal BFGS step
   13    -571.9256076297      7.19E-06 Convergence criterion met
 ---------------------------------------
 SCF time:  CPU 695.74 s  wall 700.00 s
 SCF   energy in the final basis set = -571.92560763
 Total energy in the final basis set = -571.92560763
  
     ##========================================##
     ||                                        ||
     ||              R A S M A N 2             ||
     ||________________________________________||
     ||                                        ||
     ||  Author:                               ||
     ||                                        ||
     ||        David Casanova (2010)           ||
     ||                                        ||
     ##========================================##
  
Setting single-point xc-functionals (if necessary)

  ***************************************************
  *  RAS-CI Dimensions:                             *
  *                                                 *
  *  Active Elec.:  12 ( 7, 5)   Active Orb.:   8   *
  *  Doubly Occ. :  41           Doubly Vir.: 433   *
  *  Frozen Occ. :   0           Frozen Vir.:   0   *
  *                                                 *
  *  Total CI configurations:    933352             * 
  *    Active configurations:       448             * 
  *      Hole configurations:     11480             * 
  *  Particle configurations:    921424             * 
  *                                                 *
  *   Requested states:       30                    *
  *  Spin multiplicity: Any multiplicity            *
  *                                                 *
  ***************************************************
-----------------------------------------
    Memory requirements of RASCI

 Each CI-vector requires      7.12 MiB 
 Max. subspace vectors           3000      

 Reduced Lists                0.00 MiB 
 Excitation Lists             0.00 MiB 
 Excitation Lists Sign        0.00 MiB 
 CI-space (Max)           21645.05 MiB 
 Integrals                  233.22 MiB 
 Memory required (Max)    21645.05 MiB 
 Memory available          1907.35 MiB 

 Q-Chem warning in module rasman2/ras_mem_check.C, line 162:

 Static memory may be insufficient to store the subspace vectors


    Disk requirements of RASCI

 Fock matrix                  3.54 MiB 
 2-electron integrals       390.58 MiB 
 CI-space                 42725.46 MiB 
 Disk required            43119.58 MiB 
-----------------------------------------
  
RAS1 HF-like energy:           -552.3401614400
 Computing integrals
 Computing J and K matrices
 Computing addressing
 Making amplitude guesses
 
Direct CI diagonalization
 ---------------------------------------------------
 Iter    Rts Conv    Rts Left    Ttl Dev     Max Dev
 ---------------------------------------------------
   1         0          30      0.004623    0.000269
   2         0          30      0.004175    0.000207
   3         0          30      0.003734    0.000181
   4         0          30      0.004813    0.000269
   5         0          30      0.003863    0.000354
   6         0          30      0.003024    0.000196
   7         0          30      0.003450    0.000345
   8         0          30      0.003403    0.000418
   9         0          30      0.002748    0.000226
  10         0          30      0.002696    0.000218
  11         0          30      0.002546    0.000213
  12         0          30      0.002182    0.000224
  13         1          29      0.002365    0.000235
  14         0          30      0.002124    0.000222
  15         0          30      0.001896    0.000185
  16         1          29      0.001840    0.000232
  17         1          29      0.001679    0.000212
  18         1          29      0.001352    0.000201
  19         1          29      0.001107    0.000140
  20         3          27      0.001113    0.000144
  21         4          26      0.000838    0.000098
  22         4          26      0.000735    0.000083
  23         6          24      0.000658    0.000126
  24         6          24      0.000696    0.000212
  25         6          24      0.000669    0.000240
  26         7          23      0.000508    0.000163
  27         8          22      0.000370    0.000087
  28         9          21      0.000326    0.000086
  29        12          18      0.000264    0.000077
  30        13          17      0.000191    0.000053
  31        14          16      0.000180    0.000054
  32        15          15      0.000143    0.000040
  33        15          15      0.000120    0.000032
  34        16          14      0.000109    0.000028
  35        19          11      0.000100    0.000027
  36        19          11      0.000114    0.000045
  37        20          10      0.000373    0.000202
  38        21           9      0.000289    0.000149
  39        22           8      0.000248    0.000150
  40        24           6      0.000209    0.000132
  41        24           6      0.000310    0.000147
  42        26           4      0.000270    0.000118
  43        25           5      0.000221    0.000102
  44        26           4      0.000196    0.000093
  45        26           4      0.000166    0.000079
  46        26           4      0.000133    0.000065
  47        26           4      0.000119    0.000063
  48        26           4      0.000097    0.000043
  49        27           3      0.000083    0.000039
  50        27           3      0.000077    0.000036
  51        27           3      0.000066    0.000031
  52        27           3      0.000067    0.000035
  53        27           3      0.000063    0.000031
  54        27           3      0.000059    0.000030
  55        27           3      0.000062    0.000033
  56        27           3      0.000056    0.000029
  57        27           3      0.000060    0.000032
  58        27           3      0.000061    0.000034
  59        27           3      0.000059    0.000032
  60        27           3      0.000058    0.000032
  61        27           3      0.000051    0.000028
  62        27           3      0.000045    0.000024
  63        27           3      0.000048    0.000027
  64        27           3      0.000042    0.000022
  65        27           3      0.000037    0.000019
  66        28           2      0.000035    0.000018
  67        28           2      0.000026    0.000011
  68        28           2      0.000024    0.000010
  69        28           2      0.000023    0.000009
  70        28           2      0.000019    0.000006
  71        28           2      0.000019    0.000006
  72        28           2      0.000018    0.000005
  73        29           1      0.000015    0.000004
  74        29           1      0.000016    0.000004
  75        29           1      0.000015    0.000003
  76        29           1      0.000014    0.000002
  77        29           1      0.000014    0.000002
  78        29           1      0.000013    0.000002
  79        29           1      0.000013    0.000001
  80        29           1      0.000013    0.000001
  81        29           1      0.000012    0.000001
  82        29           1      0.000012    0.000001
  83        30           0      0.000012    0.000001    Roots Converged
 ---------------------------------------------------
   
**************************************************
 RAS-CI total energy for state   1:   -571.939912851786
  Excitation energy (eV) =  0.000000000000
  State symmetry: B1    (C2v      )
  <S^2>      :  2.0000
  Dipole Moment:   -0.0000 X     0.0000 Y     2.0799 Z
 NATURAL OCCUPATION NUMBERS (higher than 1.0E-05)
            1           2           3           4           5           6
    1   2.0000000   2.0000000   2.0000000   2.0000000   2.0000000   2.0000000
            7           8           9          10          11          12
    1   2.0000000   2.0000000   2.0000000   2.0000000   2.0000000   2.0000000
           13          14          15          16          17          18
    1   2.0000000   2.0000000   1.9999999   1.9999999   1.9999999   1.9999999
           19          20          21          22          23          24
    1   1.9999998   1.9999997   1.9999996   1.9999995   1.9999994   1.9999989
           25          26          27          28          29          30
    1   1.9999988   1.9999978   1.9999976   1.9999971   1.9999962   1.9999929
           31          32          33          34          35          36
    1   1.9999911   1.9999871   1.9999842   1.9999832   1.9999600   1.9999521
           37          38          39          40          41          42
    1   1.9999358   1.9998600   1.9997327   1.9996699   1.9994642   1.9993430
           43          44          45          46          47          48
    1   1.9991320   1.9985531   1.9978602   1.9799335   1.0073218   0.9843105
           49          50          51          52          53          54
    1   0.0287566   0.0033346   0.0006844   0.0003994   0.0003324   0.0002686
           55          56          57          58          59          60
    1   0.0002094   0.0001451   0.0001128   0.0001020   0.0000880   0.0000871
           61          62          63          64          65          66
    1   0.0000699   0.0000610   0.0000510   0.0000356   0.0000335   0.0000257
           67          68          69          70          71          72
    1   0.0000253   0.0000239   0.0000199   0.0000147   0.0000136   0.0000131
           73          74
    1   0.0000129   0.0000102

 Head-Gordon Nu:    2.04
 Head-Gordon Nu_nl: 2.00
 Created directory ./qchem18663/plots

  Amplitudes : 
  
 | HOLE  | ALPHA    | BETA     | PART  |    AMPLITUDE 
--------------------------------------------------
 |       | 11111110 | 11111000 |       |     9.8381018093713E-01
--------------------------------------------------
*** Contributions RASCI wfn    Active:  96.90
                                 Hole:   2.34
                                 Part:   0.76

      Mulliken population analysis 
 ---------------------------------------------------
   Atom    Charge (a.u.)   Spin (a.u.)  
 ---------------------------------------------------
   1  C    0.053786        0.154315 
   2  O   -0.517359        0.151817 
   3  C    0.180199        0.356538 
   4  C    0.180199        0.356538 
   5  C    0.170255        0.203307 
   6  C   -0.249937        0.018256 
   7  C   -0.036485        0.146665 
   8  C   -0.305995        0.048962 
   9  C   -0.100970        0.076547 
  10  H    0.162615       -0.000549 
  11  H    0.132640       -0.000442 
  12  H    0.143147       -0.001810 
  13  H    0.136316       -0.000539 
  14  C    0.170255        0.203307 
  15  C   -0.249937        0.018256 
  16  C   -0.305995        0.048962 
  17  C   -0.036485        0.146665 
  18  C   -0.100970        0.076547 
  19  H    0.132640       -0.000442 
  20  H    0.162615       -0.000549 
  21  H    0.143147       -0.001810 
  22  H    0.136316       -0.000539 
 ---------------------------------------------------
   Sum:    0.000000        2.000000 
 ---------------------------------------------------
 
      Analysis of the transition density matrix (wrt ground state)
 -------------------------------------
   Atom      e-      h+     Total     
 -------------------------------------
      1  -6.0917   6.0917  -0.0000
      2  -8.6608   8.6608  -0.0000
      3  -6.1591   6.1591  -0.0000
      4  -6.1591   6.1591   0.0000
      5  -6.0242   6.0242   0.0000
      6  -6.2643   6.2643  -0.0000
      7  -6.1768   6.1768   0.0000
      8  -6.3486   6.3486  -0.0000
      9  -6.1652   6.1652   0.0000
     10  -0.8367   0.8367  -0.0000
     11  -0.8668   0.8668  -0.0000
     12  -0.8549   0.8549   0.0000
     13  -0.8629   0.8629   0.0000
     14  -6.0242   6.0242  -0.0000
     15  -6.2643   6.2643  -0.0000
     16  -6.3486   6.3486   0.0000
     17  -6.1768   6.1768  -0.0000
     18  -6.1652   6.1652  -0.0000
     19  -0.8668   0.8668   0.0000
     20  -0.8367   0.8367   0.0000
     21  -0.8549   0.8549  -0.0000
     22  -0.8629   0.8629  -0.0000
  Sum:  -95.8716  95.8716  -0.0000
 -------------------------------------
 
      Analysis of the difference density matrix (wrt ground state)
 -------------------------------------
   Atom   Attach   Detach   Total     
 -------------------------------------
      1   0.0000   0.0000   0.0000
      2   0.0000   0.0000   0.0000
      3   0.0000   0.0000   0.0000
      4   0.0000   0.0000   0.0000
      5   0.0000   0.0000   0.0000
      6   0.0000   0.0000   0.0000
      7   0.0000   0.0000   0.0000
      8   0.0000   0.0000   0.0000
      9   0.0000   0.0000   0.0000
     10   0.0000   0.0000   0.0000
     11   0.0000   0.0000   0.0000
     12   0.0000   0.0000   0.0000
     13   0.0000   0.0000   0.0000
     14   0.0000   0.0000   0.0000
     15   0.0000   0.0000   0.0000
     16   0.0000   0.0000   0.0000
     17   0.0000   0.0000   0.0000
     18   0.0000   0.0000   0.0000
     19   0.0000   0.0000   0.0000
     20   0.0000   0.0000   0.0000
     21   0.0000   0.0000   0.0000
     22   0.0000   0.0000   0.0000
  Sum:    0.0000   0.0000   0.0000
 -------------------------------------
 
*** Unpaired Electrons
 Yamaguchi Nd:         2.12
  
**************************************************
 RAS-CI total energy for state   2:   -571.896953527480
  Excitation energy (eV) =  1.168982690339
  State symmetry: A2    (C2v      )
  <S^2>      :  2.0000
  Dipole Moment:   -0.0000 X     0.0000 Y     0.0117 Z
  Trans. Moment:   -0.0000 X    -0.0363 Y     0.0000 Z
  Strength   :  0.000038
  Natural transition orbitals ( 1 -> 2 ):
   e-/hole pair  1 alpha:  ampl =  0.010195 (  0.0%)   [8 : 9]
   e-/hole pair  2 alpha:  ampl =  0.008604 (  0.0%)   [7 : 10]
   e-/hole pair  1 beta :  ampl =  0.895920 ( 80.3%)   [8 : 9]
   e-/hole pair  2 beta :  ampl =  0.022417 (  0.1%)   [7 : 10]
   Sum of square amplitudes: 0.80

 NATURAL OCCUPATION NUMBERS (higher than 1.0E-05)
            1           2           3           4           5           6
    1   2.0000000   2.0000000   2.0000000   2.0000000   2.0000000   2.0000000
            7           8           9          10          11          12
    1   2.0000000   2.0000000   2.0000000   2.0000000   2.0000000   2.0000000
           13          14          15          16          17          18
    1   2.0000000   2.0000000   2.0000000   2.0000000   2.0000000   2.0000000
           19          20          21          22          23          24
    1   1.9999999   1.9999997   1.9999997   1.9999995   1.9999994   1.9999993
           25          26          27          28          29          30
    1   1.9999992   1.9999989   1.9999968   1.9999965   1.9999951   1.9999927
           31          32          33          34          35          36
    1   1.9999911   1.9999743   1.9999674   1.9999649   1.9997763   1.9996667
           37          38          39          40          41          42
    1   1.9995933   1.9994443   1.9994118   1.9990044   1.9988094   1.9986655
           43          44          45          46          47          48
    1   1.9983825   1.9966092   1.9882310   1.9719789   1.0021016   1.0017270
           49          50          51          52          53          54
    1   0.0200690   0.0176555   0.0022394   0.0014904   0.0007565   0.0005835
           55          56          57          58          59          60
    1   0.0005210   0.0003889   0.0003420   0.0002799   0.0002689   0.0002585
           61          62          63          64          65          66
    1   0.0002373   0.0001893   0.0001703   0.0001585   0.0001099   0.0001012
           67          68          69          70          71          72
    1   0.0000903   0.0000755   0.0000674   0.0000658   0.0000646   0.0000585
           73          74          75          76          77          78
    1   0.0000551   0.0000509   0.0000438   0.0000301   0.0000270   0.0000211
           79          80          81          82          83          84
    1   0.0000202   0.0000195   0.0000193   0.0000149   0.0000136   0.0000135
           85          86
    1   0.0000110   0.0000104

 Head-Gordon Nu:    2.09
 Head-Gordon Nu_nl: 2.01

  Amplitudes : 
  
 | HOLE  | ALPHA    | BETA     | PART  |    AMPLITUDE 
--------------------------------------------------
 |       | 11111110 | 11110100 |       |     8.9678543829441E-01
 |  41   | 11111110 | 11110110 |       |     1.9061558561176E-01
 |       | 11111100 | 11110100 |  50   |    -1.3635614969887E-01
 |       | 11111100 | 11110100 |  57   |     2.0383289376950E-01
 |       | 11111100 | 11110100 |  65   |     1.0796066008845E-01
 |       | 11111100 | 11110100 |  68   |    -1.0255079994850E-01
--------------------------------------------------
*** Contributions RASCI wfn    Active:  80.91
                                 Hole:   5.69
                                 Part:  13.40

      Mulliken population analysis 
 ---------------------------------------------------
   Atom    Charge (a.u.)   Spin (a.u.)  
 ---------------------------------------------------
   1  C    0.008763        0.432129 
   2  O   -0.173134        0.858371 
   3  C    0.117982        0.123633 
   4  C    0.117982        0.123633 
   5  C    0.159681        0.112689 
   6  C   -0.218308        0.037170 
   7  C   -0.105029        0.013517 
   8  C   -0.330452        0.012343 
   9  C   -0.102559        0.051586 
  10  H    0.159496        0.001715 
  11  H    0.131013        0.001037 
  12  H    0.138055        0.000826 
  13  H    0.132307        0.000234 
  14  C    0.159681        0.112689 
  15  C   -0.218308        0.037170 
  16  C   -0.330452        0.012343 
  17  C   -0.105029        0.013517 
  18  C   -0.102559        0.051586 
  19  H    0.131013        0.001037 
  20  H    0.159496        0.001715 
  21  H    0.138055        0.000826 
  22  H    0.132307        0.000234 
 ---------------------------------------------------
   Sum:    0.000000        2.000000 
 ---------------------------------------------------
 
      Analysis of the transition density matrix (wrt ground state)
 -------------------------------------
   Atom      e-      h+     Total     
 -------------------------------------
      1  -0.0001   0.0001  -0.0000
      2  -0.0000   0.0001   0.0001
      3  -0.0002   0.0001  -0.0000
      4  -0.0002   0.0001  -0.0000
      5   0.0000   0.0000   0.0000
      6  -0.0000   0.0000  -0.0000
      7  -0.0000   0.0000   0.0000
      8   0.0000   0.0000   0.0000
      9  -0.0000   0.0000  -0.0000
     10  -0.0000   0.0000  -0.0000
     11  -0.0000   0.0000  -0.0000
     12  -0.0000   0.0000   0.0000
     13  -0.0000   0.0000   0.0000
     14   0.0000   0.0000   0.0000
     15  -0.0000   0.0000  -0.0000
     16   0.0000   0.0000   0.0000
     17  -0.0000   0.0000   0.0000
     18  -0.0000   0.0000  -0.0000
     19  -0.0000   0.0000  -0.0000
     20  -0.0000   0.0000  -0.0000
     21  -0.0000   0.0000   0.0000
     22  -0.0000   0.0000   0.0000
  Sum:   -0.0006   0.0006   0.0000
 -------------------------------------
 
      Analysis of the difference density matrix (wrt ground state)
 -------------------------------------
   Atom   Attach   Detach   Total     
 -------------------------------------
      1   0.2437  -0.1986   0.0450
      2   0.2890  -0.6333  -0.3442
      3   0.1926  -0.1304   0.0622
      4   0.1926  -0.1304   0.0622
      5   0.0965  -0.0859   0.0106
      6   0.0179  -0.0495  -0.0316
      7   0.1073  -0.0388   0.0685
      8   0.0461  -0.0217   0.0245
      9   0.0424  -0.0408   0.0016
     10   0.0065  -0.0034   0.0031
     11   0.0042  -0.0026   0.0016
     12   0.0066  -0.0015   0.0051
     13   0.0044  -0.0004   0.0040
     14   0.0965  -0.0859   0.0106
     15   0.0179  -0.0495  -0.0316
     16   0.0461  -0.0217   0.0245
     17   0.1073  -0.0388   0.0685
     18   0.0424  -0.0408   0.0016
     19   0.0042  -0.0026   0.0016
     20   0.0065  -0.0034   0.0031
     21   0.0066  -0.0015   0.0051
     22   0.0044  -0.0004   0.0040
  Sum:    1.5817  -1.5817   0.0000
 -------------------------------------
 
*** Unpaired Electrons
 Yamaguchi Nd:         2.19
  
**************************************************
 RAS-CI total energy for state   3:   -571.863335254717
  Excitation energy (eV) =  2.083782435776
  State symmetry: A1    (C2v      )
  <S^2>      :  2.0000
  Dipole Moment:   -0.0000 X     0.0000 Y     1.8946 Z
  Trans. Moment:    0.4759 X    -0.0000 Y     0.0000 Z
  Strength   :  0.011562
  Natural transition orbitals ( 1 -> 3 ):
   e-/hole pair  1 alpha:  ampl =  0.491810 ( 24.2%)   [8 : 9]
   e-/hole pair  2 alpha:  ampl =  0.094068 (  0.9%)   [7 : 10]
   e-/hole pair  1 beta :  ampl =  0.828941 ( 68.7%)   [8 : 9]
   e-/hole pair  2 beta :  ampl =  0.063568 (  0.4%)   [7 : 10]
   Sum of square amplitudes: 0.95

 NATURAL OCCUPATION NUMBERS (higher than 1.0E-05)
            1           2           3           4           5           6
    1   2.0000000   2.0000000   2.0000000   2.0000000   2.0000000   2.0000000
            7           8           9          10          11          12
    1   2.0000000   2.0000000   2.0000000   2.0000000   2.0000000   2.0000000
           13          14          15          16          17          18
    1   2.0000000   2.0000000   2.0000000   1.9999999   1.9999999   1.9999998
           19          20          21          22          23          24
    1   1.9999998   1.9999997   1.9999997   1.9999995   1.9999992   1.9999992
           25          26          27          28          29          30
    1   1.9999987   1.9999984   1.9999978   1.9999974   1.9999958   1.9999935
           31          32          33          34          35          36
    1   1.9999921   1.9999917   1.9999908   1.9999858   1.9999844   1.9999691
           37          38          39          40          41          42
    1   1.9999024   1.9997173   1.9996232   1.9994995   1.9994865   1.9992709
           43          44          45          46          47          48
    1   1.9990498   1.9969560   1.9968154   1.7036106   1.2789766   0.7317855
           49          50          51          52          53          54
    1   0.2862223   0.0037176   0.0033758   0.0004764   0.0003593   0.0003566
           55          56          57          58          59          60
    1   0.0001684   0.0001165   0.0000925   0.0000740   0.0000561   0.0000499
           61          62          63          64          65          66
    1   0.0000436   0.0000294   0.0000280   0.0000265   0.0000226   0.0000185
           67          68          69          70          71          72
    1   0.0000177   0.0000148   0.0000140   0.0000118   0.0000108   0.0000103
           73
    1   0.0000102

 Head-Gordon Nu:    2.05
 Head-Gordon Nu_nl: 2.21

  Amplitudes : 
  
 | HOLE  | ALPHA    | BETA     | PART  |    AMPLITUDE 
--------------------------------------------------
 |       | 11111101 | 11111000 |       |     4.6941530443304E-01
 |  33   | 11111110 | 11111100 |       |     1.4348977383889E-01
 |  39   | 11111110 | 11111100 |       |     2.7187788340554E-01
 |  41   | 11111110 | 11111100 |       |     7.7275888737645E-01
 |  41   | 11111110 | 11111001 |       |     1.0399223333769E-01
 |  41   | 11111101 | 11111010 |       |     1.1306504115097E-01
--------------------------------------------------
*** Contributions RASCI wfn    Active:  22.04
                                 Hole:  75.58
                                 Part:   2.38

      Mulliken population analysis 
 ---------------------------------------------------
   Atom    Charge (a.u.)   Spin (a.u.)  
 ---------------------------------------------------
   1  C    0.077364        0.121779 
   2  O   -0.454792        0.170529 
   3  C    0.142642        0.280550 
   4  C    0.142642        0.280550 
   5  C    0.164881        0.218495 
   6  C   -0.236941        0.037343 
   7  C   -0.087174        0.081334 
   8  C   -0.322915        0.052863 
   9  C   -0.044662        0.182538 
  10  H    0.162343        0.000070 
  11  H    0.131999        0.000046 
  12  H    0.142371        0.000076 
  13  H    0.136170        0.000531 
  14  C    0.164881        0.218495 
  15  C   -0.236941        0.037343 
  16  C   -0.322915        0.052863 
  17  C   -0.087174        0.081334 
  18  C   -0.044662        0.182538 
  19  H    0.131999        0.000046 
  20  H    0.162343        0.000070 
  21  H    0.142371        0.000076 
  22  H    0.136170        0.000531 
 ---------------------------------------------------
   Sum:    0.000000        2.000000 
 ---------------------------------------------------
 
      Analysis of the transition density matrix (wrt ground state)
 -------------------------------------
   Atom      e-      h+     Total     
 -------------------------------------
      1  -0.0107   0.0696   0.0589
      2  -0.0034   0.0558   0.0524
      3  -0.0672   0.0578  -0.0094
      4  -0.0672   0.0578  -0.0094
      5  -0.0553   0.0528  -0.0025
      6  -0.0169   0.0136  -0.0032
      7  -0.0160   0.0196   0.0036
      8  -0.0236   0.0127  -0.0110
      9  -0.0689   0.0363  -0.0326
     10  -0.0001   0.0001  -0.0000
     11  -0.0001   0.0001  -0.0001
     12  -0.0001   0.0002   0.0000
     13  -0.0007   0.0003  -0.0004
     14  -0.0553   0.0528  -0.0025
     15  -0.0169   0.0136  -0.0032
     16  -0.0236   0.0127  -0.0110
     17  -0.0160   0.0196   0.0036
     18  -0.0689   0.0363  -0.0326
     19  -0.0001   0.0001  -0.0001
     20  -0.0001   0.0001  -0.0000
     21  -0.0001   0.0002   0.0000
     22  -0.0007   0.0003  -0.0004
  Sum:   -0.5121   0.5121  -0.0000
 -------------------------------------
 
      Analysis of the difference density matrix (wrt ground state)
 -------------------------------------
   Atom   Attach   Detach   Total     
 -------------------------------------
      1   0.0165  -0.0400  -0.0236
      2   0.0157  -0.0783  -0.0626
      3   0.1311  -0.0935   0.0376
      4   0.1311  -0.0935   0.0376
      5   0.1355  -0.1302   0.0054
      6   0.0150  -0.0280  -0.0130
      7   0.0723  -0.0216   0.0507
      8   0.0622  -0.0453   0.0169
      9   0.0722  -0.1285  -0.0563
     10   0.0007  -0.0004   0.0003
     11   0.0010  -0.0004   0.0006
     12   0.0010  -0.0002   0.0008
     13   0.0011  -0.0009   0.0001
     14   0.1355  -0.1302   0.0054
     15   0.0150  -0.0280  -0.0130
     16   0.0622  -0.0453   0.0169
     17   0.0723  -0.0216   0.0507
     18   0.0722  -0.1285  -0.0563
     19   0.0010  -0.0004   0.0006
     20   0.0007  -0.0004   0.0003
     21   0.0010  -0.0002   0.0008
     22   0.0011  -0.0009   0.0001
  Sum:    1.0164  -1.0164   0.0000
 -------------------------------------
 
*** Unpaired Electrons
 Yamaguchi Nd:         2.88
  
**************************************************
 RAS-CI total energy for state   4:   -571.841796440963
  Excitation energy (eV) =  2.669883377913
  State symmetry: B1    (C2v      )
  <S^2>      :  2.0000
  Dipole Moment:   -0.0000 X     0.0000 Y     1.9243 Z
  Trans. Moment:    0.0000 X     0.0000 Y    -0.1714 Z
  Strength   :  0.001922
  Natural transition orbitals ( 1 -> 4 ):
   e-/hole pair  1 alpha:  ampl =  0.313003 (  9.8%)   [8 : 9]
   e-/hole pair  2 alpha:  ampl =  0.098585 (  1.0%)   [7 : 10]
   e-/hole pair  1 beta :  ampl =  0.888830 ( 79.0%)   [8 : 9]
   e-/hole pair  2 beta :  ampl =  0.078951 (  0.6%)   [7 : 10]
   Sum of square amplitudes: 0.91

 NATURAL OCCUPATION NUMBERS (higher than 1.0E-05)
            1           2           3           4           5           6
    1   2.0000000   2.0000000   2.0000000   2.0000000   2.0000000   2.0000000
            7           8           9          10          11          12
    1   2.0000000   2.0000000   2.0000000   2.0000000   2.0000000   2.0000000
           13          14          15          16          17          18
    1   2.0000000   2.0000000   2.0000000   2.0000000   2.0000000   2.0000000
           19          20          21          22          23          24
    1   1.9999999   1.9999999   1.9999999   1.9999999   1.9999998   1.9999997
           25          26          27          28          29          30
    1   1.9999997   1.9999996   1.9999995   1.9999991   1.9999983   1.9999977
           31          32          33          34          35          36
    1   1.9999971   1.9999966   1.9999950   1.9999943   1.9999868   1.9999865
           37          38          39          40          41          42
    1   1.9999622   1.9999059   1.9998732   1.9997967   1.9997616   1.9997271
           43          44          45          46          47          48
    1   1.9964148   1.9921114   1.9499129   1.8497551   1.1721273   0.8579967
           49          50          51          52          53          54
    1   0.1006823   0.0772771   0.0039049   0.0001539   0.0001481   0.0001340
           55          56          57          58          59          60
    1   0.0001168   0.0000700   0.0000606   0.0000310   0.0000176   0.0000162
           61
    1   0.0000108

 Head-Gordon Nu:    2.08
 Head-Gordon Nu_nl: 2.05

  Amplitudes : 
  
 | HOLE  | ALPHA    | BETA     | PART  |    AMPLITUDE 
--------------------------------------------------
 |  40   | 11111110 | 11111100 |       |     8.9120044610028E-01
 |  40   | 11111110 | 11111001 |       |     1.2749933005274E-01
 |  41   | 11111101 | 11111100 |       |     1.9089023704295E-01
 |       | 11111100 | 11111000 |  50   |    -3.1387580251860E-01
--------------------------------------------------
*** Contributions RASCI wfn    Active:   0.55
                                 Hole:  88.88
                                 Part:  10.58

      Mulliken population analysis 
 ---------------------------------------------------
   Atom    Charge (a.u.)   Spin (a.u.)  
 ---------------------------------------------------
   1  C    0.064341        0.137773 
   2  O   -0.498933        0.138570 
   3  C    0.125505        0.218480 
   4  C    0.125505        0.218480 
   5  C    0.059507        0.094309 
   6  C   -0.133785        0.168568 
   7  C   -0.086159        0.109119 
   8  C   -0.232555        0.160999 
   9  C   -0.089541        0.107374 
  10  H    0.162888        0.000860 
  11  H    0.132874        0.000829 
  12  H    0.142472        0.000649 
  13  H    0.136090        0.000642 
  14  C    0.059507        0.094309 
  15  C   -0.133785        0.168568 
  16  C   -0.232555        0.160999 
  17  C   -0.086159        0.109119 
  18  C   -0.089541        0.107374 
  19  H    0.132874        0.000829 
  20  H    0.162888        0.000860 
  21  H    0.142472        0.000649 
  22  H    0.136090        0.000642 
 ---------------------------------------------------
   Sum:    0.000000        2.000000 
 ---------------------------------------------------
 
      Analysis of the transition density matrix (wrt ground state)
 -------------------------------------
   Atom      e-      h+     Total     
 -------------------------------------
      1  -0.0075   0.0296   0.0221
      2  -0.0022   0.0316   0.0294
      3  -0.0075   0.0344   0.0269
      4  -0.0075   0.0344   0.0269
      5  -0.0068   0.0185   0.0118
      6  -0.0310   0.0039  -0.0272
      7  -0.0247   0.0104  -0.0143
      8  -0.0260   0.0037  -0.0223
      9  -0.0075   0.0074  -0.0001
     10  -0.0003   0.0000  -0.0002
     11  -0.0002   0.0000  -0.0002
     12  -0.0002   0.0001  -0.0001
     13  -0.0000   0.0001   0.0000
     14  -0.0068   0.0185   0.0118
     15  -0.0310   0.0039  -0.0272
     16  -0.0260   0.0037  -0.0223
     17  -0.0247   0.0104  -0.0143
     18  -0.0075   0.0074  -0.0001
     19  -0.0002   0.0000  -0.0002
     20  -0.0003   0.0000  -0.0002
     21  -0.0002   0.0001  -0.0001
     22  -0.0000   0.0001   0.0000
  Sum:   -0.2182   0.2182  -0.0000
 -------------------------------------
 
      Analysis of the difference density matrix (wrt ground state)
 -------------------------------------
   Atom   Attach   Detach   Total     
 -------------------------------------
      1   0.0088  -0.0193  -0.0106
      2   0.0036  -0.0220  -0.0184
      3   0.1311  -0.0764   0.0547
      4   0.1311  -0.0764   0.0547
      5   0.1272  -0.0164   0.1107
      6   0.0246  -0.1408  -0.1162
      7   0.0965  -0.0468   0.0497
      8   0.0599  -0.1333  -0.0734
      9   0.0675  -0.0790  -0.0114
     10   0.0004  -0.0007  -0.0003
     11   0.0005  -0.0007  -0.0002
     12   0.0009  -0.0002   0.0007
     13   0.0007  -0.0005   0.0002
     14   0.1272  -0.0164   0.1107
     15   0.0246  -0.1408  -0.1162
     16   0.0599  -0.1333  -0.0734
     17   0.0965  -0.0468   0.0497
     18   0.0675  -0.0790  -0.0114
     19   0.0005  -0.0007  -0.0002
     20   0.0004  -0.0007  -0.0003
     21   0.0009  -0.0002   0.0007
     22   0.0007  -0.0005   0.0002
  Sum:    1.0310  -1.0310  -0.0000
 -------------------------------------
 
*** Unpaired Electrons
 Yamaguchi Nd:         2.70
  
**************************************************
 RAS-CI total energy for state   5:   -571.829116971459
  Excitation energy (eV) =  3.014909297492
  State symmetry: B2    (C2v      )
  <S^2>      :  2.0000
  Dipole Moment:    0.0000 X     0.0000 Y     0.5892 Z
  Trans. Moment:    0.0000 X     0.0000 Y     0.0000 Z
  Strength   :  0.000000
  Natural transition orbitals ( 1 -> 5 ):
   e-/hole pair  1 alpha:  ampl =  0.027579 (  0.1%)   [8 : 9]
   e-/hole pair  2 alpha:  ampl =  0.009259 (  0.0%)   [7 : 10]
   e-/hole pair  1 beta :  ampl =  0.959114 ( 92.0%)   [8 : 9]
   e-/hole pair  2 beta :  ampl =  0.038114 (  0.1%)   [7 : 10]
   Sum of square amplitudes: 0.92

 NATURAL OCCUPATION NUMBERS (higher than 1.0E-05)
            1           2           3           4           5           6
    1   2.0000000   2.0000000   2.0000000   2.0000000   2.0000000   2.0000000
            7           8           9          10          11          12
    1   2.0000000   2.0000000   2.0000000   2.0000000   2.0000000   2.0000000
           13          14          15          16          17          18
    1   2.0000000   2.0000000   2.0000000   2.0000000   2.0000000   2.0000000
           19          20          21          22          23          24
    1   2.0000000   1.9999999   1.9999999   1.9999997   1.9999996   1.9999993
           25          26          27          28          29          30
    1   1.9999987   1.9999985   1.9999979   1.9999958   1.9999940   1.9999912
           31          32          33          34          35          36
    1   1.9999859   1.9999807   1.9999801   1.9999782   1.9999323   1.9996888
           37          38          39          40          41          42
    1   1.9996774   1.9996405   1.9992977   1.9991661   1.9986805   1.9980138
           43          44          45          46          47          48
    1   1.9969146   1.9964373   1.9936849   1.9616879   1.0051666   1.0034225
           49          50          51          52          53          54
    1   0.0213168   0.0197692   0.0015612   0.0009481   0.0009203   0.0005991
           55          56          57          58          59          60
    1   0.0004867   0.0003515   0.0003326   0.0003059   0.0002787   0.0002410
           61          62          63          64          65          66
    1   0.0002040   0.0001764   0.0001389   0.0001231   0.0001111   0.0000994
           67          68          69          70          71          72
    1   0.0000797   0.0000767   0.0000743   0.0000674   0.0000459   0.0000459
           73          74          75          76          77          78
    1   0.0000350   0.0000242   0.0000227   0.0000205   0.0000184   0.0000160
           79          80          81          82          83          84
    1   0.0000148   0.0000138   0.0000131   0.0000123   0.0000117   0.0000105

 Head-Gordon Nu:    2.10
 Head-Gordon Nu_nl: 2.01

  Amplitudes : 
  
 | HOLE  | ALPHA    | BETA     | PART  |    AMPLITUDE 
--------------------------------------------------
 |       | 11111110 | 11110010 |       |     9.1970339147128E-01
 |  34   | 11111110 | 11111010 |       |    -1.0923164466543E-01
 |  36   | 11111110 | 11111010 |       |    -1.1121357952424E-01
 |       | 11111110 | 11110000 |  50   |    -1.2445937788573E-01
 |       | 11111110 | 11110000 |  57   |     1.3060834597156E-01
--------------------------------------------------
*** Contributions RASCI wfn    Active:  84.88
                                 Hole:   3.92
                                 Part:  11.20

      Mulliken population analysis 
 ---------------------------------------------------
   Atom    Charge (a.u.)   Spin (a.u.)  
 ---------------------------------------------------
   1  C   -0.149599        0.042336 
   2  O   -0.195215        0.746760 
   3  C    0.181974        0.286094 
   4  C    0.181974        0.286094 
   5  C    0.145667        0.117462 
   6  C   -0.248972        0.007983 
   7  C   -0.047771        0.117156 
   8  C   -0.297142        0.049312 
   9  C   -0.127335        0.026007 
  10  H    0.160703        0.001423 
  11  H    0.131939        0.000119 
  12  H    0.140251       -0.000039 
  13  H    0.133094       -0.000064 
  14  C    0.145667        0.117462 
  15  C   -0.248972        0.007983 
  16  C   -0.297142        0.049312 
  17  C   -0.047771        0.117156 
  18  C   -0.127335        0.026007 
  19  H    0.131939        0.000119 
  20  H    0.160703        0.001423 
  21  H    0.140251       -0.000039 
  22  H    0.133094       -0.000064 
 ---------------------------------------------------
   Sum:    0.000000        2.000000 
 ---------------------------------------------------
 
      Analysis of the transition density matrix (wrt ground state)
 -------------------------------------
   Atom      e-      h+     Total     
 -------------------------------------
      1  -0.0006   0.0002  -0.0004
      2  -0.0005   0.0010   0.0005
      3  -0.0002   0.0003   0.0000
      4  -0.0002   0.0003   0.0000
      5  -0.0000   0.0001   0.0000
      6  -0.0001   0.0000  -0.0001
      7  -0.0001   0.0000  -0.0000
      8   0.0000   0.0000   0.0000
      9  -0.0000   0.0000  -0.0000
     10  -0.0000   0.0000  -0.0000
     11  -0.0000   0.0000   0.0000
     12  -0.0000   0.0000   0.0000
     13  -0.0000   0.0000   0.0000
     14  -0.0000   0.0001   0.0000
     15  -0.0001   0.0000  -0.0001
     16   0.0000   0.0000   0.0000
     17  -0.0001   0.0000  -0.0000
     18  -0.0000   0.0000  -0.0000
     19  -0.0000   0.0000   0.0000
     20  -0.0000   0.0000  -0.0000
     21  -0.0000   0.0000   0.0000
     22  -0.0000   0.0000   0.0000
  Sum:   -0.0022   0.0022  -0.0000
 -------------------------------------
 
      Analysis of the difference density matrix (wrt ground state)
 -------------------------------------
   Atom   Attach   Detach   Total     
 -------------------------------------
      1   0.4316  -0.2282   0.2034
      2   0.3828  -0.7049  -0.3221
      3   0.0707  -0.0725  -0.0018
      4   0.0707  -0.0725  -0.0018
      5   0.0585  -0.0339   0.0246
      6   0.0286  -0.0296  -0.0010
      7   0.0222  -0.0109   0.0113
      8   0.0092  -0.0181  -0.0089
      9   0.0328  -0.0064   0.0264
     10   0.0050  -0.0031   0.0019
     11   0.0024  -0.0017   0.0007
     12   0.0033  -0.0004   0.0029
     13   0.0034  -0.0002   0.0032
     14   0.0585  -0.0339   0.0246
     15   0.0286  -0.0296  -0.0010
     16   0.0092  -0.0181  -0.0089
     17   0.0222  -0.0109   0.0113
     18   0.0328  -0.0064   0.0264
     19   0.0024  -0.0017   0.0007
     20   0.0050  -0.0031   0.0019
     21   0.0033  -0.0004   0.0029
     22   0.0034  -0.0002   0.0032
  Sum:    1.2866  -1.2866   0.0000
 -------------------------------------
 
*** Unpaired Electrons
 Yamaguchi Nd:         2.21
  
**************************************************
 RAS-CI total energy for state   6:   -571.827925321327
  Excitation energy (eV) =  3.047335747389
  State symmetry: A1    (C2v      )
  <S^2>      :  2.0000
  Dipole Moment:    0.0000 X     0.0000 Y     1.5369 Z
  Trans. Moment:    0.2512 X    -0.0000 Y     0.0000 Z
  Strength   :  0.004712
  Natural transition orbitals ( 1 -> 6 ):
   e-/hole pair  1 alpha:  ampl =  0.348859 ( 12.2%)   [8 : 9]
   e-/hole pair  2 alpha:  ampl =  0.085818 (  0.7%)   [7 : 10]
   e-/hole pair  1 beta :  ampl =  0.872755 ( 76.2%)   [8 : 9]
   e-/hole pair  2 beta :  ampl =  0.089407 (  0.8%)   [7 : 10]
   Sum of square amplitudes: 0.90

 NATURAL OCCUPATION NUMBERS (higher than 1.0E-05)
            1           2           3           4           5           6
    1   2.0000000   2.0000000   2.0000000   2.0000000   2.0000000   2.0000000
            7           8           9          10          11          12
    1   2.0000000   2.0000000   2.0000000   2.0000000   2.0000000   2.0000000
           13          14          15          16          17          18
    1   2.0000000   2.0000000   2.0000000   2.0000000   2.0000000   1.9999999
           19          20          21          22          23          24
    1   1.9999998   1.9999997   1.9999996   1.9999995   1.9999994   1.9999993
           25          26          27          28          29          30
    1   1.9999993   1.9999986   1.9999980   1.9999972   1.9999961   1.9999947
           31          32          33          34          35          36
    1   1.9999943   1.9999930   1.9999904   1.9999888   1.9999833   1.9999645
           37          38          39          40          41          42
    1   1.9998091   1.9997445   1.9997268   1.9996987   1.9991722   1.9987614
           43          44          45          46          47          48
    1   1.9976935   1.9931619   1.9749228   1.7920681   1.2081360   0.8245189
           49          50          51          52          53          54
    1   0.1930009   0.0106270   0.0075692   0.0004248   0.0002118   0.0001432
           55          56          57          58          59          60
    1   0.0001257   0.0001014   0.0000741   0.0000554   0.0000506   0.0000466
           61          62          63          64          65          66
    1   0.0000450   0.0000281   0.0000198   0.0000169   0.0000130   0.0000118
           67          68
    1   0.0000112   0.0000106

 Head-Gordon Nu:    2.07
 Head-Gordon Nu_nl: 2.12

  Amplitudes : 
  
 | HOLE  | ALPHA    | BETA     | PART  |    AMPLITUDE 
--------------------------------------------------
 |       | 11111101 | 11111000 |       |     3.1178723450362E-01
 |  39   | 11111110 | 11111100 |       |     7.4316083680080E-01
 |  41   | 11111110 | 11111100 |       |    -4.5953989742985E-01
 |  40   | 11111101 | 11111100 |       |    -2.4112409726494E-01
 |       | 11111100 | 11111000 |  53   |    -1.4785433826308E-01
--------------------------------------------------
*** Contributions RASCI wfn    Active:   9.73
                                 Hole:  86.96
                                 Part:   3.31

      Mulliken population analysis 
 ---------------------------------------------------
   Atom    Charge (a.u.)   Spin (a.u.)  
 ---------------------------------------------------
   1  C    0.066940        0.130142 
   2  O   -0.487803        0.150173 
   3  C    0.066516        0.196525 
   4  C    0.066516        0.196525 
   5  C    0.114649        0.158866 
   6  C   -0.105695        0.166252 
   7  C   -0.027426        0.159176 
   8  C   -0.257394        0.114930 
   9  C   -0.154347        0.062017 
  10  H    0.162990        0.000766 
  11  H    0.132720        0.000456 
  12  H    0.142752        0.000637 
  13  H    0.135667        0.000219 
  14  C    0.114649        0.158866 
  15  C   -0.105695        0.166252 
  16  C   -0.257394        0.114930 
  17  C   -0.027426        0.159176 
  18  C   -0.154347        0.062017 
  19  H    0.132720        0.000456 
  20  H    0.162990        0.000766 
  21  H    0.142752        0.000637 
  22  H    0.135667        0.000219 
 ---------------------------------------------------
   Sum:    0.000000        2.000000 
 ---------------------------------------------------
 
      Analysis of the transition density matrix (wrt ground state)
 -------------------------------------
   Atom      e-      h+     Total     
 -------------------------------------
      1  -0.0025   0.0331   0.0305
      2  -0.0001   0.0292   0.0291
      3  -0.0238   0.0268   0.0030
      4  -0.0238   0.0268   0.0030
      5  -0.0314   0.0337   0.0023
      6  -0.0063   0.0084   0.0021
      7  -0.0213   0.0130  -0.0083
      8  -0.0105   0.0041  -0.0063
      9  -0.0358   0.0136  -0.0222
     10  -0.0000   0.0001   0.0000
     11  -0.0001   0.0000  -0.0000
     12  -0.0002   0.0001  -0.0001
     13  -0.0004   0.0001  -0.0003
     14  -0.0314   0.0337   0.0023
     15  -0.0063   0.0084   0.0021
     16  -0.0105   0.0041  -0.0063
     17  -0.0213   0.0130  -0.0083
     18  -0.0358   0.0136  -0.0222
     19  -0.0001   0.0000  -0.0000
     20  -0.0000   0.0001   0.0000
     21  -0.0002   0.0001  -0.0001
     22  -0.0004   0.0001  -0.0003
  Sum:   -0.2621   0.2621  -0.0000
 -------------------------------------
 
      Analysis of the difference density matrix (wrt ground state)
 -------------------------------------
   Atom   Attach   Detach   Total     
 -------------------------------------
      1   0.0129  -0.0260  -0.0132
      2   0.0089  -0.0384  -0.0296
      3   0.1662  -0.0525   0.1137
      4   0.1662  -0.0525   0.1137
      5   0.1288  -0.0732   0.0556
      6   0.0146  -0.1588  -0.1442
      7   0.0821  -0.0912  -0.0091
      8   0.0413  -0.0899  -0.0486
      9   0.0819  -0.0285   0.0534
     10   0.0004  -0.0008  -0.0004
     11   0.0004  -0.0005  -0.0001
     12   0.0008  -0.0004   0.0004
     13   0.0009  -0.0003   0.0006
     14   0.1288  -0.0732   0.0556
     15   0.0146  -0.1588  -0.1442
     16   0.0413  -0.0899  -0.0486
     17   0.0821  -0.0912  -0.0091
     18   0.0819  -0.0285   0.0534
     19   0.0004  -0.0005  -0.0001
     20   0.0004  -0.0008  -0.0004
     21   0.0008  -0.0004   0.0004
     22   0.0009  -0.0003   0.0006
  Sum:    1.0568  -1.0568   0.0000
 -------------------------------------
 
*** Unpaired Electrons
 Yamaguchi Nd:         2.76
  
**************************************************
 RAS-CI total energy for state   7:   -571.818299485414
  Excitation energy (eV) =  3.309268069269
  State symmetry: B1    (C2v      )
  <S^2>      :  2.0000
  Dipole Moment:   -0.0000 X     0.0000 Y     0.7744 Z
  Trans. Moment:   -0.0000 X    -0.0000 Y    -0.4599 Z
  Strength   :  0.017150
  Natural transition orbitals ( 1 -> 7 ):
   e-/hole pair  1 alpha:  ampl =  0.906640 ( 82.2%)   [8 : 9]
   e-/hole pair  2 alpha:  ampl =  0.098908 (  1.0%)   [7 : 10]
   e-/hole pair  1 beta :  ampl =  0.294856 (  8.7%)   [8 : 9]
   e-/hole pair  2 beta :  ampl =  0.169976 (  2.9%)   [7 : 10]
   Sum of square amplitudes: 0.95

 NATURAL OCCUPATION NUMBERS (higher than 1.0E-05)
            1           2           3           4           5           6
    1   2.0000000   2.0000000   2.0000000   2.0000000   2.0000000   2.0000000
            7           8           9          10          11          12
    1   2.0000000   2.0000000   2.0000000   2.0000000   2.0000000   2.0000000
           13          14          15          16          17          18
    1   2.0000000   2.0000000   2.0000000   2.0000000   2.0000000   2.0000000
           19          20          21          22          23          24
    1   2.0000000   1.9999999   1.9999999   1.9999999   1.9999999   1.9999999
           25          26          27          28          29          30
    1   1.9999999   1.9999998   1.9999998   1.9999997   1.9999995   1.9999994
           31          32          33          34          35          36
    1   1.9999993   1.9999993   1.9999991   1.9999988   1.9999986   1.9999760
           37          38          39          40          41          42
    1   1.9999366   1.9997948   1.9997203   1.9996916   1.9995600   1.9993497
           43          44          45          46          47          48
    1   1.9988381   1.9870736   1.9670154   1.9082405   1.0897180   0.8474581
           49          50          51          52          53          54
    1   0.1639654   0.0274027   0.0079922   0.0022674   0.0007144   0.0004497
           55          56          57          58          59          60
    1   0.0001712   0.0001515   0.0001254   0.0000907   0.0000824   0.0000519
           61          62          63          64          65          66
    1   0.0000464   0.0000265   0.0000194   0.0000133   0.0000117   0.0000109

 Head-Gordon Nu:    2.10
 Head-Gordon Nu_nl: 2.07

  Amplitudes : 
  
 | HOLE  | ALPHA    | BETA     | PART  |    AMPLITUDE 
--------------------------------------------------
 |  40   | 11111110 | 11111100 |       |     2.9184364860953E-01
 |  41   | 11111110 | 11111010 |       |     1.5500250248238E-01
 |       | 11111100 | 11111000 |  50   |     9.0632642771649E-01
 |       | 11111100 | 11111000 |  57   |    -1.1518815685644E-01
--------------------------------------------------
*** Contributions RASCI wfn    Active:   0.20
                                 Hole:  13.83
                                 Part:  85.97

      Mulliken population analysis 
 ---------------------------------------------------
   Atom    Charge (a.u.)   Spin (a.u.)  
 ---------------------------------------------------
   1  C    0.117851        0.085066 
   2  O   -0.400013        0.041423 
   3  C    0.287709        0.222940 
   4  C    0.287709        0.222940 
   5  C    0.192062        0.148403 
   6  C   -0.323188        0.130661 
   7  C   -0.097492        0.200264 
   8  C   -0.390378        0.153225 
   9  C   -0.099432        0.077313 
  10  H    0.161706        0.000956 
  11  H    0.131610        0.001162 
  12  H    0.142258        0.001385 
  13  H    0.136227        0.000448 
  14  C    0.192062        0.148403 
  15  C   -0.323188        0.130661 
  16  C   -0.390378        0.153225 
  17  C   -0.097492        0.200264 
  18  C   -0.099432        0.077313 
  19  H    0.131610        0.001162 
  20  H    0.161706        0.000956 
  21  H    0.142258        0.001385 
  22  H    0.136227        0.000448 
 ---------------------------------------------------
   Sum:    0.000000        2.000000 
 ---------------------------------------------------
 
      Analysis of the transition density matrix (wrt ground state)
 -------------------------------------
   Atom      e-      h+     Total     
 -------------------------------------
      1  -0.1150   0.2478   0.1328
      2  -0.0364   0.2644   0.2280
      3  -0.0433   0.2591   0.2159
      4  -0.0433   0.2591   0.2159
      5  -0.0621   0.1368   0.0747
      6  -0.2040   0.0318  -0.1722
      7  -0.1845   0.0770  -0.1075
      8  -0.2034   0.0160  -0.1874
      9  -0.0566   0.0568   0.0002
     10  -0.0017   0.0002  -0.0015
     11  -0.0019   0.0001  -0.0018
     12  -0.0015   0.0006  -0.0009
     13  -0.0003   0.0005   0.0002
     14  -0.0621   0.1368   0.0747
     15  -0.2040   0.0318  -0.1722
     16  -0.2034   0.0160  -0.1874
     17  -0.1845   0.0770  -0.1075
     18  -0.0566   0.0568   0.0002
     19  -0.0019   0.0001  -0.0018
     20  -0.0017   0.0002  -0.0015
     21  -0.0015   0.0006  -0.0009
     22  -0.0003   0.0005   0.0002
  Sum:   -1.6700   1.6700  -0.0000
 -------------------------------------
 
      Analysis of the difference density matrix (wrt ground state)
 -------------------------------------
   Atom   Attach   Detach   Total     
 -------------------------------------
      1   0.0623  -0.1263  -0.0641
      2   0.0229  -0.1402  -0.1173
      3   0.0324  -0.1399  -0.1075
      4   0.0324  -0.1399  -0.1075
      5   0.0444  -0.0663  -0.0218
      6   0.1069  -0.0337   0.0733
      7   0.1060  -0.0450   0.0610
      8   0.1095  -0.0252   0.0844
      9   0.0360  -0.0375  -0.0015
     10   0.0011  -0.0002   0.0009
     11   0.0012  -0.0002   0.0010
     12   0.0012  -0.0003   0.0009
     13   0.0004  -0.0003   0.0001
     14   0.0444  -0.0663  -0.0218
     15   0.1069  -0.0337   0.0733
     16   0.1095  -0.0252   0.0844
     17   0.1060  -0.0450   0.0610
     18   0.0360  -0.0375  -0.0015
     19   0.0012  -0.0002   0.0010
     20   0.0011  -0.0002   0.0009
     21   0.0012  -0.0003   0.0009
     22   0.0004  -0.0003   0.0001
  Sum:    0.9636  -0.9636   0.0000
 -------------------------------------
 
*** Unpaired Electrons
 Yamaguchi Nd:         2.62
  
**************************************************
 RAS-CI total energy for state   8:   -571.792232354751
  Excitation energy (eV) =  4.018590783827
  State symmetry: A1    (C2v      )
  <S^2>      :  2.0000
  Dipole Moment:    0.0000 X     0.0000 Y     1.5253 Z
  Trans. Moment:    1.4608 X     0.0000 Y    -0.0000 Z
  Strength   :  0.210088
  Natural transition orbitals ( 1 -> 8 ):
   e-/hole pair  1 alpha:  ampl =  0.764296 ( 58.4%)   [8 : 9]
   e-/hole pair  2 alpha:  ampl =  0.348796 ( 12.2%)   [7 : 10]
   e-/hole pair  1 beta :  ampl =  0.484084 ( 23.4%)   [8 : 9]
   e-/hole pair  2 beta :  ampl =  0.090768 (  0.8%)   [7 : 10]
   Sum of square amplitudes: 0.96

 NATURAL OCCUPATION NUMBERS (higher than 1.0E-05)
            1           2           3           4           5           6
    1   2.0000000   2.0000000   2.0000000   2.0000000   2.0000000   2.0000000
            7           8           9          10          11          12
    1   2.0000000   2.0000000   2.0000000   2.0000000   2.0000000   2.0000000
           13          14          15          16          17          18
    1   2.0000000   2.0000000   2.0000000   1.9999999   1.9999998   1.9999997
           19          20          21          22          23          24
    1   1.9999995   1.9999994   1.9999992   1.9999992   1.9999987   1.9999977
           25          26          27          28          29          30
    1   1.9999976   1.9999968   1.9999960   1.9999945   1.9999925   1.9999886
           31          32          33          34          35          36
    1   1.9999847   1.9999842   1.9999749   1.9999743   1.9999522   1.9999461
           37          38          39          40          41          42
    1   1.9999185   1.9995871   1.9993294   1.9988990   1.9988232   1.9983362
           43          44          45          46          47          48
    1   1.9970974   1.9963174   1.9848101   1.7560073   1.1141456   0.6231981
           49          50          51          52          53          54
    1   0.3959155   0.1255505   0.0057630   0.0021581   0.0012114   0.0006687
           55          56          57          58          59          60
    1   0.0004565   0.0003348   0.0002500   0.0002387   0.0001896   0.0001598
           61          62          63          64          65          66
    1   0.0001394   0.0001104   0.0000986   0.0000666   0.0000563   0.0000502
           67          68          69          70          71          72
    1   0.0000455   0.0000284   0.0000280   0.0000277   0.0000202   0.0000169
           73          74
    1   0.0000148   0.0000123

 Head-Gordon Nu:    2.31
 Head-Gordon Nu_nl: 2.35

  Amplitudes : 
  
 | HOLE  | ALPHA    | BETA     | PART  |    AMPLITUDE 
--------------------------------------------------
 |       | 11111101 | 11111000 |       |    -7.1449392502747E-01
 |  41   | 11111111 | 11111000 |       |     1.6283742478445E-01
 |  38   | 11111110 | 11111100 |       |    -1.0121070886971E-01
 |  39   | 11111110 | 11111100 |       |     3.9129085595533E-01
 |  41   | 11111110 | 11111100 |       |     2.6707542177265E-01
 |  41   | 11111101 | 11111010 |       |    -1.0515878541182E-01
 |       | 11111100 | 11111000 |  53   |    -2.4311774246833E-01
 |       | 11111010 | 11111000 |  50   |     3.4339794744153E-01
--------------------------------------------------
*** Contributions RASCI wfn    Active:  51.08
                                 Hole:  29.12
                                 Part:  19.80

      Mulliken population analysis 
 ---------------------------------------------------
   Atom    Charge (a.u.)   Spin (a.u.)  
 ---------------------------------------------------
   1  C    0.109808        0.093099 
   2  O   -0.464096        0.086215 
   3  C    0.143138        0.290143 
   4  C    0.143138        0.290143 
   5  C    0.242856        0.154189 
   6  C   -0.281542        0.090952 
   7  C   -0.011564        0.137827 
   8  C   -0.360027        0.107651 
   9  C   -0.127968        0.130418 
  10  H    0.161701        0.000215 
  11  H    0.131385       -0.000266 
  12  H    0.143243       -0.000293 
  13  H    0.135922       -0.000492 
  14  C    0.242856        0.154189 
  15  C   -0.281542        0.090952 
  16  C   -0.360027        0.107651 
  17  C   -0.011564        0.137827 
  18  C   -0.127968        0.130418 
  19  H    0.131385       -0.000266 
  20  H    0.161701        0.000215 
  21  H    0.143243       -0.000293 
  22  H    0.135922       -0.000492 
 ---------------------------------------------------
   Sum:    0.000000        2.000000 
 ---------------------------------------------------
 
      Analysis of the transition density matrix (wrt ground state)
 -------------------------------------
   Atom      e-      h+     Total     
 -------------------------------------
      1  -0.0323   0.1554   0.1232
      2  -0.0066   0.1460   0.1394
      3  -0.1457   0.1647   0.0191
      4  -0.1457   0.1647   0.0191
      5  -0.0324   0.1388   0.1065
      6  -0.1511   0.0476  -0.1035
      7  -0.0453   0.0833   0.0380
      8  -0.1489   0.0393  -0.1096
      9  -0.1662   0.0875  -0.0786
     10  -0.0015   0.0003  -0.0012
     11  -0.0014   0.0002  -0.0012
     12  -0.0003   0.0006   0.0003
     13  -0.0017   0.0007  -0.0010
     14  -0.0324   0.1388   0.1065
     15  -0.1511   0.0476  -0.1035
     16  -0.1489   0.0393  -0.1096
     17  -0.0453   0.0833   0.0380
     18  -0.1662   0.0875  -0.0786
     19  -0.0014   0.0002  -0.0012
     20  -0.0015   0.0003  -0.0012
     21  -0.0003   0.0006   0.0003
     22  -0.0017   0.0007  -0.0010
  Sum:   -1.4276   1.4276  -0.0000
 -------------------------------------
 
      Analysis of the difference density matrix (wrt ground state)
 -------------------------------------
   Atom   Attach   Detach   Total     
 -------------------------------------
      1   0.0430  -0.0990  -0.0560
      2   0.0417  -0.0950  -0.0533
      3   0.0988  -0.0618   0.0371
      4   0.0988  -0.0618   0.0371
      5   0.0325  -0.1051  -0.0726
      6   0.0812  -0.0496   0.0316
      7   0.0362  -0.0611  -0.0249
      8   0.0871  -0.0330   0.0540
      9   0.1002  -0.0732   0.0270
     10   0.0022  -0.0012   0.0009
     11   0.0022  -0.0010   0.0013
     12   0.0011  -0.0012  -0.0001
     13   0.0019  -0.0015   0.0004
     14   0.0325  -0.1051  -0.0726
     15   0.0812  -0.0496   0.0316
     16   0.0871  -0.0330   0.0540
     17   0.0362  -0.0611  -0.0249
     18   0.1002  -0.0732   0.0270
     19   0.0022  -0.0010   0.0013
     20   0.0022  -0.0012   0.0009
     21   0.0011  -0.0012  -0.0001
     22   0.0019  -0.0015   0.0004
  Sum:    0.9715  -0.9715  -0.0000
 -------------------------------------
 
*** Unpaired Electrons
 Yamaguchi Nd:         3.22
  
**************************************************
 RAS-CI total energy for state   9:   -571.767548383464
  Excitation energy (eV) =  4.690275816809
  State symmetry: B1    (C2v      )
  <S^2>      :  2.0000
  Dipole Moment:   -0.0000 X     0.0000 Y     1.9676 Z
  Trans. Moment:    0.0000 X    -0.0000 Y     0.4395 Z
  Strength   :  0.022191
  Natural transition orbitals ( 1 -> 9 ):
   e-/hole pair  1 alpha:  ampl =  0.371186 ( 13.8%)   [8 : 9]
   e-/hole pair  2 alpha:  ampl =  0.356435 ( 12.7%)   [7 : 10]
   e-/hole pair  1 beta :  ampl =  0.718733 ( 51.7%)   [8 : 9]
   e-/hole pair  2 beta :  ampl =  0.186051 (  3.5%)   [7 : 10]
   Sum of square amplitudes: 0.83

 NATURAL OCCUPATION NUMBERS (higher than 1.0E-05)
            1           2           3           4           5           6
    1   2.0000000   2.0000000   2.0000000   2.0000000   2.0000000   2.0000000
            7           8           9          10          11          12
    1   2.0000000   2.0000000   2.0000000   2.0000000   2.0000000   2.0000000
           13          14          15          16          17          18
    1   2.0000000   2.0000000   2.0000000   1.9999999   1.9999999   1.9999997
           19          20          21          22          23          24
    1   1.9999997   1.9999997   1.9999996   1.9999994   1.9999993   1.9999993
           25          26          27          28          29          30
    1   1.9999988   1.9999987   1.9999986   1.9999984   1.9999971   1.9999960
           31          32          33          34          35          36
    1   1.9999960   1.9999948   1.9999936   1.9999932   1.9999911   1.9999893
           37          38          39          40          41          42
    1   1.9999112   1.9997725   1.9996848   1.9994188   1.9993614   1.9989538
           43          44          45          46          47          48
    1   1.9776277   1.9753036   1.9652340   1.3596135   1.2672302   1.0216667
           49          50          51          52          53          54
    1   0.2895407   0.1390855   0.0045723   0.0012057   0.0006941   0.0003750
           55          56          57          58          59          60
    1   0.0001432   0.0001317   0.0000545   0.0000509   0.0000438   0.0000416
           61          62          63          64          65          66
    1   0.0000398   0.0000371   0.0000285   0.0000279   0.0000263   0.0000239
           67          68          69          70
    1   0.0000191   0.0000156   0.0000105   0.0000103

 Head-Gordon Nu:    2.87
 Head-Gordon Nu_nl: 2.94

  Amplitudes : 
  
 | HOLE  | ALPHA    | BETA     | PART  |    AMPLITUDE 
--------------------------------------------------
 |       | 11111011 | 11111000 |       |    -3.3836855220787E-01
 |  37   | 11111110 | 11111100 |       |     1.6854051094074E-01
 |  38   | 11111110 | 11111010 |       |    -1.3213955407212E-01
 |  39   | 11111110 | 11111010 |       |     1.4074784925556E-01
 |  41   | 11111110 | 11111010 |       |     6.9169312453173E-01
 |  39   | 11111101 | 11111100 |       |     1.8240577112029E-01
 |  41   | 11111101 | 11111100 |       |     3.0051944833524E-01
 |  40   | 11111101 | 11111010 |       |     1.0605159863235E-01
 |  41   | 11111011 | 11111010 |       |    -1.1602946102445E-01
 |       | 11111100 | 11111000 |  50   |    -1.6157142584895E-01
 |       | 11111100 | 11111000 |  57   |    -3.1401590233246E-01
--------------------------------------------------
*** Contributions RASCI wfn    Active:  12.11
                                 Hole:  72.84
                                 Part:  15.06

      Mulliken population analysis 
 ---------------------------------------------------
   Atom    Charge (a.u.)   Spin (a.u.)  
 ---------------------------------------------------
   1  C   -0.020989        0.071041 
   2  O   -0.467277        0.145381 
   3  C    0.183956        0.248926 
   4  C    0.183956        0.248926 
   5  C    0.178869        0.203679 
   6  C   -0.239957        0.045490 
   7  C   -0.047107        0.093640 
   8  C   -0.324064        0.115482 
   9  C   -0.081317        0.182372 
  10  H    0.162523        0.000133 
  11  H    0.132360        0.000597 
  12  H    0.142843        0.000392 
  13  H    0.136027        0.001078 
  14  C    0.178869        0.203679 
  15  C   -0.239957        0.045490 
  16  C   -0.324064        0.115482 
  17  C   -0.047107        0.093640 
  18  C   -0.081317        0.182372 
  19  H    0.132360        0.000597 
  20  H    0.162523        0.000133 
  21  H    0.142843        0.000392 
  22  H    0.136027        0.001078 
 ---------------------------------------------------
   Sum:    0.000000        2.000000 
 ---------------------------------------------------
 
      Analysis of the transition density matrix (wrt ground state)
 -------------------------------------
   Atom      e-      h+     Total     
 -------------------------------------
      1  -0.0759   0.0430  -0.0329
      2  -0.0234   0.0448   0.0214
      3  -0.0420   0.0868   0.0448
      4  -0.0420   0.0868   0.0448
      5  -0.0338   0.0521   0.0183
      6  -0.0169   0.0086  -0.0083
      7  -0.0072   0.0347   0.0276
      8  -0.0536   0.0096  -0.0440
      9  -0.0637   0.0319  -0.0318
     10  -0.0002   0.0001  -0.0002
     11  -0.0005   0.0001  -0.0005
     12  -0.0001   0.0002   0.0002
     13  -0.0006   0.0002  -0.0004
     14  -0.0338   0.0521   0.0183
     15  -0.0169   0.0086  -0.0083
     16  -0.0536   0.0096  -0.0440
     17  -0.0072   0.0347   0.0276
     18  -0.0637   0.0319  -0.0318
     19  -0.0005   0.0001  -0.0005
     20  -0.0002   0.0001  -0.0002
     21  -0.0001   0.0002   0.0002
     22  -0.0006   0.0002  -0.0004
  Sum:   -0.5363   0.5363  -0.0000
 -------------------------------------
 
      Analysis of the difference density matrix (wrt ground state)
 -------------------------------------
   Atom   Attach   Detach   Total     
 -------------------------------------
      1   0.0886  -0.0138   0.0748
      2   0.0561  -0.1062  -0.0501
      3   0.0686  -0.0724  -0.0038
      4   0.0686  -0.0724  -0.0038
      5   0.0655  -0.0741  -0.0086
      6   0.0177  -0.0276  -0.0100
      7   0.0263  -0.0157   0.0106
      8   0.0540  -0.0359   0.0181
      9   0.0661  -0.0858  -0.0197
     10   0.0004  -0.0003   0.0001
     11   0.0007  -0.0004   0.0003
     12   0.0004  -0.0001   0.0003
     13   0.0009  -0.0006   0.0003
     14   0.0655  -0.0741  -0.0086
     15   0.0177  -0.0276  -0.0100
     16   0.0540  -0.0359   0.0181
     17   0.0263  -0.0157   0.0106
     18   0.0661  -0.0858  -0.0197
     19   0.0007  -0.0004   0.0003
     20   0.0004  -0.0003   0.0001
     21   0.0004  -0.0001   0.0003
     22   0.0009  -0.0006   0.0003
  Sum:    0.7458  -0.7458   0.0000
 -------------------------------------
 
*** Unpaired Electrons
 Yamaguchi Nd:         3.74
  
**************************************************
 RAS-CI total energy for state  10:   -571.745943229093
  Excitation energy (eV) =  5.278181978976
  State symmetry: A1    (C2v      )
  <S^2>      :  2.0000
[...]
  0.655   0.665   0.674   0.683   0.703   0.707   0.723   0.738
 39 B1   16 B2   40 B1   48 A1   41 B1   42 B1   49 A1   43 B1                 
  0.742   0.760   0.789   0.798   0.803   0.818   0.818   0.833
 17 B2   13 A2   50 A1   44 B1   51 A1   45 B1   52 A1   46 B1                 
  0.835   0.839   0.847   0.852   0.866   0.876   0.898   0.908
 18 B2   53 A1   14 A2   54 A1   47 B1   55 A1   15 A2   48 B1                 
  0.908   0.907   0.927   0.934   0.947   0.963   0.963   0.972
 56 A1   19 B2   49 B1   20 B2   50 B1   51 B1   57 A1   58 A1                 
  0.994   0.994   0.998   0.996   1.037   1.041   1.039   1.049
 59 A1   21 B2   52 B1   16 A2   60 A1   53 B1   22 B2   54 B1                 
  1.068   1.081   1.094   1.104   1.126   1.137   1.160   1.165
 61 A1   17 A2   55 B1   62 A1   56 B1   63 A1   57 B1   64 A1                 
  1.169   1.198   1.206   1.226   1.241   1.265   1.266   1.268
 18 A2   65 A1   23 B2   66 A1   19 A2   58 B1   24 B2   59 B1                 
  1.276   1.328   1.332   1.365   1.366   1.372   1.394   1.398
 67 A1   25 B2   20 A2   68 A1   21 A2   60 B1   69 A1   26 B2                 
  1.401   1.415   1.429   1.446   1.446   1.452   1.460   1.475
 61 B1   70 A1   71 A1   62 B1   27 B2   63 B1   72 A1   64 B1                 
  1.489   1.515   1.546   1.552   1.565   1.571   1.583   1.583
 73 A1   22 A2   65 B1   74 A1   66 B1   23 A2   75 A1   28 B2                 
  1.597   1.613   1.648   1.654   1.657   1.664   1.687   1.700
 67 B1   76 A1   68 B1   77 A1   24 A2   29 B2   69 B1   78 A1                 
  1.733   1.758   1.762   1.776   1.781   1.788   1.794   1.801
 25 A2   30 B2   31 B2   70 B1   26 A2   79 A1   71 B1   80 A1                 
  1.806   1.825   1.830   1.868   1.874   1.892   1.910   1.918
 81 A1   32 B2   72 B1   73 B1   27 A2   33 B2   82 A1   28 A2                 
  1.924   1.950   1.953   1.958   1.975   1.977   1.988   2.004
 83 A1   84 A1   34 B2   74 B1   35 B2   85 A1   29 A2   75 B1                 
  2.015   2.020   2.037   2.064   2.099   2.112   2.131   2.139
 30 A2   76 B1   86 A1   77 B1   36 B2   31 A2   87 A1   37 B2                 
  2.144   2.179   2.187   2.205   2.260   2.260   2.267   2.305
 32 A2   38 B2   33 A2   88 A1   78 B1   39 B2   34 A2   89 A1                 
  2.311   2.318   2.339   2.351   2.382   2.385   2.386   2.390
 35 A2   79 B1   90 A1   80 B1   91 A1   92 A1   81 B1   40 B2                 
  2.418   2.425   2.466   2.467   2.477   2.494   2.513   2.517
 82 B1   93 A1   94 A1   83 B1   95 A1   84 B1   85 B1   96 A1                 
  2.561   2.585   2.605   2.627   2.629   2.631   2.635   2.701
 86 B1   41 B2   97 A1   87 B1   36 A2   42 B2   98 A1   88 B1                 
  2.705   2.730   2.735   2.747   2.749   2.765   2.797   2.841
 99 A1  100 A1   37 A2   89 B1  101 A1   90 B1   43 B2  102 A1                 
  2.852   2.872   2.885   2.895   2.899   2.909   2.913   2.919
 91 B1   92 B1  103 A1   44 B2  104 A1   93 B1  105 A1   94 B1                 
  2.924   2.946   2.953   2.957   2.967   2.993   2.997   3.010
 38 A2  106 A1   39 A2   45 B2   95 B1   46 B2   96 B1   40 A2                 
  3.010   3.015   3.032   3.034   3.041   3.046   3.049   3.077
 47 B2   97 B1  107 A1   41 A2   98 B1  108 A1   48 B2  109 A1                 
  3.088   3.111   3.115   3.126   3.128   3.135   3.169   3.169
 49 B2   99 B1   42 A2  100 B1  110 A1   50 B2  101 B1  111 A1                 
  3.180   3.183   3.199   3.210   3.226   3.234   3.242   3.251
112 A1   43 A2  102 B1   44 A2  113 A1   51 B2  103 B1   52 B2                 
  3.263   3.268   3.295   3.315   3.317   3.322   3.327   3.347
104 B1  114 A1  115 A1   45 A2  116 A1  105 B1   53 B2   46 A2                 
  3.356   3.357   3.372   3.382   3.409   3.417   3.443   3.445
 54 B2   47 A2  117 A1   55 B2  118 A1   56 B2  106 B1  119 A1                 
  3.456   3.463   3.465   3.476   3.484   3.491   3.498   3.501
107 B1   48 A2  120 A1  108 B1   57 B2  121 A1  109 B1   49 A2                 
  3.511   3.542   3.549   3.555   3.572   3.574   3.593   3.604
 50 A2   58 B2  110 B1  122 A1   51 A2  111 B1   59 B2  123 A1                 
  3.607   3.623   3.630   3.662   3.665   3.666   3.678   3.688
112 B1  124 A1   60 B2   52 A2  125 A1  113 B1  114 B1   61 B2                 
  3.691   3.719   3.725   3.731   3.734   3.752   3.753   3.771
126 A1   62 B2   53 A2  115 B1  127 A1  128 A1   63 B2  116 B1                 
  3.793   3.796   3.803   3.833   3.833   3.849   3.862   3.860
129 A1   54 A2  117 B1   64 B2   55 A2  130 A1  118 B1   56 A2                 
  3.868   3.873   3.879   3.887   3.892   3.907   3.908   3.930
131 A1  119 B1  120 B1   57 A2   65 B2  132 A1   58 A2  133 A1                 
  3.947   3.995   3.997   4.012   4.036   4.090   4.111   4.140
121 B1  134 A1  122 B1   66 B2   59 A2  123 B1  135 A1   60 A2                 
  4.149   4.169   4.186   4.210   4.230   4.234   4.251   4.270
 67 B2  124 B1  136 A1  137 A1  125 B1   68 B2  126 B1  138 A1                 
  4.281   4.302   4.344   4.376   4.382   4.394   4.400   4.407
127 B1  139 A1  140 A1   69 B2  141 A1   70 B2  128 B1  129 B1                 
  4.434   4.459   4.458   4.480   4.504   4.526   4.540   4.549
142 A1  130 B1   61 A2   62 A2  143 A1   71 B2  131 B1  144 A1                 
  4.563   4.568   4.601   4.610   4.637   4.645   4.655   4.666
 63 A2   72 B2  145 A1   64 A2  132 B1   65 A2   73 B2  133 B1                 
  4.696   4.744   4.777   4.790   4.790   4.817   4.839   4.903
134 B1  146 A1  135 B1  147 A1   66 A2  136 B1  148 A1   74 B2                 
  4.938   4.979   5.003   5.003   5.059   5.088   5.107   5.126
149 A1   75 B2  150 A1  137 B1  138 B1  151 A1   67 A2  152 A1                 
  5.132   5.139   5.161   5.183   5.264   5.273   5.317   5.345
 68 A2  139 B1  153 A1  140 B1  154 A1  141 B1  155 A1  142 B1                 
  5.379   5.408   5.436   5.509   5.630   5.635   5.658   5.669
143 B1  156 A1  144 B1  157 A1  158 A1  145 B1  159 A1  146 B1                 
  5.678   5.695   5.766   5.800   5.907   5.930   5.955   6.036
 76 B2  147 B1  148 B1  160 A1  161 A1  149 B1  162 A1  150 B1                 
  6.090   6.127   6.253   6.370   6.654   6.937   6.975   7.158
 69 A2  151 B1  163 A1  152 B1   77 B2   70 A2  164 A1  165 A1                 
  7.310   7.369   7.653   7.736  22.987  23.570  23.588  23.691
153 B1   78 B2  166 A1  154 B1  167 A1  155 B1  168 A1  156 B1                 
 23.718  23.766  23.787  24.020  24.075  24.243  24.500  24.643
169 A1  170 A1  157 B1  171 A1  158 B1  159 B1  172 A1  173 A1                 
 24.737  45.603
160 B1  174 A1                                                                 
 
 Beta MOs, Restricted
 -- Doubly Occupied --           
-20.499 -11.299 -11.268 -11.268 -11.267 -11.266 -11.264 -11.264
  1 A1    2 A1    3 A1    1 B1    4 A1    2 B1    5 A1    3 B1                 
-11.259 -11.259 -11.258 -11.258 -11.249 -11.249  -1.328  -1.192
  4 B1    6 A1    5 B1    7 A1    8 A1    6 B1    9 A1   10 A1                 
 -1.150  -1.084  -1.051  -1.034  -0.972  -0.913  -0.878  -0.818
  7 B1   11 A1   12 A1    8 B1    9 B1   13 A1   14 A1   10 B1                 
 -0.798  -0.770  -0.715  -0.701  -0.668  -0.633  -0.619  -0.602
 11 B1   15 A1   16 A1   12 B1   17 A1   13 B1   14 B1   15 B1                 
 -0.535  -0.546  -0.504  -0.500  -0.472  -0.463  -0.364  -0.348
  1 B2   16 B1   18 A1   17 B1    1 A2    2 B2    3 B2    2 A2                 
 -0.333  -0.640  -0.611  -0.579  -0.539  -0.391
  4 B2   19 A1   20 A1   21 A1   22 A1   18 B1                                 
 -- Singly Occupied (Vacant) --  
 -0.046   0.057
  3 A2    5 B2                                                                 
 -- Virtual --                   
  0.152   0.095   0.140   0.150   0.182   0.163   0.182   0.187
  4 A2    6 B2   23 A1   19 B1    5 A2   24 A1   20 B1   25 A1                 
  0.228   0.202   0.213   0.222   0.235   0.240   0.261   0.292
  7 B2   26 A1   21 B1   27 A1   22 B1   23 B1   28 A1   29 A1                 
  0.313   0.306   0.310   0.321   0.318   0.322   0.332   0.353
  8 B2   30 A1   24 B1    9 B2   31 A1   25 B1    6 A2    7 A2                 
  0.349   0.350   0.373   0.372   0.380   0.386   0.388   0.395
 32 A1   26 B1   10 B2   33 A1   11 B2   27 B1    8 A2   34 A1                 
  0.414   0.441   0.438   0.441   0.458   0.458   0.467   0.464
 28 B1    9 A2   29 B1   35 A1   12 B2   36 A1   13 B2   37 A1                 
  0.475   0.485   0.500   0.510   0.507   0.512   0.516   0.525
 38 A1   30 B1   39 A1   10 A2   31 B1   40 A1   32 B1   14 B2                 
  0.532   0.530   0.549   0.548   0.564   0.567   0.583   0.581
 11 A2   33 B1   34 B1   41 A1   35 B1   42 A1   15 B2   36 B1                 
  0.588   0.596   0.620   0.615   0.614   0.641   0.646   0.657
 43 A1   44 A1   12 A2   37 B1   45 A1   46 A1   38 B1   47 A1                 
  0.660   0.680   0.678   0.690   0.707   0.709   0.727   0.742
 39 B1   16 B2   40 B1   48 A1   41 B1   42 B1   49 A1   43 B1                 
  0.761   0.769   0.792   0.801   0.806   0.823   0.826   0.838
 17 B2   13 A2   50 A1   44 B1   51 A1   45 B1   52 A1   46 B1                 
  0.849   0.842   0.861   0.856   0.871   0.879   0.909   0.911
 18 B2   53 A1   14 A2   54 A1   47 B1   55 A1   15 A2   48 B1                 
  0.911   0.918   0.929   0.947   0.951   0.967   0.968   0.977
 56 A1   19 B2   49 B1   20 B2   50 B1   51 B1   57 A1   58 A1                 
  0.997   1.010   1.003   1.010   1.043   1.044   1.057   1.053
 59 A1   21 B2   52 B1   16 A2   60 A1   53 B1   22 B2   54 B1                 
  1.075   1.093   1.096   1.108   1.130   1.143   1.165   1.172
 61 A1   17 A2   55 B1   62 A1   56 B1   63 A1   57 B1   64 A1                 
  1.179   1.206   1.216   1.229   1.252   1.269   1.277   1.275
 18 A2   65 A1   23 B2   66 A1   19 A2   58 B1   24 B2   59 B1                 
  1.280   1.339   1.339   1.370   1.378   1.375   1.397   1.407
 67 A1   25 B2   20 A2   68 A1   21 A2   60 B1   69 A1   26 B2                 
  1.406   1.418   1.432   1.449   1.460   1.457   1.463   1.479
 61 B1   70 A1   71 A1   62 B1   27 B2   63 B1   72 A1   64 B1                 
  1.492   1.525   1.549   1.556   1.568   1.582   1.586   1.596
 73 A1   22 A2   65 B1   74 A1   66 B1   23 A2   75 A1   28 B2                 
  1.599   1.618   1.655   1.657   1.671   1.680   1.689   1.703
 67 B1   76 A1   68 B1   77 A1   24 A2   29 B2   69 B1   78 A1                 
  1.743   1.768   1.777   1.778   1.795   1.791   1.797   1.804
 25 A2   30 B2   31 B2   70 B1   26 A2   79 A1   71 B1   80 A1                 
  1.808   1.837   1.833   1.870   1.889   1.904   1.913   1.928
 81 A1   32 B2   72 B1   73 B1   27 A2   33 B2   82 A1   28 A2                 
  1.932   1.954   1.960   1.961   1.984   1.980   1.998   2.006
 83 A1   84 A1   34 B2   74 B1   35 B2   85 A1   29 A2   75 B1                 
  2.024   2.023   2.041   2.067   2.105   2.119   2.136   2.154
 30 A2   76 B1   86 A1   77 B1   36 B2   31 A2   87 A1   37 B2                 
  2.154   2.184   2.202   2.210   2.263   2.265   2.273   2.308
 32 A2   38 B2   33 A2   88 A1   78 B1   39 B2   34 A2   89 A1                 
  2.315   2.322   2.346   2.359   2.388   2.389   2.391   2.403
 35 A2   79 B1   90 A1   80 B1   91 A1   92 A1   81 B1   40 B2                 
  2.424   2.431   2.472   2.473   2.481   2.498   2.517   2.522
 82 B1   93 A1   94 A1   83 B1   95 A1   84 B1   85 B1   96 A1                 
  2.565   2.590   2.610   2.632   2.636   2.643   2.641   2.705
 86 B1   41 B2   97 A1   87 B1   36 A2   42 B2   98 A1   88 B1                 
  2.709   2.734   2.742   2.750   2.754   2.771   2.807   2.846
 99 A1  100 A1   37 A2   89 B1  101 A1   90 B1   43 B2  102 A1                 
  2.855   2.874   2.887   2.906   2.901   2.913   2.917   2.922
 91 B1   92 B1  103 A1   44 B2  104 A1   93 B1  105 A1   94 B1                 
  2.933   2.948   2.960   2.963   2.970   3.004   3.001   3.017
 38 A2  106 A1   39 A2   45 B2   95 B1   46 B2   96 B1   40 A2                 
  3.017   3.018   3.035   3.040   3.044   3.049   3.056   3.081
 47 B2   97 B1  107 A1   41 A2   98 B1  108 A1   48 B2  109 A1                 
  3.098   3.114   3.123   3.129   3.131   3.141   3.172   3.176
 49 B2   99 B1   42 A2  100 B1  110 A1   50 B2  101 B1  111 A1                 
  3.185   3.189   3.205   3.216   3.232   3.243   3.246   3.259
112 A1   43 A2  102 B1   44 A2  113 A1   51 B2  103 B1   52 B2                 
  3.267   3.275   3.302   3.322   3.324   3.327   3.336   3.354
104 B1  114 A1  115 A1   45 A2  116 A1  105 B1   53 B2   46 A2                 
  3.362   3.364   3.378   3.388   3.415   3.430   3.447   3.449
 54 B2   47 A2  117 A1   55 B2  118 A1   56 B2  106 B1  119 A1                 
  3.460   3.468   3.469   3.483   3.490   3.495   3.503   3.505
107 B1   48 A2  120 A1  108 B1   57 B2  121 A1  109 B1   49 A2                 
  3.517   3.548   3.551   3.559   3.579   3.578   3.598   3.609
 50 A2   58 B2  110 B1  122 A1   51 A2  111 B1   59 B2  123 A1                 
  3.611   3.625   3.634   3.666   3.670   3.671   3.682   3.698
112 B1  124 A1   60 B2   52 A2  125 A1  113 B1  114 B1   61 B2                 
  3.696   3.727   3.733   3.735   3.738   3.755   3.760   3.775
126 A1   62 B2   53 A2  115 B1  127 A1  128 A1   63 B2  116 B1                 
  3.796   3.803   3.806   3.839   3.838   3.851   3.864   3.870
129 A1   54 A2  117 B1   64 B2   55 A2  130 A1  118 B1   56 A2                 
  3.870   3.877   3.883   3.893   3.900   3.910   3.917   3.933
131 A1  119 B1  120 B1   57 A2   65 B2  132 A1   58 A2  133 A1                 
  3.950   3.998   3.999   4.020   4.045   4.092   4.112   4.144
121 B1  134 A1  122 B1   66 B2   59 A2  123 B1  135 A1   60 A2                 
  4.154   4.172   4.189   4.213   4.232   4.241   4.253   4.272
 67 B2  124 B1  136 A1  137 A1  125 B1   68 B2  126 B1  138 A1                 
  4.283   4.304   4.347   4.383   4.385   4.401   4.402   4.409
127 B1  139 A1  140 A1   69 B2  141 A1   70 B2  128 B1  129 B1                 
  4.436   4.462   4.466   4.487   4.506   4.533   4.542   4.552
142 A1  130 B1   61 A2   62 A2  143 A1   71 B2  131 B1  144 A1                 
  4.569   4.574   4.603   4.618   4.639   4.651   4.661   4.668
 63 A2   72 B2  145 A1   64 A2  132 B1   65 A2   73 B2  133 B1                 
  4.699   4.748   4.780   4.793   4.795   4.820   4.843   4.908
134 B1  146 A1  135 B1  147 A1   66 A2  136 B1  148 A1   74 B2                 
  4.941   4.985   5.007   5.006   5.060   5.091   5.112   5.130
149 A1   75 B2  150 A1  137 B1  138 B1  151 A1   67 A2  152 A1                 
  5.139   5.141   5.163   5.186   5.266   5.276   5.319   5.348
 68 A2  139 B1  153 A1  140 B1  154 A1  141 B1  155 A1  142 B1                 
  5.381   5.411   5.438   5.511   5.633   5.638   5.660   5.676
143 B1  156 A1  144 B1  157 A1  158 A1  145 B1  159 A1  146 B1                 
  5.688   5.697   5.769   5.804   5.909   5.933   5.957   6.039
 76 B2  147 B1  148 B1  160 A1  161 A1  149 B1  162 A1  150 B1                 
  6.097   6.130   6.258   6.372   6.664   6.953   6.981   7.172
 69 A2  151 B1  163 A1  152 B1   77 B2   70 A2  164 A1  165 A1                 
  7.313   7.382   7.659   7.738  22.989  23.571  23.589  23.692
153 B1   78 B2  166 A1  154 B1  167 A1  155 B1  168 A1  156 B1                 
 23.720  23.767  23.788  24.021  24.075  24.247  24.502  24.645
169 A1  170 A1  157 B1  171 A1  158 B1  159 B1  172 A1  173 A1                 
 24.740  45.606
160 B1  174 A1                                                                 
 --------------------------------------------------------------
 
          Ground-State Mulliken Net Atomic Charges

     Atom                 Charge (a.u.)
  ----------------------------------------
      1 C                     0.048296
      2 O                    -0.522280
      3 C                     0.179457
      4 C                     0.179457
      5 C                     0.163321
      6 C                    -0.246173
      7 C                    -0.039740
      8 C                    -0.300029
      9 C                    -0.093856
     10 H                     0.162416
     11 H                     0.132563
     12 H                     0.142790
     13 H                     0.136243
     14 C                     0.163321
     15 C                    -0.246173
     16 C                    -0.300029
     17 C                    -0.039740
     18 C                    -0.093856
     19 H                     0.132563
     20 H                     0.162416
     21 H                     0.142790
     22 H                     0.136243
  ----------------------------------------
  Sum of atomic charges =     0.000000

 -----------------------------------------------------------------
                    Cartesian Multipole Moments
 -----------------------------------------------------------------
    Charge (ESU x 10^10)
                 0.0000
    Dipole Moment (Debye)
         X      -0.0000      Y      -0.0000      Z      -5.5022
       Tot       5.5022
    Quadrupole Moments (Debye-Ang)
        XX     -58.8230     XY      -0.0000     YY     -86.3019
        XZ      -0.0000     YZ      -0.0000     ZZ     -87.8825
    Octopole Moments (Debye-Ang^2)
       XXX      -0.0000    XXY       0.0000    XYY      -0.0000
       YYY      -0.0000    XXZ       0.0872    XYZ       0.0000
       YYZ       7.1837    XZZ      -0.0000    YZZ      -0.0000
       ZZZ     -59.8950
    Hexadecapole Moments (Debye-Ang^3)
      XXXX   -1996.0826   XXXY      -0.0000   XXYY    -471.8630
      XYYY      -0.0000   YYYY    -100.4056   XXXZ      -0.0000
      XXYZ      -0.0000   XYYZ       0.0000   YYYZ      -0.0000
      XXZZ    -507.0481   XYZZ      -0.0000   YYZZ    -201.2668
      XZZZ      -0.0000   YZZZ      -0.0000   ZZZZ   -1116.8750
 -----------------------------------------------------------------
 Total job time:  165805.71s(wall), 113238.10s(cpu) 
 Sun Sep  8 09:08:02 2024

======= MOLDEN-FORMATTED INPUT FILE FOLLOWS =======
[Molden Format]
[Atoms] (AU)
  C      1    6     -0.00000000     -0.00000000      3.03180663
  O      2    8     -0.00000000     -0.00000000      5.36386447
  C      3    6     -2.18646241     -0.00000000      1.32112637
  C      4    6      2.18646241      0.00000000      1.32112637
  C      5    6      1.32227858      0.00000000     -1.31524615
  C      6    6      4.75553866      0.00000000      1.87765058
  C      7    6      6.46959830      0.00000000     -0.09720828
  C      8    6      3.13924399      0.00000000     -3.30166942
  C      9    6      5.64965133      0.00000000     -2.69243880
  H     10    1      5.37309751      0.00000000      3.82951211
  H     11    1      2.53951045      0.00000000     -5.25935036
  H     12    1      8.47909546      0.00000000      0.29457336
  H     13    1      7.06673554      0.00000000     -4.16889870
  C     14    6     -1.32227858     -0.00000000     -1.31524615
  C     15    6     -4.75553866     -0.00000000      1.87765058
  C     16    6     -3.13924399     -0.00000000     -3.30166942
  C     17    6     -6.46959830     -0.00000000     -0.09720828
  C     18    6     -5.64965133     -0.00000000     -2.69243880
  H     19    1     -2.53951045     -0.00000000     -5.25935036
  H     20    1     -5.37309751     -0.00000000      3.82951211
  H     21    1     -8.47909546     -0.00000000      0.29457336
  H     22    1     -7.06673554     -0.00000000     -4.16889870

======= END OF MOLDEN-FORMATTED INPUT FILE =======


        *************************************************************
        *                                                           *
        *  Thank you very much for using Q-Chem.  Have a nice day.  *
        *                                                           *
        *************************************************************


