                  Welcome to Q-Chem
     A Quantum Leap Into The Future Of Chemistry


 Q-Chem 6.0 (devel), Q-Chem, Inc., Pleasanton, CA (2022)

 E. Epifanovsky,  A. T. B. Gilbert,  Xintian Feng,  Joonho Lee,  Yuezhi Mao,  
 N. Mardirossian,  P. Pokhilko,  A. White,  M. Wormit,  M. P. Coons,  
 A. L. Dempwolff,  Zhengting Gan,  D. Hait,  P. R. Horn,  L. D. Jacobson,  
 I. Kaliman,  J. Kussmann,  A. W. Lange,  Ka Un Lao,  D. S. Levine,  Jie Liu,  
 S. C. McKenzie,  A. F. Morrison,  K. Nanda,  F. Plasser,  D. R. Rehn,  
 M. L. Vidal,  Zhi-Qiang You,  Ying Zhu,  B. Alam,  B. Albrecht,  
 A. Aldossary,  E. Alguire,  J. H. Andersen,  V. Athavale,  D. Barton,  
 K. Begam,  A. Behn,  N. Bellonzi,  Y. A. Bernard,  E. J. Berquist,  
 H. Burton,  A. Carreras,  K. Carter-Fenk,  Romit Chakraborty,  
 Chandrima Chakravarty,  Junhan Chen,  A. D. Chien,  K. D. Closser,  
 V. Cofer-Shabica,  L. Cunha,  S. Dasgupta,  Jia Deng,  M. de Wergifosse,  
 M. Diedenhofen,  Hainam Do,  S. Ehlert,  Po-Tung Fang,  S. Fatehi,  
 Qingguo Feng,  T. Friedhoff,  B. Ganoe,  J. Gayvert,  Qinghui Ge,  
 G. Gidofalvi,  M. Goldey,  J. Gomes,  C. Gonzalez-Espinoza,  S. Gulania,  
 A. Gunina,  J. A. Gyamfi,  M. W. D. Hanson-Heine,  P. H. P. Harbach,  
 A. W. Hauser,  M. F. Herbst,  M. Hernandez Vera,  M. Hodecker,  
 Z. C. Holden,  S. Houck,  Xunkun Huang,  Kerwin Hui,  B. C. Huynh,  
 K. Ikeda,  M. Ivanov,  Hyunjun Ji,  Zuxin Jin,  Hanjie Jiang,  B. Kaduk,  
 S. Kaehler,  R. Kang,  K. Khistyaev,  Jaehoon Kim,  Yongbin Kim,  
 P. Klunzinger,  Z. Koczor-Benda,  Joong Hoon Koh,  D. Kosenkov,  
 Saikiran Kotaru,  L. Koulias,  T. Kowalczyk,  C. M. Krauter,  K. Kue,  
 A. Kunitsa,  T. Kus,  A. Landau,  K. V. Lawler,  D. Lefrancois,  S. Lehtola,  
 Rain Li,  Shaozhi Li,  Yi-Pei Li,  Jiashu Liang,  M. Liebenthal,  
 Hung-Hsuan Lin,  You-Sheng Lin,  Fenglai Liu,  Kuan-Yu Liu,  
 M. Loipersberger,  A. Luenser,  C. Malbon,  A. Manjanath,  P. Manohar,  
 E. Mansoor,  S. F. Manzer,  Shan-Ping Mao,  A. V. Marenich,  T. Markovich,  
 S. Mason,  F. Matz,  S. A. Maurer,  P. F. McLaughlin,  M. F. S. J. Menger,  
 J.-M. Mewes,  S. A. Mewes,  P. Morgante,  Mohammad Mostafanejad,  
 J. W. Mullinax,  K. J. Oosterbaan,  G. Paran,  V. Parravicini,  
 Alexander C. Paul,  Suranjan K. Paul,  F. Pavosevic,  Zheng Pei,  S. Prager,  
 E. I. Proynov,  E. Ramos,  B. Rana,  A. E. Rask,  A. Rettig,  R. M. Richard,  
 F. Rob,  E. Rossomme,  T. Scheele,  M. Scheurer,  M. Schneider,  
 P. E. Schneider,  N. Sergueev,  S. M. Sharada,  Hengyuan Shen,  
 W. Skomorowski,  D. W. Small,  C. J. Stein,  Yingli Su,  Yu-Chuan Su,  
 E. J. Sundstrom,  Zhen Tao,  J. Thirman,  Hung-Yi Tsai,  T. Tsuchimochi,  
 N. M. Tubman,  C. Utku,  S. P. Veccham,  O. Vydrov,  J. Wenzel,  
 Jonathan Wong,  J. Witte,  A. Yamada,  Chou-Hsun Yang,  Kun Yao,  
 S. Yeganeh,  S. R. Yost,  A. Zech,  F. Zeller,  Igor Ying Zhang,  
 Xing Zhang,  Yu Zhang,  D. Zuev,  A. Aspuru-Guzik,  A. T. Bell,  
 N. A. Besley,  K. B. Bravaya,  B. R. Brooks,  D. Casanova,  Jeng-Da Chai,  
 Hsing-Ta Chen,  S. Coriani,  C. J. Cramer,  A. E. DePrince, III,  
 R. A. DiStasio Jr.,  A. Dreuw,  B. D. Dunietz,  T. R. Furlani,  
 W. A. Goddard III,  S. Grimme,  S. Hammes-Schiffer,  T. Head-Gordon,  
 W. J. Hehre,  Chao-Ping Hsu,  T.-C. Jagau,  Yousung Jung,  A. Klamt,  
 Jing Kong,  D. S. Lambrecht,  Xiangyuan Li,  WanZhen Liang,  N. J. Mayhall,  
 C. W. McCurdy,  J. B. Neaton,  T. Neudecker,  C. Ochsenfeld,  
 J. A. Parkhill,  R. Peverati,  V. A. Rassolov,  Haisheng Ren,  Yihan Shao,  
 L. V. Slipchenko,  R. P. Steele,  J. E. Subotnik,  A. J. W. Thom,  
 A. Tkatchenko,  D. G. Truhlar,  T. Van Voorhis,  Fan Wang,  
 T. A. Wesolowski,  K. B. Whaley,  H. L. Woodcock III,  P. M. Zimmerman,  
 S. Faraji,  P. M. W. Gill,  M. Head-Gordon,  J. M. Herbert,  A. I. Krylov

 Contributors to earlier versions of Q-Chem not listed above: 
 R. D. Adamson,  B. Austin,  R. Baer,  J. Baker,  G. J. O. Beran,  
 K. Brandhorst,  S. T. Brown,  E. F. C. Byrd,  Arup K. Chakraborty,  
 G. K. L. Chan,  Chun-Min Chang,  Yunqing Chen,  C.-L. Cheng,  
 Siu Hung Chien,  D. M. Chipman,  D. L. Crittenden,  H. Dachsel,  
 R. J. Doerksen,  A. D. Dutoi,  R. G. Edgar,  J. Fosso-Tande,  
 L. Fusti-Molnar,  D. Ghosh,  A. Ghysels,  A. Golubeva-Zadorozhnaya,  
 J. Gonthier,  M. S. Gordon,  S. R. Gwaltney,  G. Hawkins,  J. E. Herr,  
 A. Heyden,  S. Hirata,  E. G. Hohenstein,  G. Kedziora,  F. J. Keil,  
 C. Kelley,  Jihan Kim,  R. A. King,  R. Z. Khaliullin,  P. P. Korambath,  
 W. Kurlancheek,  A. Laurent,  A. M. Lee,  M. S. Lee,  S. V. Levchenko,  
 Ching Yeh Lin,  D. Liotard,  E. Livshits,  R. C. Lochan,  I. Lotan,  
 L. A. Martinez-Martinez,  P. E. Maslen,  N. Nair,  D. P. O'Neill,  
 D. Neuhauser,  E. Neuscamman,  C. M. Oana,  R. Olivares-Amaya,  R. Olson,  
 T. M. Perrine,  B. Peters,  P. A. Pieniazek,  A. Prociuk,  Y. M. Rhee,  
 J. Ritchie,  M. A. Rohrdanz,  E. Rosta,  N. J. Russ,  H. F. Schaefer III,  
 M. W. Schmidt,  N. E. Schultz,  S. Sharma,  N. Shenvi,  C. D. Sherrill,  
 A. C. Simmonett,  A. Sodt,  T. Stein,  D. Stuck,  K. S. Thanthiriwatte,  
 V. Vanovschi,  L. Vogt,  Tao Wang,  A. Warshel,  M. A. Watson,  
 C. F. Williams,  Q. Wu,  X. Xu,  Jun Yang,  W. Zhang,  Yan Zhao

   Please cite Q-Chem as follows:
  "Software for the frontiers of quantum chemistry:
   An overview of developments in the Q-Chem 5 package"
   J. Chem. Phys. 155, 084801 (2021)
   https://doi.org/10.1063/5.0055522 (open access)

 Q-Chem 6.0.1 for Intel X86 EM64T Linux

 Parts of Q-Chem use Armadillo 9.900.5 (Nocturnal Misbehaviour).
 http://arma.sourceforge.net/

 Q-Chem begins on Mon Oct 21 12:12:12 2024  

 Host: hyperion-223
0

     Scratch files written to ./qchem2635412//
 Processing $rem in /scratch/abel/SOFTWARE/qchem/config/preferences:
 Processing $rem in /home/acebg/.qchemrc:

 Checking the input file for inconsistencies... 	...done.

--------------------------------------------------------------
User input:
--------------------------------------------------------------
$comment
 TD-DFT/TDA CALCULATION
$end

$molecule
 READ naphthalene.molecule
$end

$rem
!**REFERENCE***     
JOBTYPE            SP
EXCHANGE           B3LYP   !gen:specify in $xc_functional
CORRELATION        NONE
BASIS              def2-TZVP 

!***SCF REFERENCE***
INPUT_BOHR          TRUE
!SKIP_SCFMAN        FALSE
!UNRESTRICTED       FALSE !rectricted-TDDFT not avail in doublets
!SCF_GUESS          core
!SCF_GUESS_MIX      FALSE
!SCF_GUESS_ALWAYS   FALSE
MAX_SCF_CYCLES     999
!SCF_CONVERGENCE    10
SCF_ALGORITHM      DIIS_GDM !DIIS,DM,DIIS_DM,GDM,DIIS_GDM,GD

!SYMMETRY           TRUE !use of symmetry for calculating integrals
!SYM_IGNORE         FALSE !turn off using symmetry
!SYM_TOL            5 !tolerance for determining point group

!THRESH             14
!SCF_FINAL_PRINT    2 !0,1,2,3

!****CIS****
CIS_N_ROOTS        50
!CIS_CONVERGENCE   10
MAX_CIS_CYCLES     200
!CIS_SINGLETS      true
!CIS_TRIPLETS      true
CALC_SOC           2 !not available in doublets in TDDFT
STS_ANGMOM        true
!RPA                FALSE !RPA=1 TDA calc used as guess of TDDFT

!Spin-orbit coupling calculations are implemented for
!restricted, unrestricted CIS/TDDFT, and SF TDDFT
!using Wigner-Eckart theorem: Try CALC_SOC = 2.

!****MEMORY****
MEM_TOTAL          90000        !Default 2000 MB
MEM_STATIC         15000         !Default 64 MB

!**Molecular Properties and Analysis **
!POP_MULLIKEN       FALSE   !Run Mulliken population analysis
!LOWDIN_POPULATION  FALSE  !Run Löwdin population analysis
!GUI                0
!STATE_ANALYSIS     TRUE
!MOLDEN_FORMAT      FALSE
!PRINT_ORBITALS     5
$end

--------------------------------------------------------------
 ----------------------------------------------------------------
             Standard Nuclear Orientation (Bohr)
    I     Atom           X                Y                Z
 ----------------------------------------------------------------
    1      C       0.0000000000    -1.3623625091    -0.0000000000
    2      C      -0.0000000000     1.3623625091     0.0000000000
    3      C      -2.3376206850    -2.6436978817    -0.0000000000
    4      C      -4.6989437780    -1.2863193617     0.0000000000
    5      C      -4.6989437780     1.2863193617     0.0000000000
    6      C      -2.3376206850     2.6436978817     0.0000000000
    7      C       2.3376206850     2.6436978817     0.0000000000
    8      C       2.3376206850    -2.6436978817    -0.0000000000
    9      C       4.6989437780    -1.2863193617    -0.0000000000
   10      C       4.6989437780     1.2863193617    -0.0000000000
   11      H       2.3527347410    -4.6914688881    -0.0000000000
   12      H       6.4552948094    -2.3370951729    -0.0000000000
   13      H       6.4552948094     2.3370951729    -0.0000000000
   14      H       2.3527347410     4.6914688881     0.0000000000
   15      H      -2.3527347410    -4.6914688881    -0.0000000000
   16      H      -6.4552948094    -2.3370951729     0.0000000000
   17      H      -6.4552948094     2.3370951729     0.0000000000
   18      H      -2.3527347410     4.6914688881     0.0000000000
 ----------------------------------------------------------------
 Molecular Point Group                 D2h   NOp =  8
 Largest Abelian Subgroup              D2h   NOp =  8
 Nuclear Repulsion Energy =         454.42574361 hartrees
 There are       35 alpha and       33 beta electrons
 Requested basis set is def2-TZVP
 There are 142 shells and 358 basis functions

 Q-Chem warning in module libmdc/get_mega.C, line 167:

 Allowed MEM_STATIC has been capped at MEM_STATIC=8191.
 Reduce the value of MEM_STATIC to silence this warning.


 Total QAlloc Memory Limit  90000 MB
 Mega-Array Size      8007 MB
 MEM_STATIC part      8191 MB

 A cutoff of  1.0D-12 yielded   9088 shell pairs
 There are     59328 function pairs (     77271 Cartesian)
 Smallest overlap matrix eigenvalue = 6.97E-06

 Scale SEOQF with 1.000000e-01/1.000000e-01/1.000000e+00

 Standard Electronic Orientation quadrupole field applied
 Nucleus-field energy     =     0.0000000153 hartrees
 Guess from superposition of atomic densities
 Warning:  Energy on first SCF cycle will be non-variational
 SAD guess density has 68.000000 electrons

 -----------------------------------------------------------------------
  General SCF calculation program by
  Eric Jon Sundstrom, Paul Horn, Yuezhi Mao, Dmitri Zuev, Alec White,
  David Stuck, Shaama M.S., Shane Yost, Joonho Lee, David Small,
  Daniel Levine, Susi Lehtola, Hugh Burton, Evgeny Epifanovsky,
  Bang C. Huynh
 -----------------------------------------------------------------------
 Exchange:     0.2000 Hartree-Fock + 0.0800 Slater + 0.7200 B88
 Correlation:  0.1900 VWN1RPA + 0.8100 LYP
 Using SG-1 standard quadrature grid
 A unrestricted SCF calculation will be
 performed using DIIS, GDM
 SCF converges when RMS gradient is below 1.0e-08
 ---------------------------------------
  Cycle       Energy         DIIS error
 ---------------------------------------
    1    -388.2662543183      1.50e-02  
    2    -385.7637766880      1.52e-03  Done DIIS. Switching to GDM
 ---------------------------------------
  Cycle       Energy        RMS Gradient
 ---------------------------------------
    1    -385.7637766880      1.33e-01   Descent step
    2    -385.9217043468      3.52e-02   Normal BFGS step
    3    -385.9300656663      3.31e-02   Normal BFGS step
    4    -385.9321549591      2.10e-02   Normal BFGS step
    5    -385.9330982605      5.90e-03   Normal BFGS step
    6    -385.9332681997      4.45e-03   Normal BFGS step
    7    -385.9333079883      1.84e-03   Normal BFGS step
    8    -385.9333236976      2.65e-04   Normal BFGS step
    9    -385.9333245345      1.02e-04   Normal BFGS step
   10    -385.9333245811      1.42e-05   Normal BFGS step
   11    -385.9333245847      5.70e-06   Normal BFGS step
   12    -385.9333245848      3.66e-07   Normal BFGS step
   13    -385.9333245847      1.50e-07   Normal BFGS step
  GDM::WARNING energy changes are now smaller than effective accuracy.
  GDM::        calculation will continue, but THRESH should be increased
  GDM::        or SCF_CONVERGENCE decreased. 
  GDM::        effective_thresh = 3.36e-09
   14    -385.9333245844      5.75e-08   Normal BFGS step
   15    -385.9333245845      4.23e-08   Normal BFGS step
   16    -385.9333245846      3.72e-08   Normal BFGS step
   17    -385.9333245858      4.61e-09  Convergence criterion met
 ---------------------------------------
 SCF time:   CPU 147.74s  wall 149.00s 
<S^2> =          2.024206866
 SCF   energy in the final basis set =     -385.9333245858
 Total energy in the final basis set =     -385.9333245858
 
 MAX_CIS_SUBSPACE fits in available memory
 Direct TDDFT/TDA calculation will be performed
 Exchange:     0.2000 Hartree-Fock + 0.0800 Slater + 0.7200 B88
 Correlation:  0.1900 VWN1RPA + 0.8100 LYP
 Using SG-1 standard quadrature grid
 CIS energy converged when residual is below 10e- 6
 ---------------------------------------------------
 Iter    Rts Conv    Rts Left    Ttl Dev     Max Dev
 ---------------------------------------------------
   1         0          50      0.018533    0.001520
   2         0          50      0.003385    0.000250
   3         0          50      0.001073    0.000475
   4        22          28      0.000675    0.000378
   5        41           9      0.000300    0.000168
   6        45           5      0.000156    0.000117
   7        48           2      0.000055    0.000036
   8        49           1      0.000025    0.000007
   9        49           1      0.000020    0.000003
  10        50           0      0.000018    0.000001    Roots Converged
 ---------------------------------------------------
 
 ---------------------------------------------------
         TDDFT/TDA Excitation Energies              
 ---------------------------------------------------

 Excited state   1: excitation energy (eV) =    1.5874
 Total energy for state  1:                  -385.87498828 au
    <S**2>     :  2.0815
    Trans. Mom.: -0.0000 X   0.0000 Y   0.0000 Z
    Strength   :     0.0000000000
    S(    2) --> V(    1) amplitude =  0.6995 alpha
    D(   33) --> S(    1) amplitude =  0.7045 beta

 Excited state   2: excitation energy (eV) =    1.6971
 Total energy for state  2:                  -385.87095763 au
    <S**2>     :  2.0161
    Trans. Mom.: -0.0088 X   0.0000 Y  -0.0000 Z
    Strength   :     0.0000032497
    S(    2) --> V(    2) amplitude =  0.7167 alpha
    D(   32) --> S(    1) amplitude = -0.6907 beta

 Excited state   3: excitation energy (eV) =    1.9840
 Total energy for state  3:                  -385.86041215 au
    <S**2>     :  2.0248
    Trans. Mom.: -0.0000 X  -0.0000 Y  -0.0000 Z
    Strength   :     0.0000000000
    S(    2) --> V(    1) amplitude =  0.7045 alpha
    D(   33) --> S(    1) amplitude = -0.6976 beta

 Excited state   4: excitation energy (eV) =    3.2101
 Total energy for state  4:                  -385.81535524 au
    <S**2>     :  2.2130
    Trans. Mom.: -0.0000 X  -0.2587 Y  -0.0000 Z
    Strength   :     0.0052634014
    D(   33) --> V(    1) amplitude = -0.2130 alpha
    S(    2) --> V(    5) amplitude =  0.5281 alpha
    D(   31) --> S(    1) amplitude =  0.8000 beta

 Excited state   5: excitation energy (eV) =    3.2618
 Total energy for state  5:                  -385.81345506 au
    <S**2>     :  2.0318
    Trans. Mom.: -1.6751 X   0.0000 Y   0.0000 Z
    Strength   :     0.2242242813
    S(    1) --> V(    1) amplitude =  0.2486 alpha
    S(    2) --> V(    2) amplitude =  0.6387 alpha
    D(   32) --> S(    1) amplitude =  0.6579 beta
    D(   33) --> S(    2) amplitude = -0.2643 beta

 Excited state   6: excitation energy (eV) =    3.8647
 Total energy for state  6:                  -385.79130039 au
    <S**2>     :  2.0397
    Trans. Mom.: -0.0000 X   0.0000 Y  -0.0274 Z
    Strength   :     0.0000712743
    D(   30) --> S(    1) amplitude =  0.9957 beta

 Excited state   7: excitation energy (eV) =    3.8931
 Total energy for state  7:                  -385.79025458 au
    <S**2>     :  2.0368
    Trans. Mom.: -0.0000 X   0.0000 Y   0.0000 Z
    Strength   :     0.0000000000
    S(    2) --> V(    3) amplitude =  0.9961 alpha

 Excited state   8: excitation energy (eV) =    3.9192
 Total energy for state  8:                  -385.78929801 au
    <S**2>     :  2.0365
    Trans. Mom.:  0.0000 X  -0.0000 Y  -0.0000 Z
    Strength   :     0.0000000000
    D(   29) --> S(    1) amplitude =  0.9950 beta

 Excited state   9: excitation energy (eV) =    4.2348
 Total energy for state  9:                  -385.77769813 au
    <S**2>     :  2.0410
    Trans. Mom.: -0.0000 X  -0.0000 Y   0.0417 Z
    Strength   :     0.0001807679
    S(    2) --> V(    4) amplitude =  0.9964 alpha

 Excited state  10: excitation energy (eV) =    4.2814
 Total energy for state 10:                  -385.77598541 au
    <S**2>     :  2.0314
    Trans. Mom.: -0.0000 X  -0.0000 Y  -0.0000 Z
    Strength   :     0.0000000000
    S(    2) --> V(    6) amplitude =  0.9947 alpha

 Excited state  11: excitation energy (eV) =    4.5130
 Total energy for state 11:                  -385.76747312 au
    <S**2>     :  2.0211
    Trans. Mom.:  0.0000 X   0.0000 Y  -0.0000 Z
    Strength   :     0.0000000000
    S(    1) --> V(    2) amplitude =  0.6576 alpha
    D(   27) --> S(    1) amplitude =  0.3583 beta
    D(   32) --> S(    2) amplitude = -0.6379 beta

 Excited state  12: excitation energy (eV) =    4.5468
 Total energy for state 12:                  -385.76623402 au
    <S**2>     :  2.0922
    Trans. Mom.:  0.0000 X   0.9079 Y  -0.0000 Z
    Strength   :     0.0918114735
    S(    2) --> V(    5) amplitude =  0.7435 alpha
    D(   31) --> S(    1) amplitude = -0.5228 beta
    D(   33) --> V(    1) amplitude = -0.3465 beta

 Excited state  13: excitation energy (eV) =    4.6922
 Total energy for state 13:                  -385.76088978 au
    <S**2>     :  2.0349
    Trans. Mom.: -0.1180 X   0.0000 Y   0.0000 Z
    Strength   :     0.0015993073
    S(    1) --> V(    1) amplitude =  0.6887 alpha
    D(   33) --> S(    2) amplitude =  0.7181 beta

 Excited state  14: excitation energy (eV) =    5.0080
 Total energy for state 14:                  -385.74928471 au
    <S**2>     :  2.0380
    Trans. Mom.:  0.0000 X   0.0000 Y   0.0000 Z
    Strength   :     0.0000000000
    S(    2) --> V(    7) amplitude =  0.9941 alpha

 Excited state  15: excitation energy (eV) =    5.0683
 Total energy for state 15:                  -385.74706657 au
    <S**2>     :  3.8163
    Trans. Mom.: -0.0000 X   0.0934 Y  -0.0000 Z
    Strength   :     0.0010842683
    D(   33) --> V(    1) amplitude =  0.6709 alpha
    S(    2) --> V(    5) amplitude =  0.2766 alpha
    D(   32) --> V(    2) amplitude =  0.1815 beta
    D(   33) --> V(    1) amplitude =  0.6204 beta

 Excited state  16: excitation energy (eV) =    5.0777
 Total energy for state 16:                  -385.74672323 au
    <S**2>     :  2.0532
    Trans. Mom.:  0.0000 X  -0.0000 Y  -0.0000 Z
    Strength   :     0.0000000000
    S(    2) --> V(    8) amplitude = -0.3223 alpha
    D(   28) --> S(    1) amplitude =  0.9358 beta

 Excited state  17: excitation energy (eV) =    5.1715
 Total energy for state 17:                  -385.74327656 au
    <S**2>     :  2.0402
    Trans. Mom.: -0.0000 X   0.0000 Y   0.0000 Z
    Strength   :     0.0000000000
    S(    2) --> V(    8) amplitude =  0.9423 alpha
    D(   28) --> S(    1) amplitude =  0.3224 beta

 Excited state  18: excitation energy (eV) =    5.2401
 Total energy for state 18:                  -385.74075454 au
    <S**2>     :  2.1059
    Trans. Mom.:  0.0000 X   0.0000 Y   0.0000 Z
    Strength   :     0.0000000000
    D(   27) --> S(    1) amplitude =  0.7831 beta
    D(   32) --> S(    2) amplitude =  0.5675 beta

 Excited state  19: excitation energy (eV) =    5.4144
 Total energy for state 19:                  -385.73435018 au
    <S**2>     :  2.0400
    Trans. Mom.: -0.0000 X   0.0000 Y  -0.0000 Z
    Strength   :     0.0000000000
    S(    2) --> V(    9) amplitude =  0.9957 alpha

 Excited state  20: excitation energy (eV) =    5.4301
 Total energy for state 20:                  -385.73377160 au
    <S**2>     :  2.0698
    Trans. Mom.: -0.0000 X   0.0000 Y   0.0000 Z
    Strength   :     0.0000000000
    D(   26) --> S(    1) amplitude =  0.9851 beta

 Excited state  21: excitation energy (eV) =    5.5451
 Total energy for state 21:                  -385.72954629 au
    <S**2>     :  3.5872
    Trans. Mom.: -0.0000 X   0.0000 Y   0.0000 Z
    Strength   :     0.0000000000
    D(   32) --> V(    1) amplitude = -0.2049 alpha
    D(   33) --> V(    2) amplitude =  0.6782 alpha
    D(   32) --> V(    1) amplitude = -0.6311 beta
    D(   33) --> V(    2) amplitude = -0.2459 beta

 Excited state  22: excitation energy (eV) =    5.7250
 Total energy for state 22:                  -385.72293641 au
    <S**2>     :  2.0383
    Trans. Mom.:  0.0000 X  -0.0000 Y   0.1343 Z
    Strength   :     0.0025314693
    S(    2) --> V(   10) amplitude =  0.9931 alpha

 Excited state  23: excitation energy (eV) =    5.8380
 Total energy for state 23:                  -385.71878087 au
    <S**2>     :  2.0991
    Trans. Mom.: -0.0000 X  -0.0000 Y  -0.0000 Z
    Strength   :     0.0000000000
    D(   33) --> V(    5) amplitude =  0.1718 alpha
    S(    1) --> V(    2) amplitude =  0.7094 alpha
    S(    2) --> V(   13) amplitude = -0.3170 alpha
    D(   27) --> S(    1) amplitude = -0.3198 beta
    D(   32) --> S(    2) amplitude =  0.4567 beta

 Excited state  24: excitation energy (eV) =    5.8713
 Total energy for state 24:                  -385.71755653 au
    <S**2>     :  2.0339
    Trans. Mom.: -0.0000 X   0.0000 Y  -0.0000 Z
    Strength   :     0.0000000000
    S(    2) --> V(   11) amplitude =  0.9965 alpha

 Excited state  25: excitation energy (eV) =    5.9239
 Total energy for state 25:                  -385.71562575 au
    <S**2>     :  2.0253
    Trans. Mom.:  3.1090 X  -0.0000 Y   0.0000 Z
    Strength   :     1.4028241694
    S(    1) --> V(    1) amplitude =  0.6639 alpha
    S(    2) --> V(    2) amplitude = -0.2324 alpha
    D(   32) --> S(    1) amplitude = -0.2358 beta
    D(   33) --> S(    2) amplitude = -0.6236 beta

 Excited state  26: excitation energy (eV) =    5.9281
 Total energy for state 26:                  -385.71547235 au
    <S**2>     :  2.0483
    Trans. Mom.:  0.0000 X  -0.0000 Y  -0.0757 Z
    Strength   :     0.0008323007
    D(   25) --> S(    1) amplitude =  0.9856 beta

 Excited state  27: excitation energy (eV) =    5.9640
 Total energy for state 27:                  -385.71415011 au
    <S**2>     :  3.6057
    Trans. Mom.: -0.0000 X  -0.0000 Y  -0.0000 Z
    Strength   :     0.0000000000
    D(   32) --> V(    1) amplitude =  0.2208 alpha
    D(   33) --> V(    2) amplitude =  0.4782 alpha
    D(   31) --> S(    2) amplitude =  0.3131 beta
    D(   32) --> V(    1) amplitude =  0.6637 beta
    D(   33) --> V(    2) amplitude = -0.4213 beta

 Excited state  28: excitation energy (eV) =    6.0335
 Total energy for state 28:                  -385.71159843 au
    <S**2>     :  2.0373
    Trans. Mom.:  0.0000 X   0.0000 Y  -0.0000 Z
    Strength   :     0.0000000000
    D(   24) --> S(    1) amplitude =  0.9581 beta
    D(   30) --> S(    2) amplitude = -0.2609 beta

 Excited state  29: excitation energy (eV) =    6.2270
 Total energy for state 29:                  -385.70448614 au
    <S**2>     :  2.2842
    Trans. Mom.: -0.0000 X   0.0000 Y  -0.0000 Z
    Strength   :     0.0000000000
    D(   32) --> V(    1) amplitude = -0.4459 alpha
    D(   33) --> V(    2) amplitude = -0.3617 alpha
    S(    1) --> V(    5) amplitude =  0.4305 alpha
    D(   31) --> S(    2) amplitude =  0.6619 beta
    D(   33) --> V(    2) amplitude = -0.1714 beta

 Excited state  30: excitation energy (eV) =    6.3434
 Total energy for state 30:                  -385.70020835 au
    <S**2>     :  3.9108
    Trans. Mom.:  0.0000 X  -0.0911 Y  -0.0000 Z
    Strength   :     0.0012901884
    D(   32) --> V(    2) amplitude = -0.5789 alpha
    D(   33) --> V(    1) amplitude = -0.2212 alpha
    D(   32) --> V(    2) amplitude =  0.7638 beta

 Excited state  31: excitation energy (eV) =    6.5087
 Total energy for state 31:                  -385.69413505 au
    <S**2>     :  2.6495
    Trans. Mom.:  0.0000 X   0.0000 Y  -0.0000 Z
    Strength   :     0.0000000000
    D(   29) --> V(    1) amplitude = -0.1696 alpha
    D(   33) --> V(    5) amplitude = -0.1598 alpha
    S(    1) --> V(    2) amplitude =  0.1699 alpha
    S(    2) --> V(   13) amplitude =  0.6661 alpha
    D(   27) --> S(    1) amplitude = -0.3372 beta
    D(   31) --> V(    1) amplitude = -0.5121 beta
    D(   33) --> V(    7) amplitude = -0.2342 beta

 Excited state  32: excitation energy (eV) =    6.5492
 Total energy for state 32:                  -385.69264731 au
    <S**2>     :  2.0423
    Trans. Mom.: -0.0000 X  -0.0000 Y   0.0000 Z
    Strength   :     0.0000000000
    S(    2) --> V(   12) amplitude =  0.9887 alpha

 Excited state  33: excitation energy (eV) =    6.6220
 Total energy for state 33:                  -385.68996894 au
    <S**2>     :  2.3929
    Trans. Mom.: -0.0000 X  -0.0000 Y   0.0000 Z
    Strength   :     0.0000000000
    D(   32) --> V(    1) amplitude =  0.4155 alpha
    D(   33) --> V(    2) amplitude =  0.2194 alpha
    D(   31) --> S(    2) amplitude =  0.4899 beta
    D(   33) --> V(    2) amplitude =  0.7069 beta

 Excited state  34: excitation energy (eV) =    6.6822
 Total energy for state 34:                  -385.68775815 au
    <S**2>     :  2.0487
    Trans. Mom.: -0.0000 X   0.0000 Y   0.0000 Z
    Strength   :     0.0000000000
    D(   22) --> S(    1) amplitude =  0.6178 beta
    D(   29) --> S(    2) amplitude =  0.7669 beta

 Excited state  35: excitation energy (eV) =    6.7227
 Total energy for state 35:                  -385.68627096 au
    <S**2>     :  2.0757
    Trans. Mom.:  0.0000 X   0.7529 Y  -0.0000 Z
    Strength   :     0.0933524340
    D(   32) --> V(    2) amplitude =  0.4612 alpha
    D(   33) --> V(    1) amplitude = -0.5647 alpha
    D(   32) --> V(    2) amplitude =  0.2486 beta
    D(   33) --> V(    1) amplitude =  0.5875 beta

 Excited state  36: excitation energy (eV) =    6.8274
 Total energy for state 36:                  -385.68242214 au
    <S**2>     :  2.0935
    Trans. Mom.:  0.0000 X   0.0000 Y   0.0000 Z
    Strength   :     0.0000000000
    S(    1) --> V(    3) amplitude = -0.2456 alpha
    D(   23) --> S(    1) amplitude =  0.9472 beta

 Excited state  37: excitation energy (eV) =    6.8584
 Total energy for state 37:                  -385.68128217 au
    <S**2>     :  3.0988
    Trans. Mom.:  0.0000 X   0.0000 Y  -0.0000 Z
    Strength   :     0.0000000000
    D(   29) --> V(    1) amplitude =  0.3987 alpha
    D(   33) --> V(    5) amplitude =  0.3595 alpha
    S(    2) --> V(   13) amplitude =  0.6352 alpha
    D(   31) --> V(    1) amplitude =  0.4863 beta
    D(   33) --> V(    7) amplitude =  0.1846 beta

 Excited state  38: excitation energy (eV) =    6.8831
 Total energy for state 38:                  -385.68037387 au
    <S**2>     :  2.0481
    Trans. Mom.: -0.0000 X   0.0000 Y  -0.0000 Z
    Strength   :     0.0000000000
    D(   24) --> S(    1) amplitude =  0.2677 beta
    D(   30) --> S(    2) amplitude =  0.9547 beta

 Excited state  39: excitation energy (eV) =    6.9000
 Total energy for state 39:                  -385.67975582 au
    <S**2>     :  2.0460
    Trans. Mom.:  0.0000 X  -0.0000 Y   0.0090 Z
    Strength   :     0.0000135689
    S(    2) --> V(   14) amplitude =  0.9950 alpha

 Excited state  40: excitation energy (eV) =    6.9338
 Total energy for state 40:                  -385.67851079 au
    <S**2>     :  2.0422
    Trans. Mom.: -0.0000 X  -0.0000 Y  -0.0000 Z
    Strength   :     0.0000000000
    S(    1) --> V(    3) amplitude =  0.9583 alpha
    D(   23) --> S(    1) amplitude =  0.2461 beta

 Excited state  41: excitation energy (eV) =    7.1933
 Total energy for state 41:                  -385.66897529 au
    <S**2>     :  2.0731
    Trans. Mom.: -0.0000 X  -0.0000 Y   0.0000 Z
    Strength   :     0.0000000000
    S(    1) --> V(    6) amplitude = -0.1538 alpha
    D(   22) --> S(    1) amplitude =  0.7482 beta
    D(   29) --> S(    2) amplitude = -0.6240 beta

 Excited state  42: excitation energy (eV) =    7.2127
 Total energy for state 42:                  -385.66826273 au
    <S**2>     :  2.2426
    Trans. Mom.:  0.0000 X  -0.0000 Y   0.0000 Z
    Strength   :     0.0000000000
    D(   32) --> V(    1) amplitude =  0.5989 alpha
    S(    1) --> V(    5) amplitude =  0.6652 alpha
    D(   31) --> S(    2) amplitude = -0.1935 beta
    D(   32) --> V(    1) amplitude = -0.1710 beta
    D(   33) --> V(    2) amplitude = -0.3069 beta

 Excited state  43: excitation energy (eV) =    7.2755
 Total energy for state 43:                  -385.66595367 au
    <S**2>     :  2.0636
    Trans. Mom.: -0.0000 X  -0.0000 Y  -0.0000 Z
    Strength   :     0.0000000000
    S(    1) --> V(    4) amplitude =  0.9801 alpha

 Excited state  44: excitation energy (eV) =    7.2764
 Total energy for state 44:                  -385.66592106 au
    <S**2>     :  2.0466
    Trans. Mom.:  0.0000 X  -0.0000 Y  -0.0000 Z
    Strength   :     0.0000000000
    S(    1) --> V(    6) amplitude =  0.7683 alpha
    S(    2) --> V(   15) amplitude = -0.6040 alpha

 Excited state  45: excitation energy (eV) =    7.3571
 Total energy for state 45:                  -385.66295495 au
    <S**2>     :  2.1221
    Trans. Mom.: -0.0000 X   0.0000 Y   0.0000 Z
    Strength   :     0.0000000000
    D(   30) --> V(    1) amplitude =  0.2412 alpha
    S(    1) --> V(    6) amplitude =  0.5946 alpha
    S(    2) --> V(   15) amplitude =  0.7491 alpha

 Excited state  46: excitation energy (eV) =    7.3914
 Total energy for state 46:                  -385.66169718 au
    <S**2>     :  2.0357
    Trans. Mom.: -0.0000 X  -0.0000 Y  -0.0000 Z
    Strength   :     0.0000000000
    S(    2) --> V(   16) amplitude =  0.9898 alpha

 Excited state  47: excitation energy (eV) =    7.4140
 Total energy for state 47:                  -385.66086400 au
    <S**2>     :  3.2560
    Trans. Mom.: -0.0000 X   0.0000 Y  -0.0777 Z
    Strength   :     0.0010957014
    D(   33) --> V(    3) amplitude =  0.9776 beta

 Excited state  48: excitation energy (eV) =    7.4568
 Total energy for state 48:                  -385.65929283 au
    <S**2>     :  3.5144
    Trans. Mom.:  0.0000 X  -0.0000 Y  -0.0000 Z
    Strength   :     0.0000000000
    D(   31) --> V(    1) amplitude =  0.9538 alpha
    D(   29) --> V(    1) amplitude = -0.2577 beta

 Excited state  49: excitation energy (eV) =    7.4720
 Total energy for state 49:                  -385.65873514 au
    <S**2>     :  3.5955
    Trans. Mom.:  0.0000 X  -0.0000 Y  -0.0000 Z
    Strength   :     0.0000000000
    D(   30) --> V(    1) amplitude =  0.8677 alpha
    S(    2) --> V(   15) amplitude = -0.2208 alpha
    D(   30) --> V(    1) amplitude = -0.3734 beta

 Excited state  50: excitation energy (eV) =    7.6161
 Total energy for state 50:                  -385.65343641 au
    <S**2>     :  3.3155
    Trans. Mom.:  0.0000 X   0.0000 Y   0.0667 Z
    Strength   :     0.0008308304
    D(   31) --> V(    2) amplitude =  0.9557 alpha
    D(   28) --> S(    2) amplitude = -0.1738 beta
    D(   29) --> V(    2) amplitude =  0.1735 beta
 
 ---------------------------------------------------
  SETman timing summary (seconds)
  CPU time              2821.89s
  System time              0.00s
  Wall time             2854.23s



            *********SPIN-ORBIT COUPLING JOB USING WIGNER–ECKART THEOREM BEGINS HERE*********

 Calculating one electron integrals:  Completed calculation of one electron integrals!
 Calculating MF integrals:  Completed calculation of MF integrals!
 Calculating S^2 values of the spin-states: S^2 values computed!
 Computing transition densities and evaluating SOCME with Libwe: 

**************************************************
 State A: Root 0
 State B: Root 1


 Analysing Sz ans S^2 of the pair of states...
 Ket state:  Computed S^2 = 2.0242068663 will be treated as 2.0000000000 Sz = 1.0000000000
 Bra state:  Computed S^2 = 2.0815484017 will be treated as 2.0000000000 Sz = 1.0000000000
 Clebsh-Gordan coefficient: <1.000,1.000;1.000,0.000|1.000,1.000> = 0.707

_______________________________
 One-electron SO (cm-1)
 Reduced matrix elements:
 <S|| Hso(L-) ||S'> = (0.000000,0.000000)
 <S|| Hso(L0) ||S'> = (0.000000,-3.297011)
 <S|| Hso(L+) ||S'> = (0.000000,-0.000000)

 SOCC = 3.297011


 Actual matrix elements:
       |Sz=-1.00>           |Sz=0.00>           |Sz=1.00>
 <Sz=-1.00|(-0.000000,2.331339)(0.000000,-0.000000)(0.000000,-0.000000)
 <Sz=0.00|(-0.000000,-0.000000)(-0.000000,-0.000000)(0.000000,-0.000000)
 <Sz=1.00|(0.000000,-0.000000)(-0.000000,-0.000000)(-0.000000,-2.331339)
_______________________________
 Mean-field SO (cm-1)
 Reduced matrix elements:
 <S|| Hso(L-) ||S'> = (0.000000,0.000000)
 <S|| Hso(L0) ||S'> = (0.000000,0.083845)
 <S|| Hso(L+) ||S'> = (0.000000,-0.000000)

 Singlet part of <S|| Hso(L0) ||S'> = (0.000000,0.017128) (excluded from all matrix elements)
 L-/L+ Averaged reduced matrix elements:
 <S|| Hso(L-) ||S'> = (0.000000,0.000000)
 <S|| Hso(L+) ||S'> = (0.000000,-0.000000)

 SOCC = 0.083845


 Actual matrix elements:
       |Sz=-1.00>           |Sz=0.00>           |Sz=1.00>
 <Sz=-1.00|(-0.000000,-0.059287)(0.000000,-0.000000)(0.000000,0.000000)
 <Sz=0.00|(-0.000000,-0.000000)(-0.000000,0.000000)(0.000000,-0.000000)
 <Sz=1.00|(0.000000,0.000000)(-0.000000,-0.000000)(-0.000000,0.059287)
_______________________________

**************************************************

**************************************************
 State A: Root 0
 State B: Root 2


 Analysing Sz ans S^2 of the pair of states...
 Ket state:  Computed S^2 = 2.024207 will be treated as 2.000000 Sz = 1.000000
 Bra state:  Computed S^2 = 2.016134 will be treated as 2.000000 Sz = 1.000000
 Clebsh-Gordan coefficient: <1.000,1.000;1.000,0.000|1.000,1.000> = 0.707

_______________________________
 One-electron SO (cm-1)
 Reduced matrix elements:
 <S|| Hso(L-) ||S'> = (-0.000000,0.000000)
 <S|| Hso(L0) ||S'> = (0.000000,0.000000)
 <S|| Hso(L+) ||S'> = (-0.000000,-0.000000)

 SOCC = 0.000000


 Actual matrix elements:
       |Sz=-1.00>           |Sz=0.00>           |Sz=1.00>
 <Sz=-1.00|(0.000000,-0.000000)(-0.000000,-0.000000)(-0.000000,0.000000)
 <Sz=0.00|(0.000000,-0.000000)(0.000000,0.000000)(-0.000000,-0.000000)
 <Sz=1.00|(-0.000000,0.000000)(0.000000,-0.000000)(0.000000,0.000000)
_______________________________
 Mean-field SO (cm-1)
 Reduced matrix elements:
 <S|| Hso(L-) ||S'> = (-0.000000,0.000000)
 <S|| Hso(L0) ||S'> = (0.000000,0.000000)
 <S|| Hso(L+) ||S'> = (-0.000000,-0.000000)

 Singlet part of <S|| Hso(L0) ||S'> = (-0.000000,-0.000000) (excluded from all matrix elements)
 L-/L+ Averaged reduced matrix elements:
 <S|| Hso(L-) ||S'> = (-0.000000,0.000000)
 <S|| Hso(L+) ||S'> = (-0.000000,-0.000000)

 SOCC = 0.000000


 Actual matrix elements:
       |Sz=-1.00>           |Sz=0.00>           |Sz=1.00>
 <Sz=-1.00|(0.000000,-0.000000)(-0.000000,-0.000000)(-0.000000,0.000000)
 <Sz=0.00|(0.000000,-0.000000)(0.000000,0.000000)(-0.000000,-0.000000)
 <Sz=1.00|(-0.000000,0.000000)(0.000000,-0.000000)(0.000000,0.000000)
_______________________________

**************************************************

**************************************************
 State A: Root 0
 State B: Root 3


 Analysing Sz ans S^2 of the pair of states...
 Ket state:  Computed S^2 = 2.024207 will be treated as 2.000000 Sz = 1.000000
 Bra state:  Computed S^2 = 2.024792 will be treated as 2.000000 Sz = 1.000000
 Clebsh-Gordan coefficient: <1.000,1.000;1.000,0.000|1.000,1.000> = 0.707

_______________________________
 One-electron SO (cm-1)
 Reduced matrix elements:
 <S|| Hso(L-) ||S'> = (0.000000,0.000000)
 <S|| Hso(L0) ||S'> = (0.000000,-0.917846)
 <S|| Hso(L+) ||S'> = (0.000000,-0.000000)

 SOCC = 0.917846


 Actual matrix elements:
       |Sz=-1.00>           |Sz=0.00>           |Sz=1.00>
 <Sz=-1.00|(-0.000000,0.649015)(0.000000,-0.000000)(0.000000,-0.000000)
 <Sz=0.00|(-0.000000,-0.000000)(-0.000000,-0.000000)(0.000000,-0.000000)
 <Sz=1.00|(0.000000,-0.000000)(-0.000000,-0.000000)(-0.000000,-0.649015)
_______________________________
 Mean-field SO (cm-1)
 Reduced matrix elements:
 <S|| Hso(L-) ||S'> = (0.000000,0.000000)
 <S|| Hso(L0) ||S'> = (0.000000,0.170203)
 <S|| Hso(L+) ||S'> = (0.000000,-0.000000)

 Singlet part of <S|| Hso(L0) ||S'> = (0.000000,0.060380) (excluded from all matrix elements)
 L-/L+ Averaged reduced matrix elements:
 <S|| Hso(L-) ||S'> = (0.000000,0.000000)
 <S|| Hso(L+) ||S'> = (0.000000,-0.000000)

 SOCC = 0.170203


 Actual matrix elements:
       |Sz=-1.00>           |Sz=0.00>           |Sz=1.00>
 <Sz=-1.00|(-0.000000,-0.120352)(0.000000,-0.000000)(0.000000,0.000000)
 <Sz=0.00|(-0.000000,-0.000000)(-0.000000,0.000000)(0.000000,-0.000000)
 <Sz=1.00|(0.000000,0.000000)(-0.000000,-0.000000)(-0.000000,0.120352)
_______________________________

**************************************************

**************************************************
 State A: Root 0
 State B: Root 4


 Analysing Sz ans S^2 of the pair of states...
 Ket state:  Computed S^2 = 2.024207 will be treated as 2.000000 Sz = 1.000000
 Bra state:  Computed S^2 = 2.212992 will be treated as 2.000000 Sz = 1.000000
 Clebsh-Gordan coefficient: <1.000,1.000;1.000,0.000|1.000,1.000> = 0.707

_______________________________
 One-electron SO (cm-1)
 Reduced matrix elements:
 <S|| Hso(L-) ||S'> = (-0.000000,-0.000000)
 <S|| Hso(L0) ||S'> = (0.000000,-0.000000)
 <S|| Hso(L+) ||S'> = (-0.000000,0.000000)

 SOCC = 0.000000


 Actual matrix elements:
       |Sz=-1.00>           |Sz=0.00>           |Sz=1.00>
 <Sz=-1.00|(0.000000,0.000000)(-0.000000,0.000000)(-0.000000,0.000000)
 <Sz=0.00|(0.000000,0.000000)(0.000000,-0.000000)(-0.000000,0.000000)
 <Sz=1.00|(-0.000000,-0.000000)(0.000000,0.000000)(0.000000,-0.000000)
_______________________________
 Mean-field SO (cm-1)
 Reduced matrix elements:
 <S|| Hso(L-) ||S'> = (-0.000000,-0.000000)
 <S|| Hso(L0) ||S'> = (0.000000,-0.000000)
 <S|| Hso(L+) ||S'> = (-0.000000,0.000000)

 Singlet part of <S|| Hso(L0) ||S'> = (0.000000,0.000000) (excluded from all matrix elements)
 L-/L+ Averaged reduced matrix elements:
 <S|| Hso(L-) ||S'> = (-0.000000,-0.000000)
 <S|| Hso(L+) ||S'> = (-0.000000,0.000000)

 SOCC = 0.000000


 Actual matrix elements:
       |Sz=-1.00>           |Sz=0.00>           |Sz=1.00>
 <Sz=-1.00|(0.000000,0.000000)(-0.000000,0.000000)(-0.000000,0.000000)
 <Sz=0.00|(0.000000,0.000000)(0.000000,-0.000000)(-0.000000,0.000000)
 <Sz=1.00|(-0.000000,-0.000000)(0.000000,0.000000)(0.000000,-0.000000)
_______________________________

**************************************************

**************************************************
 State A: Root 0
 State B: Root 5


 Analysing Sz ans S^2 of the pair of states...
 Ket state:  Computed S^2 = 2.024207 will be treated as 2.000000 Sz = 1.000000
 Bra state:  Computed S^2 = 2.031772 will be treated as 2.000000 Sz = 1.000000
 Clebsh-Gordan coefficient: <1.000,1.000;1.000,0.000|1.000,1.000> = 0.707

_______________________________
 One-electron SO (cm-1)
 Reduced matrix elements:
 <S|| Hso(L-) ||S'> = (-0.000000,-0.000000)
 <S|| Hso(L0) ||S'> = (0.000000,-0.000000)
 <S|| Hso(L+) ||S'> = (-0.000000,0.000000)

 SOCC = 0.000000


 Actual matrix elements:
       |Sz=-1.00>           |Sz=0.00>           |Sz=1.00>
 <Sz=-1.00|(0.000000,0.000000)(-0.000000,0.000000)(-0.000000,-0.000000)
 <Sz=0.00|(0.000000,0.000000)(0.000000,-0.000000)(-0.000000,0.000000)
 <Sz=1.00|(-0.000000,-0.000000)(0.000000,0.000000)(0.000000,-0.000000)
_______________________________
 Mean-field SO (cm-1)
 Reduced matrix elements:
 <S|| Hso(L-) ||S'> = (-0.000000,-0.000000)
 <S|| Hso(L0) ||S'> = (0.000000,0.000000)
 <S|| Hso(L+) ||S'> = (-0.000000,0.000000)

 Singlet part of <S|| Hso(L0) ||S'> = (0.000000,0.000000) (excluded from all matrix elements)
 L-/L+ Averaged reduced matrix elements:
 <S|| Hso(L-) ||S'> = (-0.000000,-0.000000)
 <S|| Hso(L+) ||S'> = (-0.000000,0.000000)

 SOCC = 0.000000


 Actual matrix elements:
       |Sz=-1.00>           |Sz=0.00>           |Sz=1.00>
 <Sz=-1.00|(0.000000,-0.000000)(-0.000000,0.000000)(-0.000000,0.000000)
 <Sz=0.00|(0.000000,0.000000)(0.000000,0.000000)(-0.000000,0.000000)
 <Sz=1.00|(-0.000000,0.000000)(0.000000,0.000000)(0.000000,0.000000)
_______________________________

**************************************************

**************************************************
 State A: Root 0
 State B: Root 6


 Analysing Sz ans S^2 of the pair of states...
 Ket state:  Computed S^2 = 2.024207 will be treated as 2.000000 Sz = 1.000000
 Bra state:  Computed S^2 = 2.039719 will be treated as 2.000000 Sz = 1.000000
 Clebsh-Gordan coefficient: <1.000,1.000;1.000,0.000|1.000,1.000> = 0.707

_______________________________
 One-electron SO (cm-1)
 Reduced matrix elements:
 <S|| Hso(L-) ||S'> = (0.000000,-0.000000)
 <S|| Hso(L0) ||S'> = (0.000000,0.000000)
 <S|| Hso(L+) ||S'> = (0.000000,0.000000)

 SOCC = 0.000000


 Actual matrix elements:
       |Sz=-1.00>           |Sz=0.00>           |Sz=1.00>
 <Sz=-1.00|(-0.000000,-0.000000)(0.000000,0.000000)(0.000000,0.000000)
 <Sz=0.00|(-0.000000,0.000000)(-0.000000,-0.000000)(0.000000,0.000000)
 <Sz=1.00|(0.000000,-0.000000)(-0.000000,0.000000)(-0.000000,0.000000)
_______________________________
 Mean-field SO (cm-1)
 Reduced matrix elements:
 <S|| Hso(L-) ||S'> = (0.000000,-0.000000)
 <S|| Hso(L0) ||S'> = (0.000000,0.000000)
 <S|| Hso(L+) ||S'> = (0.000000,0.000000)

 Singlet part of <S|| Hso(L0) ||S'> = (0.000000,0.000000) (excluded from all matrix elements)
 L-/L+ Averaged reduced matrix elements:
 <S|| Hso(L-) ||S'> = (0.000000,-0.000000)
 <S|| Hso(L+) ||S'> = (0.000000,0.000000)

 SOCC = 0.000000


 Actual matrix elements:
       |Sz=-1.00>           |Sz=0.00>           |Sz=1.00>
 <Sz=-1.00|(-0.000000,-0.000000)(0.000000,0.000000)(0.000000,0.000000)
 <Sz=0.00|(-0.000000,0.000000)(-0.000000,-0.000000)(0.000000,0.000000)
 <Sz=1.00|(0.000000,-0.000000)(-0.000000,0.000000)(-0.000000,0.000000)
_______________________________

**************************************************

**************************************************
 State A: Root 0
 State B: Root 7


 Analysing Sz ans S^2 of the pair of states...
 Ket state:  Computed S^2 = 2.024207 will be treated as 2.000000 Sz = 1.000000
 Bra state:  Computed S^2 = 2.036811 will be treated as 2.000000 Sz = 1.000000
 Clebsh-Gordan coefficient: <1.000,1.000;1.000,0.000|1.000,1.000> = 0.707

_______________________________
 One-electron SO (cm-1)
 Reduced matrix elements:
 <S|| Hso(L-) ||S'> = (-2.821514,0.000000)
 <S|| Hso(L0) ||S'> = (0.000000,0.000000)
 <S|| Hso(L+) ||S'> = (-2.821514,-0.000000)

 SOCC = 3.990224


 Actual matrix elements:
       |Sz=-1.00>           |Sz=0.00>           |Sz=1.00>
 <Sz=-1.00|(0.000000,-0.000000)(-1.995112,-0.000000)(-0.000000,-0.000000)
 <Sz=0.00|(1.995112,-0.000000)(0.000000,0.000000)(-1.995112,-0.000000)
 <Sz=1.00|(-0.000000,0.000000)(1.995112,-0.000000)(0.000000,0.000000)
_______________________________
 Mean-field SO (cm-1)
 Reduced matrix elements:
 <S|| Hso(L-) ||S'> = (-1.435055,0.000000)
 <S|| Hso(L0) ||S'> = (0.000000,0.000000)
 <S|| Hso(L+) ||S'> = (-1.440489,-0.000000)

 Singlet part of <S|| Hso(L0) ||S'> = (-0.000000,-0.000000) (excluded from all matrix elements)
 L-/L+ Averaged reduced matrix elements:
 <S|| Hso(L-) ||S'> = (-1.437772,0.000000)
 <S|| Hso(L+) ||S'> = (-1.437772,-0.000000)

 SOCC = 2.033317


 Actual matrix elements:
       |Sz=-1.00>           |Sz=0.00>           |Sz=1.00>
 <Sz=-1.00|(0.000000,-0.000000)(-1.016659,-0.000000)(-0.000000,-0.000000)
 <Sz=0.00|(1.016659,-0.000000)(0.000000,0.000000)(-1.016659,-0.000000)
 <Sz=1.00|(-0.000000,0.000000)(1.016659,-0.000000)(0.000000,0.000000)
_______________________________

**************************************************

**************************************************
 State A: Root 0
 State B: Root 8


 Analysing Sz ans S^2 of the pair of states...
 Ket state:  Computed S^2 = 2.024207 will be treated as 2.000000 Sz = 1.000000
 Bra state:  Computed S^2 = 2.036526 will be treated as 2.000000 Sz = 1.000000
 Clebsh-Gordan coefficient: <1.000,1.000;1.000,0.000|1.000,1.000> = 0.707

_______________________________
 One-electron SO (cm-1)
 Reduced matrix elements:
 <S|| Hso(L-) ||S'> = (0.000000,0.000000)
 <S|| Hso(L0) ||S'> = (0.000000,-0.000000)
 <S|| Hso(L+) ||S'> = (0.000000,-0.000000)

 SOCC = 0.000000


 Actual matrix elements:
       |Sz=-1.00>           |Sz=0.00>           |Sz=1.00>
 <Sz=-1.00|(-0.000000,0.000000)(0.000000,-0.000000)(0.000000,-0.000000)
 <Sz=0.00|(-0.000000,-0.000000)(-0.000000,0.000000)(0.000000,-0.000000)
 <Sz=1.00|(0.000000,0.000000)(-0.000000,-0.000000)(-0.000000,-0.000000)
_______________________________
 Mean-field SO (cm-1)
 Reduced matrix elements:
 <S|| Hso(L-) ||S'> = (0.000000,0.000000)
 <S|| Hso(L0) ||S'> = (0.000000,-0.000000)
 <S|| Hso(L+) ||S'> = (0.000000,-0.000000)

 Singlet part of <S|| Hso(L0) ||S'> = (-0.000000,-0.000000) (excluded from all matrix elements)
 L-/L+ Averaged reduced matrix elements:
 <S|| Hso(L-) ||S'> = (0.000000,0.000000)
 <S|| Hso(L+) ||S'> = (0.000000,-0.000000)

 SOCC = 0.000000


 Actual matrix elements:
       |Sz=-1.00>           |Sz=0.00>           |Sz=1.00>
 <Sz=-1.00|(-0.000000,0.000000)(0.000000,-0.000000)(0.000000,-0.000000)
 <Sz=0.00|(-0.000000,-0.000000)(-0.000000,0.000000)(0.000000,-0.000000)
 <Sz=1.00|(0.000000,0.000000)(-0.000000,-0.000000)(-0.000000,-0.000000)
_______________________________

**************************************************

**************************************************
 State A: Root 0
 State B: Root 9


 Analysing Sz ans S^2 of the pair of states...
 Ket state:  Computed S^2 = 2.024207 will be treated as 2.000000 Sz = 1.000000
 Bra state:  Computed S^2 = 2.040954 will be treated as 2.000000 Sz = 1.000000
 Clebsh-Gordan coefficient: <1.000,1.000;1.000,0.000|1.000,1.000> = 0.707

_______________________________
 One-electron SO (cm-1)
 Reduced matrix elements:
 <S|| Hso(L-) ||S'> = (-0.000000,-0.000000)
 <S|| Hso(L0) ||S'> = (0.000000,0.000000)
 <S|| Hso(L+) ||S'> = (-0.000000,0.000000)

 SOCC = 0.000000


 Actual matrix elements:
       |Sz=-1.00>           |Sz=0.00>           |Sz=1.00>
 <Sz=-1.00|(0.000000,-0.000000)(-0.000000,0.000000)(-0.000000,0.000000)
 <Sz=0.00|(0.000000,0.000000)(0.000000,-0.000000)(-0.000000,0.000000)
 <Sz=1.00|(-0.000000,-0.000000)(0.000000,0.000000)(0.000000,0.000000)
_______________________________
 Mean-field SO (cm-1)
 Reduced matrix elements:
 <S|| Hso(L-) ||S'> = (-0.000000,-0.000000)
 <S|| Hso(L0) ||S'> = (0.000000,0.000000)
 <S|| Hso(L+) ||S'> = (-0.000000,0.000000)

 Singlet part of <S|| Hso(L0) ||S'> = (0.000000,0.000000) (excluded from all matrix elements)
 L-/L+ Averaged reduced matrix elements:
 <S|| Hso(L-) ||S'> = (-0.000000,-0.000000)
 <S|| Hso(L+) ||S'> = (-0.000000,0.000000)

 SOCC = 0.000000


 Actual matrix elements:
       |Sz=-1.00>           |Sz=0.00>           |Sz=1.00>
 <Sz=-1.00|(0.000000,-0.000000)(-0.000000,0.000000)(-0.000000,0.000000)
 <Sz=0.00|(0.000000,0.000000)(0.000000,-0.000000)(-0.000000,0.000000)
 <Sz=1.00|(-0.000000,-0.000000)(0.000000,0.000000)(0.000000,0.000000)
_______________________________

**************************************************

**************************************************
 State A: Root 0
 State B: Root 10


 Analysing Sz ans S^2 of the pair of states...
 Ket state:  Computed S^2 = 2.024207 will be treated as 2.000000 Sz = 1.000000
 Bra state:  Computed S^2 = 2.031407 will be treated as 2.000000 Sz = 1.000000
 Clebsh-Gordan coefficient: <1.000,1.000;1.000,0.000|1.000,1.000> = 0.707

_______________________________
 One-electron SO (cm-1)
 Reduced matrix elements:
 <S|| Hso(L-) ||S'> = (0.000000,0.000000)
 <S|| Hso(L0) ||S'> = (0.000000,-0.000000)
 <S|| Hso(L+) ||S'> = (0.000000,-0.000000)

 SOCC = 0.000000


 Actual matrix elements:
       |Sz=-1.00>           |Sz=0.00>           |Sz=1.00>
 <Sz=-1.00|(-0.000000,0.000000)(0.000000,-0.000000)(0.000000,-0.000000)
 <Sz=0.00|(-0.000000,-0.000000)(-0.000000,0.000000)(0.000000,-0.000000)
 <Sz=1.00|(0.000000,0.000000)(-0.000000,-0.000000)(-0.000000,-0.000000)
_______________________________
 Mean-field SO (cm-1)
 Reduced matrix elements:
 <S|| Hso(L-) ||S'> = (0.000000,-0.000000)
 <S|| Hso(L0) ||S'> = (0.000000,-0.000000)
 <S|| Hso(L+) ||S'> = (0.000000,0.000000)

 Singlet part of <S|| Hso(L0) ||S'> = (-0.000000,-0.000000) (excluded from all matrix elements)
 L-/L+ Averaged reduced matrix elements:
 <S|| Hso(L-) ||S'> = (0.000000,-0.000000)
 <S|| Hso(L+) ||S'> = (0.000000,0.000000)

 SOCC = 0.000000


 Actual matrix elements:
       |Sz=-1.00>           |Sz=0.00>           |Sz=1.00>
 <Sz=-1.00|(-0.000000,0.000000)(0.000000,0.000000)(0.000000,0.000000)
 <Sz=0.00|(-0.000000,0.000000)(-0.000000,-0.000000)(0.000000,0.000000)
 <Sz=1.00|(0.000000,-0.000000)(-0.000000,0.000000)(-0.000000,-0.000000)
_______________________________

**************************************************

**************************************************
 State A: Root 0
 State B: Root 11


 Analysing Sz ans S^2 of the pair of states...
 Ket state:  Computed S^2 = 2.024207 will be treated as 2.000000 Sz = 1.000000
 Bra state:  Computed S^2 = 2.021095 will be treated as 2.000000 Sz = 1.000000
 Clebsh-Gordan coefficient: <1.000,1.000;1.000,0.000|1.000,1.000> = 0.707

_______________________________
 One-electron SO (cm-1)
 Reduced matrix elements:
 <S|| Hso(L-) ||S'> = (-0.000000,-0.000000)
 <S|| Hso(L0) ||S'> = (0.000000,-0.863299)
 <S|| Hso(L+) ||S'> = (-0.000000,0.000000)

 SOCC = 0.863299


 Actual matrix elements:
       |Sz=-1.00>           |Sz=0.00>           |Sz=1.00>
 <Sz=-1.00|(0.000000,0.610445)(-0.000000,0.000000)(-0.000000,-0.000000)
 <Sz=0.00|(0.000000,0.000000)(0.000000,-0.000000)(-0.000000,0.000000)
 <Sz=1.00|(-0.000000,-0.000000)(0.000000,0.000000)(0.000000,-0.610445)
_______________________________
 Mean-field SO (cm-1)
 Reduced matrix elements:
 <S|| Hso(L-) ||S'> = (-0.000000,-0.000000)
 <S|| Hso(L0) ||S'> = (0.000000,0.013957)
 <S|| Hso(L+) ||S'> = (-0.000000,0.000000)

 Singlet part of <S|| Hso(L0) ||S'> = (0.000000,0.003711) (excluded from all matrix elements)
 L-/L+ Averaged reduced matrix elements:
 <S|| Hso(L-) ||S'> = (-0.000000,-0.000000)
 <S|| Hso(L+) ||S'> = (-0.000000,0.000000)

 SOCC = 0.013957


 Actual matrix elements:
       |Sz=-1.00>           |Sz=0.00>           |Sz=1.00>
 <Sz=-1.00|(0.000000,-0.009869)(-0.000000,0.000000)(-0.000000,0.000000)
 <Sz=0.00|(0.000000,0.000000)(0.000000,0.000000)(-0.000000,0.000000)
 <Sz=1.00|(-0.000000,0.000000)(0.000000,0.000000)(0.000000,0.009869)
_______________________________

**************************************************

**************************************************
 State A: Root 0
 State B: Root 12


 Analysing Sz ans S^2 of the pair of states...
 Ket state:  Computed S^2 = 2.024207 will be treated as 2.000000 Sz = 1.000000
 Bra state:  Computed S^2 = 2.092228 will be treated as 2.000000 Sz = 1.000000
 Clebsh-Gordan coefficient: <1.000,1.000;1.000,0.000|1.000,1.000> = 0.707

_______________________________
 One-electron SO (cm-1)
 Reduced matrix elements:
 <S|| Hso(L-) ||S'> = (-0.000000,-0.000000)
 <S|| Hso(L0) ||S'> = (0.000000,0.000000)
 <S|| Hso(L+) ||S'> = (-0.000000,0.000000)

 SOCC = 0.000000


 Actual matrix elements:
       |Sz=-1.00>           |Sz=0.00>           |Sz=1.00>
 <Sz=-1.00|(0.000000,-0.000000)(-0.000000,0.000000)(-0.000000,0.000000)
 <Sz=0.00|(0.000000,0.000000)(0.000000,0.000000)(-0.000000,0.000000)
 <Sz=1.00|(-0.000000,0.000000)(0.000000,0.000000)(0.000000,0.000000)
_______________________________
 Mean-field SO (cm-1)
 Reduced matrix elements:
 <S|| Hso(L-) ||S'> = (-0.000000,-0.000000)
 <S|| Hso(L0) ||S'> = (0.000000,-0.000000)
 <S|| Hso(L+) ||S'> = (-0.000000,0.000000)

 Singlet part of <S|| Hso(L0) ||S'> = (-0.000000,-0.000000) (excluded from all matrix elements)
 L-/L+ Averaged reduced matrix elements:
 <S|| Hso(L-) ||S'> = (-0.000000,-0.000000)
 <S|| Hso(L+) ||S'> = (-0.000000,0.000000)

 SOCC = 0.000000


 Actual matrix elements:
       |Sz=-1.00>           |Sz=0.00>           |Sz=1.00>
 <Sz=-1.00|(0.000000,0.000000)(-0.000000,0.000000)(-0.000000,0.000000)
 <Sz=0.00|(0.000000,0.000000)(0.000000,-0.000000)(-0.000000,0.000000)
 <Sz=1.00|(-0.000000,-0.000000)(0.000000,0.000000)(0.000000,-0.000000)
_______________________________

**************************************************

**************************************************
 State A: Root 0
 State B: Root 13


 Analysing Sz ans S^2 of the pair of states...
 Ket state:  Computed S^2 = 2.024207 will be treated as 2.000000 Sz = 1.000000
 Bra state:  Computed S^2 = 2.034925 will be treated as 2.000000 Sz = 1.000000
 Clebsh-Gordan coefficient: <1.000,1.000;1.000,0.000|1.000,1.000> = 0.707

_______________________________
 One-electron SO (cm-1)
 Reduced matrix elements:
 <S|| Hso(L-) ||S'> = (0.000000,0.000000)
 <S|| Hso(L0) ||S'> = (0.000000,-0.000000)
 <S|| Hso(L+) ||S'> = (0.000000,-0.000000)

 SOCC = 0.000000


 Actual matrix elements:
       |Sz=-1.00>           |Sz=0.00>           |Sz=1.00>
 <Sz=-1.00|(-0.000000,0.000000)(0.000000,-0.000000)(0.000000,-0.000000)
 <Sz=0.00|(-0.000000,-0.000000)(-0.000000,-0.000000)(0.000000,-0.000000)
 <Sz=1.00|(0.000000,-0.000000)(-0.000000,-0.000000)(-0.000000,-0.000000)
_______________________________
 Mean-field SO (cm-1)
 Reduced matrix elements:
 <S|| Hso(L-) ||S'> = (0.000000,0.000000)
 <S|| Hso(L0) ||S'> = (0.000000,-0.000000)
 <S|| Hso(L+) ||S'> = (0.000000,-0.000000)

 Singlet part of <S|| Hso(L0) ||S'> = (0.000000,0.000000) (excluded from all matrix elements)
 L-/L+ Averaged reduced matrix elements:
 <S|| Hso(L-) ||S'> = (0.000000,0.000000)
 <S|| Hso(L+) ||S'> = (0.000000,-0.000000)

 SOCC = 0.000000


 Actual matrix elements:
       |Sz=-1.00>           |Sz=0.00>           |Sz=1.00>
 <Sz=-1.00|(-0.000000,0.000000)(0.000000,-0.000000)(0.000000,-0.000000)
 <Sz=0.00|(-0.000000,-0.000000)(-0.000000,-0.000000)(0.000000,-0.000000)
 <Sz=1.00|(0.000000,-0.000000)(-0.000000,-0.000000)(-0.000000,-0.000000)
_______________________________

**************************************************

**************************************************
 State A: Root 0
 State B: Root 14


 Analysing Sz ans S^2 of the pair of states...
 Ket state:  Computed S^2 = 2.024207 will be treated as 2.000000 Sz = 1.000000
 Bra state:  Computed S^2 = 2.037972 will be treated as 2.000000 Sz = 1.000000
 Clebsh-Gordan coefficient: <1.000,1.000;1.000,0.000|1.000,1.000> = 0.707

_______________________________
 One-electron SO (cm-1)
 Reduced matrix elements:
 <S|| Hso(L-) ||S'> = (4.084124,-0.000000)
 <S|| Hso(L0) ||S'> = (0.000000,0.000000)
 <S|| Hso(L+) ||S'> = (4.084124,0.000000)

 SOCC = 5.775823


 Actual matrix elements:
       |Sz=-1.00>           |Sz=0.00>           |Sz=1.00>
 <Sz=-1.00|(-0.000000,-0.000000)(2.887911,0.000000)(0.000000,0.000000)
 <Sz=0.00|(-2.887911,0.000000)(-0.000000,-0.000000)(2.887911,0.000000)
 <Sz=1.00|(0.000000,-0.000000)(-2.887911,0.000000)(-0.000000,0.000000)
_______________________________
 Mean-field SO (cm-1)
 Reduced matrix elements:
 <S|| Hso(L-) ||S'> = (2.212773,-0.000000)
 <S|| Hso(L0) ||S'> = (0.000000,0.000000)
 <S|| Hso(L+) ||S'> = (2.199961,0.000000)

 Singlet part of <S|| Hso(L0) ||S'> = (0.000000,0.000000) (excluded from all matrix elements)
 L-/L+ Averaged reduced matrix elements:
 <S|| Hso(L-) ||S'> = (2.206367,-0.000000)
 <S|| Hso(L+) ||S'> = (2.206367,0.000000)

 SOCC = 3.120274


 Actual matrix elements:
       |Sz=-1.00>           |Sz=0.00>           |Sz=1.00>
 <Sz=-1.00|(-0.000000,-0.000000)(1.560137,0.000000)(0.000000,0.000000)
 <Sz=0.00|(-1.560137,0.000000)(-0.000000,-0.000000)(1.560137,0.000000)
 <Sz=1.00|(0.000000,-0.000000)(-1.560137,0.000000)(-0.000000,0.000000)
_______________________________

**************************************************

**************************************************
 State A: Root 0
 State B: Root 15


 Analysing Sz ans S^2 of the pair of states...
 Ket state:  Computed S^2 = 2.024207 will be treated as 2.000000 Sz = 1.000000
WARNING! The deviation of S^2 from the correct value is large, indicating a significant spin contamination. The results may be unreliable
 Bra state:  Computed S^2 = 3.816323 will be treated as 6.000000 Sz = 1.000000
 Clebsh-Gordan coefficient: <1.000,1.000;1.000,0.000|2.000,1.000> = 0.707

_______________________________
 One-electron SO (cm-1)
 Reduced matrix elements:
 <S|| Hso(L-) ||S'> = (0.000000,-0.000000)
 <S|| Hso(L0) ||S'> = (0.000000,0.000000)
 <S|| Hso(L+) ||S'> = (0.000000,0.000000)

 SOCC = 0.000000


 Actual matrix elements:
       |Sz=-1.00>           |Sz=0.00>           |Sz=1.00>
 <Sz=-2.00|(0.000000,0.000000)(0.000000,0.000000)(0.000000,0.000000)
 <Sz=-1.00|(0.000000,0.000000)(0.000000,0.000000)(0.000000,0.000000)
 <Sz=0.00|(0.000000,-0.000000)(-0.000000,0.000000)(0.000000,0.000000)
 <Sz=1.00|(0.000000,-0.000000)(0.000000,-0.000000)(0.000000,0.000000)
 <Sz=2.00|(0.000000,0.000000)(0.000000,0.000000)(0.000000,-0.000000)
_______________________________
 Mean-field SO (cm-1)
 Reduced matrix elements:
 <S|| Hso(L-) ||S'> = (0.000000,-0.000000)
 <S|| Hso(L0) ||S'> = (0.000000,0.000000)
 <S|| Hso(L+) ||S'> = (0.000000,0.000000)

 Singlet part of <S|| Hso(L0) ||S'> = (0.000000,0.000000) (excluded from all matrix elements)
 L-/L+ Averaged reduced matrix elements:
 <S|| Hso(L-) ||S'> = (0.000000,-0.000000)
 <S|| Hso(L+) ||S'> = (0.000000,0.000000)

 SOCC = 0.000000


 Actual matrix elements:
       |Sz=-1.00>           |Sz=0.00>           |Sz=1.00>
 <Sz=-2.00|(0.000000,0.000000)(0.000000,0.000000)(0.000000,0.000000)
 <Sz=-1.00|(0.000000,0.000000)(0.000000,0.000000)(0.000000,0.000000)
 <Sz=0.00|(0.000000,-0.000000)(-0.000000,0.000000)(0.000000,0.000000)
 <Sz=1.00|(0.000000,-0.000000)(0.000000,-0.000000)(0.000000,0.000000)
 <Sz=2.00|(0.000000,0.000000)(0.000000,0.000000)(0.000000,-0.000000)
_______________________________

**************************************************

**************************************************
 State A: Root 0
 State B: Root 16


 Analysing Sz ans S^2 of the pair of states...
 Ket state:  Computed S^2 = 2.024207 will be treated as 2.000000 Sz = 1.000000
 Bra state:  Computed S^2 = 2.053153 will be treated as 2.000000 Sz = 1.000000
 Clebsh-Gordan coefficient: <1.000,1.000;1.000,0.000|1.000,1.000> = 0.707

_______________________________
 One-electron SO (cm-1)
 Reduced matrix elements:
 <S|| Hso(L-) ||S'> = (-0.000000,-3.117627)
 <S|| Hso(L0) ||S'> = (0.000000,-0.000000)
 <S|| Hso(L+) ||S'> = (-0.000000,3.117627)

 SOCC = 4.408991


 Actual matrix elements:
       |Sz=-1.00>           |Sz=0.00>           |Sz=1.00>
 <Sz=-1.00|(0.000000,0.000000)(-0.000000,2.204495)(-0.000000,0.000000)
 <Sz=0.00|(0.000000,2.204495)(0.000000,-0.000000)(-0.000000,2.204495)
 <Sz=1.00|(-0.000000,-0.000000)(0.000000,2.204495)(0.000000,-0.000000)
_______________________________
 Mean-field SO (cm-1)
 Reduced matrix elements:
 <S|| Hso(L-) ||S'> = (-0.000000,-1.923169)
 <S|| Hso(L0) ||S'> = (0.000000,-0.000000)
 <S|| Hso(L+) ||S'> = (-0.000000,1.863315)

 Singlet part of <S|| Hso(L0) ||S'> = (-0.000000,-0.000000) (excluded from all matrix elements)
 L-/L+ Averaged reduced matrix elements:
 <S|| Hso(L-) ||S'> = (-0.000000,-1.893242)
 <S|| Hso(L+) ||S'> = (-0.000000,1.893242)

 SOCC = 2.677448


 Actual matrix elements:
       |Sz=-1.00>           |Sz=0.00>           |Sz=1.00>
 <Sz=-1.00|(0.000000,0.000000)(-0.000000,1.338724)(-0.000000,0.000000)
 <Sz=0.00|(0.000000,1.338724)(0.000000,-0.000000)(-0.000000,1.338724)
 <Sz=1.00|(-0.000000,-0.000000)(0.000000,1.338724)(0.000000,-0.000000)
_______________________________

**************************************************

**************************************************
 State A: Root 0
 State B: Root 17


 Analysing Sz ans S^2 of the pair of states...
 Ket state:  Computed S^2 = 2.024207 will be treated as 2.000000 Sz = 1.000000
 Bra state:  Computed S^2 = 2.040183 will be treated as 2.000000 Sz = 1.000000
 Clebsh-Gordan coefficient: <1.000,1.000;1.000,0.000|1.000,1.000> = 0.707

_______________________________
 One-electron SO (cm-1)
 Reduced matrix elements:
 <S|| Hso(L-) ||S'> = (-0.000000,5.732115)
 <S|| Hso(L0) ||S'> = (0.000000,-0.000000)
 <S|| Hso(L+) ||S'> = (-0.000000,-5.732115)

 SOCC = 8.106435


 Actual matrix elements:
       |Sz=-1.00>           |Sz=0.00>           |Sz=1.00>
 <Sz=-1.00|(0.000000,-0.000000)(-0.000000,-4.053217)(-0.000000,-0.000000)
 <Sz=0.00|(0.000000,-4.053217)(0.000000,0.000000)(-0.000000,-4.053217)
 <Sz=1.00|(-0.000000,0.000000)(0.000000,-4.053217)(0.000000,0.000000)
_______________________________
 Mean-field SO (cm-1)
 Reduced matrix elements:
 <S|| Hso(L-) ||S'> = (-0.000000,3.041894)
 <S|| Hso(L0) ||S'> = (0.000000,0.000000)
 <S|| Hso(L+) ||S'> = (-0.000000,-3.027670)

 Singlet part of <S|| Hso(L0) ||S'> = (0.000000,0.000000) (excluded from all matrix elements)
 L-/L+ Averaged reduced matrix elements:
 <S|| Hso(L-) ||S'> = (-0.000000,3.034782)
 <S|| Hso(L+) ||S'> = (-0.000000,-3.034782)

 SOCC = 4.291830


 Actual matrix elements:
       |Sz=-1.00>           |Sz=0.00>           |Sz=1.00>
 <Sz=-1.00|(0.000000,-0.000000)(-0.000000,-2.145915)(-0.000000,-0.000000)
 <Sz=0.00|(0.000000,-2.145915)(0.000000,0.000000)(-0.000000,-2.145915)
 <Sz=1.00|(-0.000000,0.000000)(0.000000,-2.145915)(0.000000,0.000000)
_______________________________

**************************************************

**************************************************
 State A: Root 0
 State B: Root 18


 Analysing Sz ans S^2 of the pair of states...
 Ket state:  Computed S^2 = 2.024207 will be treated as 2.000000 Sz = 1.000000
 Bra state:  Computed S^2 = 2.105930 will be treated as 2.000000 Sz = 1.000000
 Clebsh-Gordan coefficient: <1.000,1.000;1.000,0.000|1.000,1.000> = 0.707

_______________________________
 One-electron SO (cm-1)
 Reduced matrix elements:
 <S|| Hso(L-) ||S'> = (0.000000,0.000000)
 <S|| Hso(L0) ||S'> = (0.000000,0.091741)
 <S|| Hso(L+) ||S'> = (0.000000,-0.000000)

 SOCC = 0.091741


 Actual matrix elements:
       |Sz=-1.00>           |Sz=0.00>           |Sz=1.00>
 <Sz=-1.00|(-0.000000,-0.064870)(0.000000,-0.000000)(0.000000,0.000000)
 <Sz=0.00|(-0.000000,-0.000000)(-0.000000,0.000000)(0.000000,-0.000000)
 <Sz=1.00|(0.000000,0.000000)(-0.000000,-0.000000)(-0.000000,0.064870)
_______________________________
 Mean-field SO (cm-1)
 Reduced matrix elements:
 <S|| Hso(L-) ||S'> = (0.000000,0.000000)
 <S|| Hso(L0) ||S'> = (0.000000,0.057216)
 <S|| Hso(L+) ||S'> = (0.000000,-0.000000)

 Singlet part of <S|| Hso(L0) ||S'> = (-0.000000,-0.006551) (excluded from all matrix elements)
 L-/L+ Averaged reduced matrix elements:
 <S|| Hso(L-) ||S'> = (0.000000,0.000000)
 <S|| Hso(L+) ||S'> = (0.000000,-0.000000)

 SOCC = 0.057216


 Actual matrix elements:
       |Sz=-1.00>           |Sz=0.00>           |Sz=1.00>
 <Sz=-1.00|(-0.000000,-0.040458)(0.000000,-0.000000)(0.000000,0.000000)
 <Sz=0.00|(-0.000000,-0.000000)(-0.000000,0.000000)(0.000000,-0.000000)
 <Sz=1.00|(0.000000,0.000000)(-0.000000,-0.000000)(-0.000000,0.040458)
_______________________________

**************************************************

**************************************************
 State A: Root 0
 State B: Root 19


 Analysing Sz ans S^2 of the pair of states...
 Ket state:  Computed S^2 = 2.024207 will be treated as 2.000000 Sz = 1.000000
 Bra state:  Computed S^2 = 2.039996 will be treated as 2.000000 Sz = 1.000000
 Clebsh-Gordan coefficient: <1.000,1.000;1.000,0.000|1.000,1.000> = 0.707

_______________________________
 One-electron SO (cm-1)
 Reduced matrix elements:
 <S|| Hso(L-) ||S'> = (-0.000000,0.000000)
 <S|| Hso(L0) ||S'> = (0.000000,-0.000000)
 <S|| Hso(L+) ||S'> = (-0.000000,-0.000000)

 SOCC = 0.000000


 Actual matrix elements:
       |Sz=-1.00>           |Sz=0.00>           |Sz=1.00>
 <Sz=-1.00|(0.000000,0.000000)(-0.000000,-0.000000)(-0.000000,-0.000000)
 <Sz=0.00|(0.000000,-0.000000)(0.000000,0.000000)(-0.000000,-0.000000)
 <Sz=1.00|(-0.000000,0.000000)(0.000000,-0.000000)(0.000000,-0.000000)
_______________________________
 Mean-field SO (cm-1)
 Reduced matrix elements:
 <S|| Hso(L-) ||S'> = (-0.000000,0.000000)
 <S|| Hso(L0) ||S'> = (0.000000,0.000000)
 <S|| Hso(L+) ||S'> = (-0.000000,-0.000000)

 Singlet part of <S|| Hso(L0) ||S'> = (0.000000,0.000000) (excluded from all matrix elements)
 L-/L+ Averaged reduced matrix elements:
 <S|| Hso(L-) ||S'> = (-0.000000,0.000000)
 <S|| Hso(L+) ||S'> = (-0.000000,-0.000000)

 SOCC = 0.000000


 Actual matrix elements:
       |Sz=-1.00>           |Sz=0.00>           |Sz=1.00>
 <Sz=-1.00|(0.000000,-0.000000)(-0.000000,-0.000000)(-0.000000,-0.000000)
 <Sz=0.00|(0.000000,-0.000000)(0.000000,0.000000)(-0.000000,-0.000000)
 <Sz=1.00|(-0.000000,0.000000)(0.000000,-0.000000)(0.000000,0.000000)
_______________________________

**************************************************

**************************************************
 State A: Root 0
 State B: Root 20


 Analysing Sz ans S^2 of the pair of states...
 Ket state:  Computed S^2 = 2.024207 will be treated as 2.000000 Sz = 1.000000
 Bra state:  Computed S^2 = 2.069765 will be treated as 2.000000 Sz = 1.000000
 Clebsh-Gordan coefficient: <1.000,1.000;1.000,0.000|1.000,1.000> = 0.707

_______________________________
 One-electron SO (cm-1)
 Reduced matrix elements:
 <S|| Hso(L-) ||S'> = (-1.814264,-0.000000)
 <S|| Hso(L0) ||S'> = (0.000000,0.000000)
 <S|| Hso(L+) ||S'> = (-1.814264,0.000000)

 SOCC = 2.565757


 Actual matrix elements:
       |Sz=-1.00>           |Sz=0.00>           |Sz=1.00>
 <Sz=-1.00|(0.000000,-0.000000)(-1.282879,0.000000)(-0.000000,0.000000)
 <Sz=0.00|(1.282879,0.000000)(0.000000,-0.000000)(-1.282879,0.000000)
 <Sz=1.00|(-0.000000,-0.000000)(1.282879,0.000000)(0.000000,0.000000)
_______________________________
 Mean-field SO (cm-1)
 Reduced matrix elements:
 <S|| Hso(L-) ||S'> = (-0.807172,-0.000000)
 <S|| Hso(L0) ||S'> = (0.000000,0.000000)
 <S|| Hso(L+) ||S'> = (-0.775181,0.000000)

 Singlet part of <S|| Hso(L0) ||S'> = (0.000000,0.000000) (excluded from all matrix elements)
 L-/L+ Averaged reduced matrix elements:
 <S|| Hso(L-) ||S'> = (-0.791177,-0.000000)
 <S|| Hso(L+) ||S'> = (-0.791177,0.000000)

 SOCC = 1.118893


 Actual matrix elements:
       |Sz=-1.00>           |Sz=0.00>           |Sz=1.00>
 <Sz=-1.00|(0.000000,-0.000000)(-0.559446,0.000000)(-0.000000,0.000000)
 <Sz=0.00|(0.559446,0.000000)(0.000000,-0.000000)(-0.559446,0.000000)
 <Sz=1.00|(-0.000000,-0.000000)(0.559446,0.000000)(0.000000,0.000000)
_______________________________

**************************************************

**************************************************
 State A: Root 0
 State B: Root 21


 Analysing Sz ans S^2 of the pair of states...
 Ket state:  Computed S^2 = 2.024207 will be treated as 2.000000 Sz = 1.000000
WARNING! The deviation of S^2 from the correct value is large, indicating a significant spin contamination. The results may be unreliable
 Bra state:  Computed S^2 = 3.587200 will be treated as 2.000000 Sz = 1.000000
 Clebsh-Gordan coefficient: <1.000,1.000;1.000,0.000|1.000,1.000> = 0.707

_______________________________
 One-electron SO (cm-1)
 Reduced matrix elements:
 <S|| Hso(L-) ||S'> = (0.000000,0.000000)
 <S|| Hso(L0) ||S'> = (0.000000,-0.000000)
 <S|| Hso(L+) ||S'> = (0.000000,-0.000000)

 SOCC = 0.000000


 Actual matrix elements:
       |Sz=-1.00>           |Sz=0.00>           |Sz=1.00>
 <Sz=-1.00|(-0.000000,0.000000)(0.000000,-0.000000)(0.000000,-0.000000)
 <Sz=0.00|(-0.000000,-0.000000)(-0.000000,-0.000000)(0.000000,-0.000000)
 <Sz=1.00|(0.000000,-0.000000)(-0.000000,-0.000000)(-0.000000,-0.000000)
_______________________________
 Mean-field SO (cm-1)
 Reduced matrix elements:
 <S|| Hso(L-) ||S'> = (0.000000,-0.000000)
 <S|| Hso(L0) ||S'> = (0.000000,-0.000000)
 <S|| Hso(L+) ||S'> = (0.000000,0.000000)

 Singlet part of <S|| Hso(L0) ||S'> = (-0.000000,-0.000000) (excluded from all matrix elements)
 L-/L+ Averaged reduced matrix elements:
 <S|| Hso(L-) ||S'> = (0.000000,-0.000000)
 <S|| Hso(L+) ||S'> = (0.000000,0.000000)

 SOCC = 0.000000


 Actual matrix elements:
       |Sz=-1.00>           |Sz=0.00>           |Sz=1.00>
 <Sz=-1.00|(-0.000000,0.000000)(0.000000,0.000000)(0.000000,-0.000000)
 <Sz=0.00|(-0.000000,0.000000)(-0.000000,-0.000000)(0.000000,0.000000)
 <Sz=1.00|(0.000000,-0.000000)(-0.000000,0.000000)(-0.000000,-0.000000)
_______________________________

**************************************************

**************************************************
 State A: Root 0
 State B: Root 22


 Analysing Sz ans S^2 of the pair of states...
 Ket state:  Computed S^2 = 2.024207 will be treated as 2.000000 Sz = 1.000000
 Bra state:  Computed S^2 = 2.038259 will be treated as 2.000000 Sz = 1.000000
 Clebsh-Gordan coefficient: <1.000,1.000;1.000,0.000|1.000,1.000> = 0.707

_______________________________
 One-electron SO (cm-1)
 Reduced matrix elements:
 <S|| Hso(L-) ||S'> = (0.000000,-0.000000)
 <S|| Hso(L0) ||S'> = (0.000000,-0.000000)
 <S|| Hso(L+) ||S'> = (0.000000,0.000000)

 SOCC = 0.000000


 Actual matrix elements:
       |Sz=-1.00>           |Sz=0.00>           |Sz=1.00>
 <Sz=-1.00|(-0.000000,0.000000)(0.000000,0.000000)(0.000000,0.000000)
 <Sz=0.00|(-0.000000,0.000000)(-0.000000,-0.000000)(0.000000,0.000000)
 <Sz=1.00|(0.000000,-0.000000)(-0.000000,0.000000)(-0.000000,-0.000000)
_______________________________
 Mean-field SO (cm-1)
 Reduced matrix elements:
 <S|| Hso(L-) ||S'> = (0.000000,-0.000000)
 <S|| Hso(L0) ||S'> = (0.000000,0.000000)
 <S|| Hso(L+) ||S'> = (0.000000,0.000000)

 Singlet part of <S|| Hso(L0) ||S'> = (-0.000000,-0.000000) (excluded from all matrix elements)
 L-/L+ Averaged reduced matrix elements:
 <S|| Hso(L-) ||S'> = (0.000000,-0.000000)
 <S|| Hso(L+) ||S'> = (0.000000,0.000000)

 SOCC = 0.000000


 Actual matrix elements:
       |Sz=-1.00>           |Sz=0.00>           |Sz=1.00>
 <Sz=-1.00|(-0.000000,-0.000000)(0.000000,0.000000)(0.000000,0.000000)
 <Sz=0.00|(-0.000000,0.000000)(-0.000000,-0.000000)(0.000000,0.000000)
 <Sz=1.00|(0.000000,-0.000000)(-0.000000,0.000000)(-0.000000,0.000000)
_______________________________

**************************************************

**************************************************
 State A: Root 0
 State B: Root 23


 Analysing Sz ans S^2 of the pair of states...
 Ket state:  Computed S^2 = 2.024207 will be treated as 2.000000 Sz = 1.000000
 Bra state:  Computed S^2 = 2.099132 will be treated as 2.000000 Sz = 1.000000
 Clebsh-Gordan coefficient: <1.000,1.000;1.000,0.000|1.000,1.000> = 0.707

_______________________________
 One-electron SO (cm-1)
 Reduced matrix elements:
 <S|| Hso(L-) ||S'> = (-0.000000,0.000000)
 <S|| Hso(L0) ||S'> = (0.000000,-0.795430)
 <S|| Hso(L+) ||S'> = (-0.000000,-0.000000)

 SOCC = 0.795430


 Actual matrix elements:
       |Sz=-1.00>           |Sz=0.00>           |Sz=1.00>
 <Sz=-1.00|(0.000000,0.562454)(-0.000000,-0.000000)(-0.000000,-0.000000)
 <Sz=0.00|(0.000000,-0.000000)(0.000000,-0.000000)(-0.000000,-0.000000)
 <Sz=1.00|(-0.000000,-0.000000)(0.000000,-0.000000)(0.000000,-0.562454)
_______________________________
 Mean-field SO (cm-1)
 Reduced matrix elements:
 <S|| Hso(L-) ||S'> = (-0.000000,0.000000)
 <S|| Hso(L0) ||S'> = (0.000000,0.177911)
 <S|| Hso(L+) ||S'> = (-0.000000,-0.000000)

 Singlet part of <S|| Hso(L0) ||S'> = (-0.000000,-0.016931) (excluded from all matrix elements)
 L-/L+ Averaged reduced matrix elements:
 <S|| Hso(L-) ||S'> = (-0.000000,0.000000)
 <S|| Hso(L+) ||S'> = (-0.000000,-0.000000)

 SOCC = 0.177911


 Actual matrix elements:
       |Sz=-1.00>           |Sz=0.00>           |Sz=1.00>
 <Sz=-1.00|(0.000000,-0.125802)(-0.000000,-0.000000)(-0.000000,0.000000)
 <Sz=0.00|(0.000000,-0.000000)(0.000000,0.000000)(-0.000000,-0.000000)
 <Sz=1.00|(-0.000000,0.000000)(0.000000,-0.000000)(0.000000,0.125802)
_______________________________

**************************************************

**************************************************
 State A: Root 0
 State B: Root 24


 Analysing Sz ans S^2 of the pair of states...
 Ket state:  Computed S^2 = 2.024207 will be treated as 2.000000 Sz = 1.000000
 Bra state:  Computed S^2 = 2.033946 will be treated as 2.000000 Sz = 1.000000
 Clebsh-Gordan coefficient: <1.000,1.000;1.000,0.000|1.000,1.000> = 0.707

_______________________________
 One-electron SO (cm-1)
 Reduced matrix elements:
 <S|| Hso(L-) ||S'> = (0.354876,0.000000)
 <S|| Hso(L0) ||S'> = (0.000000,0.000000)
 <S|| Hso(L+) ||S'> = (0.354876,-0.000000)

 SOCC = 0.501870


 Actual matrix elements:
       |Sz=-1.00>           |Sz=0.00>           |Sz=1.00>
 <Sz=-1.00|(-0.000000,-0.000000)(0.250935,-0.000000)(0.000000,-0.000000)
 <Sz=0.00|(-0.250935,-0.000000)(-0.000000,0.000000)(0.250935,-0.000000)
 <Sz=1.00|(0.000000,0.000000)(-0.250935,-0.000000)(-0.000000,0.000000)
_______________________________
 Mean-field SO (cm-1)
 Reduced matrix elements:
 <S|| Hso(L-) ||S'> = (0.112813,0.000000)
 <S|| Hso(L0) ||S'> = (0.000000,-0.000000)
 <S|| Hso(L+) ||S'> = (0.114214,-0.000000)

 Singlet part of <S|| Hso(L0) ||S'> = (0.000000,0.000000) (excluded from all matrix elements)
 L-/L+ Averaged reduced matrix elements:
 <S|| Hso(L-) ||S'> = (0.113514,0.000000)
 <S|| Hso(L+) ||S'> = (0.113514,-0.000000)

 SOCC = 0.160533


 Actual matrix elements:
       |Sz=-1.00>           |Sz=0.00>           |Sz=1.00>
 <Sz=-1.00|(-0.000000,0.000000)(0.080266,-0.000000)(0.000000,-0.000000)
 <Sz=0.00|(-0.080266,-0.000000)(-0.000000,0.000000)(0.080266,-0.000000)
 <Sz=1.00|(0.000000,0.000000)(-0.080266,-0.000000)(-0.000000,-0.000000)
_______________________________

**************************************************

**************************************************
 State A: Root 0
 State B: Root 25


 Analysing Sz ans S^2 of the pair of states...
 Ket state:  Computed S^2 = 2.024207 will be treated as 2.000000 Sz = 1.000000
 Bra state:  Computed S^2 = 2.025295 will be treated as 2.000000 Sz = 1.000000
 Clebsh-Gordan coefficient: <1.000,1.000;1.000,0.000|1.000,1.000> = 0.707

_______________________________
 One-electron SO (cm-1)
 Reduced matrix elements:
 <S|| Hso(L-) ||S'> = (0.000000,-0.000000)
 <S|| Hso(L0) ||S'> = (0.000000,-0.000000)
 <S|| Hso(L+) ||S'> = (0.000000,0.000000)

 SOCC = 0.000000


 Actual matrix elements:
       |Sz=-1.00>           |Sz=0.00>           |Sz=1.00>
 <Sz=-1.00|(-0.000000,0.000000)(0.000000,0.000000)(0.000000,-0.000000)
 <Sz=0.00|(-0.000000,0.000000)(-0.000000,-0.000000)(0.000000,0.000000)
 <Sz=1.00|(0.000000,-0.000000)(-0.000000,0.000000)(-0.000000,-0.000000)
_______________________________
 Mean-field SO (cm-1)
 Reduced matrix elements:
 <S|| Hso(L-) ||S'> = (0.000000,-0.000000)
 <S|| Hso(L0) ||S'> = (0.000000,-0.000000)
 <S|| Hso(L+) ||S'> = (0.000000,0.000000)

 Singlet part of <S|| Hso(L0) ||S'> = (-0.000000,-0.000000) (excluded from all matrix elements)
 L-/L+ Averaged reduced matrix elements:
 <S|| Hso(L-) ||S'> = (0.000000,-0.000000)
 <S|| Hso(L+) ||S'> = (0.000000,0.000000)

 SOCC = 0.000000


 Actual matrix elements:
       |Sz=-1.00>           |Sz=0.00>           |Sz=1.00>
 <Sz=-1.00|(-0.000000,0.000000)(0.000000,0.000000)(0.000000,-0.000000)
 <Sz=0.00|(-0.000000,0.000000)(-0.000000,-0.000000)(0.000000,0.000000)
 <Sz=1.00|(0.000000,-0.000000)(-0.000000,0.000000)(-0.000000,-0.000000)
_______________________________

**************************************************

**************************************************
 State A: Root 0
 State B: Root 26


 Analysing Sz ans S^2 of the pair of states...
 Ket state:  Computed S^2 = 2.024207 will be treated as 2.000000 Sz = 1.000000
 Bra state:  Computed S^2 = 2.048296 will be treated as 2.000000 Sz = 1.000000
 Clebsh-Gordan coefficient: <1.000,1.000;1.000,0.000|1.000,1.000> = 0.707

_______________________________
 One-electron SO (cm-1)
 Reduced matrix elements:
 <S|| Hso(L-) ||S'> = (-0.000000,0.000000)
 <S|| Hso(L0) ||S'> = (0.000000,0.000000)
 <S|| Hso(L+) ||S'> = (-0.000000,-0.000000)

 SOCC = 0.000000


 Actual matrix elements:
       |Sz=-1.00>           |Sz=0.00>           |Sz=1.00>
 <Sz=-1.00|(0.000000,-0.000000)(-0.000000,-0.000000)(-0.000000,-0.000000)
 <Sz=0.00|(0.000000,-0.000000)(0.000000,0.000000)(-0.000000,-0.000000)
 <Sz=1.00|(-0.000000,0.000000)(0.000000,-0.000000)(0.000000,0.000000)
_______________________________
 Mean-field SO (cm-1)
 Reduced matrix elements:
 <S|| Hso(L-) ||S'> = (-0.000000,0.000000)
 <S|| Hso(L0) ||S'> = (0.000000,0.000000)
 <S|| Hso(L+) ||S'> = (-0.000000,-0.000000)

 Singlet part of <S|| Hso(L0) ||S'> = (0.000000,0.000000) (excluded from all matrix elements)
 L-/L+ Averaged reduced matrix elements:
 <S|| Hso(L-) ||S'> = (-0.000000,0.000000)
 <S|| Hso(L+) ||S'> = (-0.000000,-0.000000)

 SOCC = 0.000000


 Actual matrix elements:
       |Sz=-1.00>           |Sz=0.00>           |Sz=1.00>
 <Sz=-1.00|(0.000000,-0.000000)(-0.000000,-0.000000)(-0.000000,-0.000000)
 <Sz=0.00|(0.000000,-0.000000)(0.000000,0.000000)(-0.000000,-0.000000)
 <Sz=1.00|(-0.000000,0.000000)(0.000000,-0.000000)(0.000000,0.000000)
_______________________________

**************************************************

**************************************************
 State A: Root 0
 State B: Root 27


 Analysing Sz ans S^2 of the pair of states...
 Ket state:  Computed S^2 = 2.024207 will be treated as 2.000000 Sz = 1.000000
WARNING! The deviation of S^2 from the correct value is large, indicating a significant spin contamination. The results may be unreliable
 Bra state:  Computed S^2 = 3.605702 will be treated as 2.000000 Sz = 1.000000
 Clebsh-Gordan coefficient: <1.000,1.000;1.000,0.000|1.000,1.000> = 0.707

_______________________________
 One-electron SO (cm-1)
 Reduced matrix elements:
 <S|| Hso(L-) ||S'> = (-0.000000,0.000000)
 <S|| Hso(L0) ||S'> = (0.000000,-0.000000)
 <S|| Hso(L+) ||S'> = (-0.000000,-0.000000)

 SOCC = 0.000000


 Actual matrix elements:
       |Sz=-1.00>           |Sz=0.00>           |Sz=1.00>
 <Sz=-1.00|(0.000000,0.000000)(-0.000000,-0.000000)(-0.000000,-0.000000)
 <Sz=0.00|(0.000000,-0.000000)(0.000000,-0.000000)(-0.000000,-0.000000)
 <Sz=1.00|(-0.000000,-0.000000)(0.000000,-0.000000)(0.000000,-0.000000)
_______________________________
 Mean-field SO (cm-1)
 Reduced matrix elements:
 <S|| Hso(L-) ||S'> = (-0.000000,0.000000)
 <S|| Hso(L0) ||S'> = (0.000000,-0.000000)
 <S|| Hso(L+) ||S'> = (-0.000000,-0.000000)

 Singlet part of <S|| Hso(L0) ||S'> = (0.000000,0.000000) (excluded from all matrix elements)
 L-/L+ Averaged reduced matrix elements:
 <S|| Hso(L-) ||S'> = (-0.000000,0.000000)
 <S|| Hso(L+) ||S'> = (-0.000000,-0.000000)

 SOCC = 0.000000


 Actual matrix elements:
       |Sz=-1.00>           |Sz=0.00>           |Sz=1.00>
 <Sz=-1.00|(0.000000,0.000000)(-0.000000,-0.000000)(-0.000000,-0.000000)
 <Sz=0.00|(0.000000,-0.000000)(0.000000,-0.000000)(-0.000000,-0.000000)
 <Sz=1.00|(-0.000000,-0.000000)(0.000000,-0.000000)(0.000000,-0.000000)
_______________________________

**************************************************

**************************************************
 State A: Root 0
 State B: Root 28


 Analysing Sz ans S^2 of the pair of states...
 Ket state:  Computed S^2 = 2.024207 will be treated as 2.000000 Sz = 1.000000
 Bra state:  Computed S^2 = 2.037329 will be treated as 2.000000 Sz = 1.000000
 Clebsh-Gordan coefficient: <1.000,1.000;1.000,0.000|1.000,1.000> = 0.707

_______________________________
 One-electron SO (cm-1)
 Reduced matrix elements:
[...]
   39   48   0.000000  -0.000000   0.000000   1.482709E-12
   39   49   0.000000   0.000000   0.000000    1.11422E-11
   39   50  -0.000000  -0.000000   0.000000   6.418824E-13
   40   41   0.000000   0.000000   0.000000   1.068923E-12
   40   42   0.000000   0.000000   0.000000   4.986358E-13
   40   43  -0.000000   0.000000   0.000000   9.374808E-13
   40   44   0.000000   0.000000  -0.000000   1.988639E-12
   40   45  -0.000000   0.000000   0.000000   7.152188E-13
   40   46   0.000000   0.000000  -0.000000   4.771295E-12
   40   47   0.000000  -0.000000  -0.138727       0.138727
   40   48   0.000000   0.000000   0.000000   5.869477E-13
   40   49   0.000000   0.000000  -0.000000   1.365131E-12
   40   50   0.000000   0.000000  -0.026849     0.02684874
   41   42   0.000000  -0.013767  -0.000000     0.01376667
   41   43   0.000000  -0.000000   0.136129      0.1361289
   41   44  -0.000000  -0.000000  -0.000000   2.500563E-10
   41   45  -0.000000   0.000000  -0.000000   5.070389E-12
   41   46  -0.000000  -0.000000   0.000000   4.063417E-12
   41   47  -0.000000  -0.000000   0.000000   1.001214E-13
   41   48   0.000000  -0.000000   0.159336      0.1593357
   41   49   0.000000   0.000000   0.000000   2.475449E-12
   41   50   0.000000  -0.000000  -0.000000    4.23879E-13
   42   43   0.033366   0.000000   0.000000     0.03336606
   42   44  -0.000000   0.000031  -0.000000   3.136479E-05
   42   45  -0.000000   0.019308  -0.000000     0.01930759
   42   46   0.000000   0.000000  -0.000000   2.686768E-12
   42   47   0.000000  -0.000000  -0.000000   2.521657E-13
   42   48   0.024795  -0.000000  -0.000000     0.02479519
   42   49   0.000000   0.052494  -0.000000     0.05249421
   42   50   0.000000  -0.000000   0.000000   3.664625E-14
   43   44  -0.000000   0.000000   0.726630      0.7266304
   43   45  -0.000000   0.000000   0.740214      0.7402144
   43   46  -0.000000  -0.000000   0.000000   5.062617E-11
   43   47   0.000000  -0.000000   0.000000   4.665895E-14
   43   48   0.000000   0.000000   0.000000   2.498642E-10
   43   49   0.000000   0.000000  -0.051148     0.05114827
   43   50  -0.000000   0.000000   0.000000   4.787422E-13
   44   45  -0.000000   0.000000  -0.000000   1.329456E-09
   44   46  -0.000000  -0.000000   0.000000   1.445956E-11
   44   47   0.000000  -0.000000  -0.000000   5.689951E-14
   44   48   0.000000  -0.000000   0.138121      0.1381206
   44   49  -0.000000   0.000000   0.000000   9.240986E-11
   44   50   0.000000  -0.000000  -0.000000   9.353282E-13
   45   46   0.000000   0.000000  -0.000000   3.813839E-11
   45   47  -0.000000  -0.000000  -0.000000   5.412398E-14
   45   48   0.000000  -0.000000  -0.227098      0.2270985
   45   49   0.000000   0.000000  -0.000000   2.936097E-12
   45   50   0.000000   0.000000   0.000000   3.702073E-12
   46   47  -0.000000   0.000000  -0.006851    0.006851317
   46   48   0.000000   0.000000  -0.000000   3.829143E-11
   46   49   0.000000   0.000000  -0.000000   6.716407E-12
   46   50   0.000000   0.000000  -0.042231      0.0422309
   47   48  -0.000000   0.000000  -0.000000   1.166095E-13
   47   49  -0.000000   0.000000  -0.000000   7.216105E-13
   47   50  -0.000000   0.000000   0.000000   6.785055E-13
   48   49   0.000000   0.000000   1.138071       1.138071
   48   50  -0.000000   0.000000   0.000000   1.399372E-14
   49   50  -0.000000   0.000000   0.000000   4.595109E-13
 --------------------------------------------------------------------------------

                    END OF TRANSITION MOMENT CALCULATION

 
 --------------------------------------------------------------
             Orbital Energies (a.u.) and Symmetries
 --------------------------------------------------------------
 
 Alpha MOs, Unrestricted
 -- Occupied --                  
-10.189 -10.188 -10.187 -10.187 -10.186 -10.186 -10.181 -10.181
  1 Ag    1 B2u   1 B1g   1 B3u   2 B2u   2 Ag    2 B3u   3 Ag                 
-10.181 -10.181  -0.878  -0.826  -0.779  -0.753  -0.718  -0.645
  3 B2u   2 B1g   4 Ag    3 B3u   4 B2u   5 Ag    3 B1g   4 B3u                
 -0.611  -0.603  -0.520  -0.519  -0.498  -0.455  -0.450  -0.424
  5 B2u   6 Ag    4 B1g   5 B3u   7 Ag    6 B2u   8 Ag    6 B3u                
 -0.420  -0.405  -0.398  -0.386  -0.347  -0.342  -0.341  -0.308
  5 B1g   1 B1u   7 B2u   7 B3u   1 B2g   6 B1g   9 Ag    1 B3g                
 -0.267  -0.239  -0.127
  2 B1u   1 Au    2 B2g                                                        
 -- Virtual --                   
 -0.019  -0.010   0.048   0.059   0.061   0.063   0.087   0.092
  2 B3g   3 B1u  10 Ag    8 B3u   2 Au    8 B2u  11 Ag    7 B1g                
  0.101   0.115   0.129   0.143   0.151   0.164   0.178   0.181
  9 B2u   9 B3u  12 Ag    8 B1g   3 B3g  10 B3u  13 Ag   10 B2u                
  0.191   0.196   0.219   0.223   0.224   0.234   0.247   0.252
  4 B1u  11 B2u  11 B3u   3 B2g  14 Ag    4 B3g  15 Ag    9 B1g                
  0.257   0.267   0.269   0.279   0.294   0.295   0.309   0.323
 12 B2u   5 B1u  10 B1g   3 Au   12 B3u  16 Ag   13 B3u   6 B1u                
  0.338   0.342   0.342   0.345   0.356   0.362   0.381   0.393
  4 B2g   5 B3g  14 B3u  17 Ag   13 B2u  14 B2u  11 B1g  15 B2u                
  0.405   0.408   0.413   0.415   0.426   0.439   0.464   0.465
  4 Au   15 B3u  12 B1g  18 Ag   19 Ag   16 B2u  13 B1g   5 B2g                
  0.465   0.474   0.478   0.489   0.489   0.502   0.513   0.518
  6 B3g  16 B3u  17 B2u  20 Ag   14 B1g  17 B3u  18 B2u  15 B1g                
  0.539   0.559   0.578   0.606   0.633   0.658   0.667   0.667
  7 B1u  18 B3u  21 Ag   16 B1g  19 B2u  20 B2u   8 B1u  22 Ag                 
  0.675   0.684   0.704   0.704   0.705   0.707   0.726   0.735
 21 B2u  17 B1g  19 B3u  18 B1g  22 B2u   6 B2g   7 B3g   5 Au                 
  0.749   0.759   0.794   0.823   0.824   0.828   0.856   0.857
 20 B3u  23 Ag    7 B2g  24 Ag   19 B1g  21 B3u   6 Au   25 Ag                 
  0.863   0.870   0.871   0.905   0.929   0.944   0.961   0.976
 20 B1g   9 B1u  23 B2u  26 Ag   22 B3u  23 B3u  10 B1u  24 B2u                
  0.983   0.993   1.055   1.071   1.079   1.096   1.111   1.131
  8 B3g  27 Ag   25 B2u  21 B1g   9 B3g  28 Ag    7 Au    8 B2g                
  1.171   1.184   1.185   1.200   1.213   1.219   1.230   1.231
 22 B1g   9 B2g  24 B3u  25 B3u  29 Ag   26 B2u  10 B3g  11 B1u                
  1.234   1.247   1.252   1.257   1.319   1.324   1.358   1.374
 23 B1g  27 B2u  30 Ag   26 B3u   8 Au   28 B2u  24 B1g  12 B1u                
  1.393   1.395   1.403   1.437   1.437   1.473   1.491   1.495
 29 B2u  31 Ag   25 B1g  27 B3u  10 B2g  11 B3g  32 Ag    9 Au                 
  1.508   1.513   1.516   1.517   1.560   1.570   1.578   1.631
 30 B2u  28 B3u  26 B1g  13 B1u  27 B1g  33 Ag   10 Au   29 B3u                
  1.641   1.642   1.652   1.658   1.661   1.677   1.679   1.694
 11 B2g  31 B2u  14 B1u  12 B3g  34 Ag   32 B2u  13 B3g  28 B1g                
  1.697   1.739   1.746   1.811   1.829   1.846   1.852   1.914
 33 B2u  30 B3u  12 B2g  11 Au   35 Ag   15 B1u  14 B3g  12 Au                 
  1.954   1.965   1.971   1.985   1.993   1.995   2.036   2.086
 31 B3u  16 B1u  34 B2u  36 Ag   15 B3g  29 B1g  13 B2g  37 Ag                 
  2.115   2.124   2.132   2.132   2.133   2.147   2.212   2.216
 32 B3u  38 Ag   30 B1g  33 B3u  35 B2u  31 B1g  32 B1g  34 B3u                
  2.239   2.244   2.270   2.281   2.303   2.370   2.408   2.417
 39 Ag   36 B2u  16 B3g  35 B3u  17 B1u  13 Au   40 Ag   37 B2u                
  2.426   2.452   2.467   2.517   2.542   2.545   2.552   2.580
 41 Ag   14 B2g  36 B3u  33 B1g  15 B2g  38 B2u  37 B3u  42 Ag                 
  2.594   2.599   2.612   2.620   2.629   2.645   2.652   2.686
 38 B3u  34 B1g  39 B2u  18 B1u  43 Ag   35 B1g  17 B3g  14 Au                 
  2.692   2.701   2.710   2.736   2.751   2.751   2.783   2.788
 16 B2g  44 Ag   40 B2u  19 B1u  39 B3u  41 B2u  18 B3g  20 B1u                
  2.791   2.793   2.802   2.806   2.819   2.853   2.873   2.877
 45 Ag   36 B1g  40 B3u  17 B2g  42 B2u  37 B1g  43 B2u  46 Ag                 
  2.880   2.880   2.882   2.906   2.938   2.963   2.982   2.986
 21 B1u  41 B3u  15 Au   16 Au   38 B1g  18 B2g  44 B2u  39 B1g                
  2.991   2.992   2.994   3.032   3.070   3.081   3.086   3.110
 47 Ag   22 B1u  19 B3g  23 B1u  42 B3u  19 B2g  48 Ag   43 B3u                
  3.140   3.140   3.172   3.176   3.177   3.178   3.179   3.201
 20 B3g  40 B1g  45 B2u  20 B2g  49 Ag   21 B3g  17 Au   24 B1u                
  3.217   3.223   3.224   3.242   3.243   3.279   3.304   3.305
 46 B2u  50 Ag   44 B3u  18 Au   41 B1g  45 B3u  25 B1u  21 B2g                
  3.313   3.330   3.345   3.348   3.349   3.350   3.402   3.406
 47 B2u  51 Ag   46 B3u  22 B3g  42 B1g  52 Ag   19 Au   43 B1g                
  3.441   3.462   3.462   3.472   3.473   3.492   3.506   3.506
 48 B2u  20 Au   22 B2g  47 B3u  23 B3g  49 B2u  23 B2g  26 B1u                
  3.534   3.563   3.575   3.614   3.630   3.641   3.676   3.698
 24 B3g  44 B1g  50 B2u  48 B3u  45 B1g  53 Ag   51 B2u  21 Au                 
  3.701   3.753   3.801   3.813   3.816   3.826   3.901   3.906
 54 Ag   27 B1u  52 B2u  49 B3u  46 B1g  22 Au   25 B3g  55 Ag                 
  3.918   3.935   3.972   3.990   4.033   4.040   4.041   4.089
 53 B2u  50 B3u  47 B1g  56 Ag   48 B1g  24 B2g  51 B3u  49 B1g                
  4.109   4.126   4.140   4.153   4.161   4.177   4.195   4.237
 26 B3g  57 Ag   28 B1u  54 B2u  55 B2u  50 B1g  58 Ag   29 B1u                
  4.252   4.253   4.282   4.297   4.354   4.369   4.370   4.411
 23 Au   25 B2g  27 B3g  52 B3u  53 B3u  59 Ag   24 Au   51 B1g                
  4.494   4.533   4.606   4.670   4.689   4.724   4.727   4.731
 56 B2u  28 B3g  54 B3u  57 B2u  60 Ag   55 B3u  29 B3g  25 Au                 
  4.753   4.761   4.843   4.917   5.009   5.024   5.024   5.062
 58 B2u  61 Ag   52 B1g  56 B3u  59 B2u  53 B1g  62 Ag   60 B2u                
  5.145   5.260   5.280   5.322   5.338   5.575   5.579   5.671
 63 Ag   54 B1g  61 B2u  55 B1g  57 B3u  56 B1g  62 B2u  63 B2u                
  5.898  21.858  22.367  22.466  22.557  22.650  22.743  22.795
 57 B1g  64 Ag   58 B3u  65 Ag   59 B3u  58 B1g  64 B2u  66 Ag                 
 22.845  22.869  23.523
 59 B1g  65 B2u  66 B2u                                                        
 
 Beta MOs, Unrestricted
 -- Occupied --                  
-10.191 -10.190 -10.180 -10.180 -10.180 -10.180 -10.179 -10.179
  1 Ag    1 B2u   1 B3u   2 Ag    1 B1g   2 B2u   2 B3u   3 Ag                 
-10.179 -10.179  -0.870  -0.815  -0.765  -0.749  -0.700  -0.632
  2 B1g   3 B2u   4 Ag    3 B3u   4 B2u   5 Ag    3 B1g   4 B3u                
 -0.607  -0.595  -0.514  -0.513  -0.495  -0.451  -0.448  -0.421
  5 B2u   6 Ag    5 B3u   4 B1g   7 Ag    6 B2u   8 Ag    6 B3u                
 -0.415  -0.393  -0.384  -0.382  -0.339  -0.338  -0.315  -0.265
  5 B1g   7 B2u   1 B1u   7 B3u   9 Ag    6 B1g   1 B2g   1 B3g                
 -0.256
  2 B1u                                                                        
 -- Virtual --                   
 -0.150  -0.040  -0.009   0.023   0.049   0.060   0.064   0.089
  1 Au    2 B2g   2 B3g   3 B1u  10 Ag    8 B3u   8 B2u  11 Ag                 
  0.093   0.094   0.103   0.119   0.131   0.145   0.158   0.168
  2 Au    7 B1g   9 B2u   9 B3u  12 Ag    8 B1g   3 B3g  10 B3u                
  0.180   0.183   0.198   0.202   0.221   0.228   0.229   0.250
 13 Ag   10 B2u  11 B2u   4 B1u  11 B3u  14 Ag    3 B2g  15 Ag                 
  0.257   0.258   0.260   0.273   0.276   0.289   0.296   0.297
  9 B1g   4 B3g  12 B2u  10 B1g   5 B1u   3 Au   16 Ag   12 B3u                
  0.317   0.327   0.349   0.350   0.352   0.355   0.359   0.370
 13 B3u   6 B1u  17 Ag   14 B3u   5 B3g   4 B2g  13 B2u  14 B2u                
  0.390   0.395   0.411   0.417   0.417   0.420   0.430   0.440
 11 B1g  15 B2u  15 B3u   4 Au   12 B1g  18 Ag   19 Ag   16 B2u                
  0.463   0.467   0.476   0.480   0.481   0.492   0.492   0.506
  6 B3g  13 B1g   5 B2g  16 B3u  17 B2u  20 Ag   14 B1g  17 B3u                
  0.516   0.523   0.547   0.561   0.579   0.610   0.637   0.659
 18 B2u  15 B1g   7 B1u  18 B3u  21 Ag   16 B1g  19 B2u  20 B2u                
  0.669   0.674   0.678   0.692   0.706   0.709   0.710   0.722
 22 Ag    8 B1u  21 B2u  17 B1g  19 B3u  22 B2u  18 B1g   6 B2g                
  0.739   0.752   0.753   0.761   0.801   0.829   0.830   0.831
  7 B3g   5 Au   20 B3u  23 Ag    7 B2g  19 B1g  21 B3u  24 Ag                 
  0.859   0.868   0.872   0.874   0.877   0.907   0.936   0.950
 25 Ag   20 B1g   6 Au   23 B2u   9 B1u  26 Ag   22 B3u  23 B3u                
  0.976   0.983   0.995   0.997   1.061   1.075   1.090   1.100
 10 B1u  24 B2u   8 B3g  27 Ag   25 B2u  21 B1g   9 B3g  28 Ag                 
  1.119   1.145   1.178   1.193   1.198   1.206   1.218   1.223
  7 Au    8 B2g  22 B1g  24 B3u   9 B2g  25 B3u  29 Ag   26 B2u                
  1.236   1.237   1.237   1.248   1.257   1.259   1.327   1.337
 10 B3g  11 B1u  23 B1g  27 B2u  30 Ag   26 B3u  28 B2u   8 Au                 
  1.362   1.394   1.397   1.401   1.414   1.441   1.451   1.494
 24 B1g  12 B1u  29 B2u  31 Ag   25 B1g  27 B3u  10 B2g  32 Ag                 
  1.496   1.510   1.510   1.517   1.523   1.523   1.563   1.571
 11 B3g  30 B2u   9 Au   28 B3u  26 B1g  13 B1u  27 B1g  33 Ag                 
  1.590   1.633   1.649   1.662   1.664   1.665   1.669   1.681
 10 Au   29 B3u  31 B2u  12 B3g  14 B1u  34 Ag   11 B2g  32 B2u                
  1.686   1.697   1.701   1.745   1.752   1.830   1.830   1.853
 13 B3g  28 B1g  33 B2u  30 B3u  12 B2g  11 Au   35 Ag   15 B1u                
  1.863   1.921   1.963   1.971   1.973   1.990   2.001   2.001
 14 B3g  12 Au   31 B3u  16 B1u  34 B2u  36 Ag   29 B1g  15 B3g                
  2.043   2.087   2.122   2.130   2.140   2.140   2.141   2.150
 13 B2g  37 Ag   32 B3u  38 Ag   30 B1g  33 B3u  35 B2u  31 B1g                
  2.223   2.223   2.244   2.247   2.274   2.285   2.315   2.378
 34 B3u  32 B1g  39 Ag   36 B2u  16 B3g  35 B3u  17 B1u  13 Au                 
  2.418   2.429   2.430   2.463   2.473   2.521   2.549   2.556
 40 Ag   37 B2u  41 Ag   14 B2g  36 B3u  33 B1g  38 B2u  37 B3u                
  2.557   2.587   2.598   2.607   2.619   2.631   2.631   2.649
 15 B2g  42 Ag   38 B3u  34 B1g  39 B2u  43 Ag   18 B1u  35 B1g                
  2.666   2.700   2.702   2.704   2.715   2.747   2.756   2.761
 17 B3g  16 B2g  14 Au   44 Ag   40 B2u  19 B1u  41 B2u  39 B3u                
  2.791   2.800   2.800   2.800   2.809   2.816   2.827   2.856
 20 B1u  45 Ag   36 B1g  18 B3g  40 B3u  17 B2g  42 B2u  37 B1g                
  2.881   2.886   2.887   2.895   2.895   2.924   2.944   2.974
 43 B2u  21 B1u  41 B3u  46 Ag   15 Au   16 Au   38 B1g  18 B2g                
  2.984   2.992   2.995   3.004   3.009   3.043   3.082   3.092
 44 B2u  47 Ag   39 B1g  19 B3g  22 B1u  23 B1u  42 B3u  19 B2g                
  3.096   3.127   3.153   3.156   3.176   3.181   3.189   3.190
 48 Ag   43 B3u  20 B3g  40 B1g  45 B2u  49 Ag   17 Au   20 B2g                
  3.194   3.216   3.223   3.226   3.227   3.250   3.265   3.282
 21 B3g  24 B1u  46 B2u  50 Ag   44 B3u  41 B1g  18 Au   45 B3u                
  3.316   3.320   3.324   3.332   3.347   3.352   3.358   3.368
 47 B2u  25 B1u  21 B2g  51 Ag   46 B3u  52 Ag   42 B1g  22 B3g                
  3.413   3.416   3.444   3.467   3.477   3.478   3.480   3.501
 43 B1g  19 Au   48 B2u  20 Au   23 B3g  47 B3u  22 B2g  49 B2u                
  3.517   3.520   3.545   3.567   3.578   3.619   3.634   3.646
 26 B1u  23 B2g  24 B3g  44 B1g  50 B2u  48 B3u  45 B1g  53 Ag                 
  3.681   3.703   3.710   3.766   3.807   3.820   3.825   3.838
 51 B2u  54 Ag   21 Au   27 B1u  52 B2u  49 B3u  46 B1g  22 Au                 
  3.912   3.913   3.925   3.940   3.982   3.995   4.037   4.050
 25 B3g  55 Ag   53 B2u  50 B3u  47 B1g  56 Ag   48 B1g  51 B3u                
  4.059   4.093   4.113   4.131   4.153   4.159   4.167   4.180
 24 B2g  49 B1g  26 B3g  57 Ag   28 B1u  54 B2u  55 B2u  50 B1g                
  4.202   4.253   4.264   4.265   4.292   4.301   4.356   4.374
 58 Ag   29 B1u  23 Au   25 B2g  27 B3g  52 B3u  53 B3u  59 Ag                 
  4.384   4.412   4.503   4.544   4.612   4.674   4.694   4.731
 24 Au   51 B1g  56 B2u  28 B3g  54 B3u  57 B2u  60 Ag   55 B3u                
  4.736   4.740   4.755   4.765   4.846   4.923   5.012   5.029
 29 B3g  25 Au   58 B2u  61 Ag   52 B1g  56 B3u  59 B2u  62 Ag                 
  5.029   5.065   5.148   5.263   5.281   5.329   5.340   5.580
 53 B1g  60 B2u  63 Ag   54 B1g  61 B2u  55 B1g  57 B3u  56 B1g                
  5.583   5.674   5.900  21.861  22.370  22.469  22.565  22.656
 62 B2u  63 B2u  57 B1g  64 Ag   58 B3u  65 Ag   59 B3u  58 B1g                
 22.745  22.796  22.850  22.876  23.523
 64 B2u  66 Ag   59 B1g  65 B2u  66 B2u                                        
 --------------------------------------------------------------
 
          Ground-State Mulliken Net Atomic Charges

     Atom                 Charge (a.u.)    Spin (a.u.)
  --------------------------------------------------------
      1 C                     0.094838      -0.147065
      2 C                     0.094838      -0.147065
      3 C                    -0.150405       0.493386
      4 C                    -0.113658       0.109846
      5 C                    -0.113658       0.109846
      6 C                    -0.150405       0.493386
      7 C                    -0.150405       0.493386
      8 C                    -0.150405       0.493386
      9 C                    -0.113658       0.109846
     10 C                    -0.113658       0.109846
     11 H                     0.107264      -0.021642
     12 H                     0.109381      -0.008058
     13 H                     0.109381      -0.008058
     14 H                     0.107264      -0.021642
     15 H                     0.107264      -0.021642
     16 H                     0.109381      -0.008058
     17 H                     0.109381      -0.008058
     18 H                     0.107264      -0.021642
  --------------------------------------------------------
  Sum of atomic charges =     0.000000
  Sum of spin   charges =     2.000000

 -----------------------------------------------------------------
                    Cartesian Multipole Moments
 -----------------------------------------------------------------
    Charge (ESU x 10^10)
                 0.0000
    Dipole Moment (Debye)
         X      -0.0000      Y       0.0000      Z      -0.0000
       Tot       0.0000
    Quadrupole Moments (Debye-Ang)
        XX     -52.7647     XY      -0.0000     YY     -51.8803
        XZ       0.0000     YZ       0.0000     ZZ     -64.2179
    Octopole Moments (Debye-Ang^2)
       XXX       0.0000    XXY      -0.0000    XYY       0.0000
       YYY      -0.0000    XXZ       0.0000    XYZ       0.0000
       YYZ      -0.0000    XZZ      -0.0000    YZZ       0.0000
       ZZZ      -0.0000
    Hexadecapole Moments (Debye-Ang^3)
      XXXX   -1155.0797   XXXY      -0.0000   XXYY    -269.6561
      XYYY      -0.0000   YYYY    -485.9851   XXXZ       0.0000
      XXYZ       0.0000   XYYZ       0.0000   YYYZ       0.0000
      XXZZ    -250.1932   XYZZ       0.0000   YYZZ    -111.9564
      XZZZ       0.0000   YZZZ       0.0000   ZZZZ     -76.9686
 -----------------------------------------------------------------
 Total job time:  5740.25s(wall), 5689.28s(cpu) 
 Mon Oct 21 13:47:52 2024

        *************************************************************
        *                                                           *
        *  Thank you very much for using Q-Chem.  Have a nice day.  *
        *                                                           *
        *************************************************************


