                  Welcome to Q-Chem
     A Quantum Leap Into The Future Of Chemistry


 Q-Chem 6.0 (devel), Q-Chem, Inc., Pleasanton, CA (2022)

 E. Epifanovsky,  A. T. B. Gilbert,  Xintian Feng,  Joonho Lee,  Yuezhi Mao,  
 N. Mardirossian,  P. Pokhilko,  A. White,  M. Wormit,  M. P. Coons,  
 A. L. Dempwolff,  Zhengting Gan,  D. Hait,  P. R. Horn,  L. D. Jacobson,  
 I. Kaliman,  J. Kussmann,  A. W. Lange,  Ka Un Lao,  D. S. Levine,  Jie Liu,  
 S. C. McKenzie,  A. F. Morrison,  K. Nanda,  F. Plasser,  D. R. Rehn,  
 M. L. Vidal,  Zhi-Qiang You,  Ying Zhu,  B. Alam,  B. Albrecht,  
 A. Aldossary,  E. Alguire,  J. H. Andersen,  V. Athavale,  D. Barton,  
 K. Begam,  A. Behn,  N. Bellonzi,  Y. A. Bernard,  E. J. Berquist,  
 H. Burton,  A. Carreras,  K. Carter-Fenk,  Romit Chakraborty,  
 Chandrima Chakravarty,  Junhan Chen,  A. D. Chien,  K. D. Closser,  
 V. Cofer-Shabica,  L. Cunha,  S. Dasgupta,  Jia Deng,  M. de Wergifosse,  
 M. Diedenhofen,  Hainam Do,  S. Ehlert,  Po-Tung Fang,  S. Fatehi,  
 Qingguo Feng,  T. Friedhoff,  B. Ganoe,  J. Gayvert,  Qinghui Ge,  
 G. Gidofalvi,  M. Goldey,  J. Gomes,  C. Gonzalez-Espinoza,  S. Gulania,  
 A. Gunina,  J. A. Gyamfi,  M. W. D. Hanson-Heine,  P. H. P. Harbach,  
 A. W. Hauser,  M. F. Herbst,  M. Hernandez Vera,  M. Hodecker,  
 Z. C. Holden,  S. Houck,  Xunkun Huang,  Kerwin Hui,  B. C. Huynh,  
 K. Ikeda,  M. Ivanov,  Hyunjun Ji,  Zuxin Jin,  Hanjie Jiang,  B. Kaduk,  
 S. Kaehler,  R. Kang,  K. Khistyaev,  Jaehoon Kim,  Yongbin Kim,  
 P. Klunzinger,  Z. Koczor-Benda,  Joong Hoon Koh,  D. Kosenkov,  
 Saikiran Kotaru,  L. Koulias,  T. Kowalczyk,  C. M. Krauter,  K. Kue,  
 A. Kunitsa,  T. Kus,  A. Landau,  K. V. Lawler,  D. Lefrancois,  S. Lehtola,  
 Rain Li,  Shaozhi Li,  Yi-Pei Li,  Jiashu Liang,  M. Liebenthal,  
 Hung-Hsuan Lin,  You-Sheng Lin,  Fenglai Liu,  Kuan-Yu Liu,  
 M. Loipersberger,  A. Luenser,  C. Malbon,  A. Manjanath,  P. Manohar,  
 E. Mansoor,  S. F. Manzer,  Shan-Ping Mao,  A. V. Marenich,  T. Markovich,  
 S. Mason,  F. Matz,  S. A. Maurer,  P. F. McLaughlin,  M. F. S. J. Menger,  
 J.-M. Mewes,  S. A. Mewes,  P. Morgante,  Mohammad Mostafanejad,  
 J. W. Mullinax,  K. J. Oosterbaan,  G. Paran,  V. Parravicini,  
 Alexander C. Paul,  Suranjan K. Paul,  F. Pavosevic,  Zheng Pei,  S. Prager,  
 E. I. Proynov,  E. Ramos,  B. Rana,  A. E. Rask,  A. Rettig,  R. M. Richard,  
 F. Rob,  E. Rossomme,  T. Scheele,  M. Scheurer,  M. Schneider,  
 P. E. Schneider,  N. Sergueev,  S. M. Sharada,  Hengyuan Shen,  
 W. Skomorowski,  D. W. Small,  C. J. Stein,  Yingli Su,  Yu-Chuan Su,  
 E. J. Sundstrom,  Zhen Tao,  J. Thirman,  Hung-Yi Tsai,  T. Tsuchimochi,  
 N. M. Tubman,  C. Utku,  S. P. Veccham,  O. Vydrov,  J. Wenzel,  
 Jonathan Wong,  J. Witte,  A. Yamada,  Chou-Hsun Yang,  Kun Yao,  
 S. Yeganeh,  S. R. Yost,  A. Zech,  F. Zeller,  Igor Ying Zhang,  
 Xing Zhang,  Yu Zhang,  D. Zuev,  A. Aspuru-Guzik,  A. T. Bell,  
 N. A. Besley,  K. B. Bravaya,  B. R. Brooks,  D. Casanova,  Jeng-Da Chai,  
 Hsing-Ta Chen,  S. Coriani,  C. J. Cramer,  A. E. DePrince, III,  
 R. A. DiStasio Jr.,  A. Dreuw,  B. D. Dunietz,  T. R. Furlani,  
 W. A. Goddard III,  S. Grimme,  S. Hammes-Schiffer,  T. Head-Gordon,  
 W. J. Hehre,  Chao-Ping Hsu,  T.-C. Jagau,  Yousung Jung,  A. Klamt,  
 Jing Kong,  D. S. Lambrecht,  Xiangyuan Li,  WanZhen Liang,  N. J. Mayhall,  
 C. W. McCurdy,  J. B. Neaton,  T. Neudecker,  C. Ochsenfeld,  
 J. A. Parkhill,  R. Peverati,  V. A. Rassolov,  Haisheng Ren,  Yihan Shao,  
 L. V. Slipchenko,  R. P. Steele,  J. E. Subotnik,  A. J. W. Thom,  
 A. Tkatchenko,  D. G. Truhlar,  T. Van Voorhis,  Fan Wang,  
 T. A. Wesolowski,  K. B. Whaley,  H. L. Woodcock III,  P. M. Zimmerman,  
 S. Faraji,  P. M. W. Gill,  M. Head-Gordon,  J. M. Herbert,  A. I. Krylov

 Contributors to earlier versions of Q-Chem not listed above: 
 R. D. Adamson,  B. Austin,  R. Baer,  J. Baker,  G. J. O. Beran,  
 K. Brandhorst,  S. T. Brown,  E. F. C. Byrd,  Arup K. Chakraborty,  
 G. K. L. Chan,  Chun-Min Chang,  Yunqing Chen,  C.-L. Cheng,  
 Siu Hung Chien,  D. M. Chipman,  D. L. Crittenden,  H. Dachsel,  
 R. J. Doerksen,  A. D. Dutoi,  R. G. Edgar,  J. Fosso-Tande,  
 L. Fusti-Molnar,  D. Ghosh,  A. Ghysels,  A. Golubeva-Zadorozhnaya,  
 J. Gonthier,  M. S. Gordon,  S. R. Gwaltney,  G. Hawkins,  J. E. Herr,  
 A. Heyden,  S. Hirata,  E. G. Hohenstein,  G. Kedziora,  F. J. Keil,  
 C. Kelley,  Jihan Kim,  R. A. King,  R. Z. Khaliullin,  P. P. Korambath,  
 W. Kurlancheek,  A. Laurent,  A. M. Lee,  M. S. Lee,  S. V. Levchenko,  
 Ching Yeh Lin,  D. Liotard,  E. Livshits,  R. C. Lochan,  I. Lotan,  
 L. A. Martinez-Martinez,  P. E. Maslen,  N. Nair,  D. P. O'Neill,  
 D. Neuhauser,  E. Neuscamman,  C. M. Oana,  R. Olivares-Amaya,  R. Olson,  
 T. M. Perrine,  B. Peters,  P. A. Pieniazek,  A. Prociuk,  Y. M. Rhee,  
 J. Ritchie,  M. A. Rohrdanz,  E. Rosta,  N. J. Russ,  H. F. Schaefer III,  
 M. W. Schmidt,  N. E. Schultz,  S. Sharma,  N. Shenvi,  C. D. Sherrill,  
 A. C. Simmonett,  A. Sodt,  T. Stein,  D. Stuck,  K. S. Thanthiriwatte,  
 V. Vanovschi,  L. Vogt,  Tao Wang,  A. Warshel,  M. A. Watson,  
 C. F. Williams,  Q. Wu,  X. Xu,  Jun Yang,  W. Zhang,  Yan Zhao

   Please cite Q-Chem as follows:
  "Software for the frontiers of quantum chemistry:
   An overview of developments in the Q-Chem 5 package"
   J. Chem. Phys. 155, 084801 (2021)
   https://doi.org/10.1063/5.0055522 (open access)

 Q-Chem 6.0.1 for Intel X86 EM64T Linux

 Parts of Q-Chem use Armadillo 9.900.5 (Nocturnal Misbehaviour).
 http://arma.sourceforge.net/

 Q-Chem begins on Fri Sep  6 11:25:56 2024  

 Host: atlas-252
0

     Scratch files written to ./qchem350305//
 Processing $rem in /scratch/abel/SOFTWARE/qchem/config/preferences:
 Processing $rem in /dipc/acebg/.qchemrc:

 Checking the input file for inconsistencies... 	...done.

--------------------------------------------------------------
User input:
--------------------------------------------------------------
$comment
 RAS-SF CALCULATION
$end

$molecule
READ naphthalene.molecule
$end

$rem
!**CALCULATION TYPE***     
JOBTYPE            sp    
EXCHANGE           HF
CORRELATION        RASCI    !RASCI=Casanova; RASCI2=Zimmerman
BASIS              def2-TZVP
BASIS2             STO-3G

!***SCF REFERENCE***
INPUT_BOHR          TRUE
!SKIP_SCFMAN        FALSE
UNRESTRICTED       FALSE
!SCF_GUESS          core
!SCF_GUESS_MIX      FALSE
!SCF_GUESS_ALWAYS   FALSE
MAX_SCF_CYCLES     500
!SCF_CONVERGENCE    10
SCF_ALGORITHM      DIIS_GDM !DIIS,DM,DIIS_DM,GDM,DIIS_GDM,GD

!SYMMETRY           TRUE   !use of symmetry for calculating integrals
!SYM_IGNORE         FALSE  !turn off using symmetry
!SYM_TOL            5      !tolerance for determining point group
!USE_ABELIAN_SUBGROUP      !define to use abelian group

!THRESH             14
!SCF_FINAL_PRINT     1 !0,1,2,3

!****RAS-SF****
RAS_ROOTS          30       !number of RAS-CI roots to be computed
SET_ITER           100     !number of iterations in RASCI
RAS_ELEC 12
RAS_ELEC_ALPHA 7
RAS_ELEC_BETA 5

RAS_ACT 12
RAS_ACT_ORB [20, 21, 23, 25, 33, 34, 35, 36, 49, 56, 57, 64]
RAS_OCC 28
!N_FROZEN_CORE      FC     !Number of frozen core orbitals
!N_FROZEN_VIRTUAL   0      !Number of frozen virtual orbitals

RAS_DO_HOLE        FALSE   !presence of hole excitations in RAS-CI wave function
RAS_DO_PART        FALSE   !presence of particle excitations
!RAS_AMPL_PRINT     10     !threshold (×10 2 ) for the CI amplitudes

!RAS_GUESS_CS       0      !number of closed shell guess conﬁgurations
!RAS_SPIN_MULT      0      !spin multiplicity. Only for Ms = 0 
!RAS_SRDFT          FALSE  !short-range density functional RAS-CI
!RAS_NFRAG          0     !fragments of excitation analysis in RASCI

RAS_PRINT          2      !level of information
!RAS_NATORB         TRUE   !computation of the natural orbital occupancies
!RAS_NATORB_STATE  0      !Saves NO of i RAS computed state in .fchk ﬁle
!RAS_FOD            TRUE

!****RAS-SOC****
CALC_SOC           TRUE   !calculate SOC for EOM-CC, RAS-CI, ADC, TDDFT/TDA and TDDFT
!RAS_SOC_2E        TRUE   !two-electron mean-ﬁeld contribution, default=true
RAS_SOC_SYM_DENS   TRUE   !averaging of α and β densities

!****MEMORY****
MEM_TOTAL          90000 !Default 2000 MB
MEM_STATIC         10000  !Default 64 MB

!**Molecular Properties and Analysis **                                                                                          
GUI                0       !Checkpoints generation
STATE_ANALYSIS     TRUE
$end
--------------------------------------------------------------
 ----------------------------------------------------------------
             Standard Nuclear Orientation (Bohr)
    I     Atom           X                Y                Z
 ----------------------------------------------------------------
    1      C       0.0000000000    -1.3623625091    -0.0000000000
    2      C      -0.0000000000     1.3623625091     0.0000000000
    3      C      -2.3376206850    -2.6436978817    -0.0000000000
    4      C      -4.6989437780    -1.2863193617     0.0000000000
    5      C      -4.6989437780     1.2863193617     0.0000000000
    6      C      -2.3376206850     2.6436978817     0.0000000000
    7      C       2.3376206850     2.6436978817     0.0000000000
    8      C       2.3376206850    -2.6436978817    -0.0000000000
    9      C       4.6989437780    -1.2863193617    -0.0000000000
   10      C       4.6989437780     1.2863193617    -0.0000000000
   11      H       2.3527347410    -4.6914688881    -0.0000000000
   12      H       6.4552948094    -2.3370951729    -0.0000000000
   13      H       6.4552948094     2.3370951729    -0.0000000000
   14      H       2.3527347410     4.6914688881     0.0000000000
   15      H      -2.3527347410    -4.6914688881    -0.0000000000
   16      H      -6.4552948094    -2.3370951729     0.0000000000
   17      H      -6.4552948094     2.3370951729     0.0000000000
   18      H      -2.3527347410     4.6914688881     0.0000000000
 ----------------------------------------------------------------
 Molecular Point Group                 D2h   NOp =  8
 Largest Abelian Subgroup              D2h   NOp =  8
 Nuclear Repulsion Energy =         454.42574361 hartrees
 There are       35 alpha and       33 beta electrons
 Requested basis set is def2-TZVP
 There are 142 shells and 358 basis functions

 Q-Chem warning in module libmdc/get_mega.C, line 167:

 Allowed MEM_STATIC has been capped at MEM_STATIC=8191.
 Reduce the value of MEM_STATIC to silence this warning.


 Total QAlloc Memory Limit  90000 MB
 Mega-Array Size      8007 MB
 MEM_STATIC part      8191 MB

 A cutoff of  1.0D-09 yielded   8628 shell pairs
 There are     55612 function pairs (     72197 Cartesian)
 Smallest overlap matrix eigenvalue = 6.97E-06

 Q-Chem warning in module stvman/mkSTV.C, line 313:

 Overlap eigenvalue is smaller than square root of threshold
 Use THRESH >= 12 to get rid of this warning


 Scale SEOQF with 1.000000e-01/1.000000e-01/1.000000e+00

 Standard Electronic Orientation quadrupole field applied
 Nucleus-field energy     =     0.0000000153 hartrees
 Requested basis set is STO-3G
 There are 28 shells and 58 basis functions
 A cutoff of  1.0D-09 yielded    354 shell pairs
 There are      1695 function pairs
 Smallest overlap matrix eigenvalue = 1.76E-01
 Constructing guess Fock matrix from core Hamiltonian
 Applying Wolfsberg-Helmholtz approximation
 A restricted Hartree-Fock SCF calculation will be
 performed using Geometric Direct Minimization
 SCF converges when RMS gradient is below 1.0E-04
 ---------------------------------------
  Cycle       Energy        RMS Gradient
 ---------------------------------------
    1    -377.1024280852      3.19E-01 Descent step
    2    -377.5468541557      3.46E-01 Descent step
    3    -377.8859971323      3.03E-01 Descent step
    4    -378.1211214233      1.93E-01 Descent step
    5    -378.2601806172      1.11E-01 Dog-leg BFGS step
    6    -378.3143226994      4.20E-02 Normal BFGS step
    7    -378.3171329387      1.19E-02 Normal BFGS step
    8    -378.3179066822      1.17E-02 Normal BFGS step
    9    -378.3182503011      5.59E-03 Normal BFGS step
   10    -378.3183226269      2.78E-03 Normal BFGS step
   11    -378.3183390222      6.44E-04 Normal BFGS step
   12    -378.3183410506      1.25E-04 Normal BFGS step
   13    -378.3183411767      3.36E-05 Convergence criterion met
 ---------------------------------------
 SCF time:  CPU 0.40 s  wall 1.03 s

 Q-Chem warning in module 0, line  204:

 Quadrupole field failed to resolve orbital degeneracies.


 Q-Chem warning in module 0, line  204:

 Quadrupole field failed to resolve orbital degeneracies.

 SCF   energy in the small basis set = -378.31834118
 Total energy in the small basis set = -378.31834118
 ----------------------------------------------------
  Cycle       Energy    
 ----------------------------------------------------
    1     -49.2566807388     -4.93E+01
 A restricted Hartree-Fock SCF calculation will be
 performed using Geometric Direct Minimization
 SCF converges when RMS gradient is below 1.0E-05
 ---------------------------------------
  Cycle       Energy        RMS Gradient
 ---------------------------------------
    1    -383.2241170015      1.02E-01 Descent step
    2    -383.3409766708      3.88E-02 Normal BFGS step
    3    -383.3706966180      2.67E-02 Normal BFGS step
    4    -383.3736163004      7.99E-03 Normal BFGS step
    5    -383.3737405983      2.97E-03 Normal BFGS step
    6    -383.3737577972      8.66E-04 Normal BFGS step
    7    -383.3737610296      2.35E-04 Normal BFGS step
    8    -383.3737615036      3.32E-05 Normal BFGS step
    9    -383.3737615351      9.98E-06 Convergence criterion met
 ---------------------------------------
 SCF time:  CPU 246.40 s  wall 248.31 s
 SCF   energy in the final basis set = -383.37376154
 Total energy in the final basis set = -383.37376154
  
     ##========================================##
     ||                                        ||
     ||              R A S M A N 2             ||
     ||________________________________________||
     ||                                        ||
     ||  Author:                               ||
     ||                                        ||
     ||        David Casanova (2010)           ||
     ||                                        ||
     ##========================================##
  
Setting single-point xc-functionals (if necessary)

  ***************************************************
  *  RAS-CI Dimensions:                             *
  *                                                 *
  *  Active Elec.:  12 ( 7, 5)   Active Orb.:  12   *
  *  Doubly Occ. :  28           Doubly Vir.: 318   *
  *  Frozen Occ. :   0           Frozen Vir.:   0   *
  *                                                 *
  *  Total CI configurations:    627264             * 
  *    Active configurations:    627264             * 
  *      Hole configurations:         0             * 
  *  Particle configurations:         0             * 
  *                                                 *
  *   Requested states:       30                    *
  *  Spin multiplicity: Any multiplicity            *
  *                                                 *
  ***************************************************
-----------------------------------------
    Memory requirements of RASCI

 Each CI-vector requires      4.79 MiB 
 Max. subspace vectors           3000      

 Reduced Lists                0.01 MiB 
 Excitation Lists             0.01 MiB 
 Excitation Lists Sign        0.01 MiB 
 CI-space (Max)           14569.19 MiB 
 Integrals                  285.03 MiB 
 Memory required (Max)    14569.23 MiB 
 Memory available          7811.55 MiB 

 Q-Chem warning in module rasman2/ras_mem_check.C, line 162:

 Static memory may be insufficient to store the subspace vectors


    Disk requirements of RASCI

 Fock matrix                  1.96 MiB 
 2-electron integrals         0.32 MiB 
 CI-space                 28713.87 MiB 
 Disk required            28716.14 MiB 
-----------------------------------------
  
RAS1 HF-like energy:           -362.6976266504
 Computing integrals
 Computing J and K matrices
 Computing addressing
 Making amplitude guesses
 
Direct CI diagonalization
 ---------------------------------------------------
 Iter    Rts Conv    Rts Left    Ttl Dev     Max Dev
 ---------------------------------------------------
   1         0          30      0.002719    0.000162
   2         0          30      0.002174    0.000561
   3         0          30      0.001575    0.000436
   4         1          29      0.001031    0.000161
   5         1          29      0.000993    0.000345
   6         8          22      0.000569    0.000141
   7        10          20      0.000502    0.000177
   8        11          19      0.000703    0.000285
   9        12          18      0.000696    0.000336
  10        13          17      0.000566    0.000206
  11        17          13      0.000396    0.000134
  12        19          11      0.000292    0.000094
  13        20          10      0.000302    0.000093
  14        22           8      0.000250    0.000111
  15        22           8      0.000232    0.000105
  16        22           8      0.000248    0.000092
  17        22           8      0.000203    0.000076
  18        22           8      0.000148    0.000050
  19        22           8      0.000106    0.000036
  20        24           6      0.000073    0.000024
  21        24           6      0.000055    0.000017
  22        26           4      0.000042    0.000011
  23        26           4      0.000036    0.000009
  24        26           4      0.000033    0.000008
  25        27           3      0.000031    0.000008
  26        26           4      0.000028    0.000008
  27        27           3      0.000024    0.000007
  28        27           3      0.000021    0.000005
  29        28           2      0.000019    0.000004
  30        28           2      0.000017    0.000003
  31        28           2      0.000016    0.000002
  32        28           2      0.000016    0.000001
  33        29           1      0.000015    0.000001
  34        29           1      0.000015    0.000001
  35        30           0      0.000015    0.000001    Roots Converged
 ---------------------------------------------------
   
**************************************************
 RAS-CI total energy for state   1:   -383.378642336633
  Excitation energy (eV) =  0.000000000000
  State symmetry: B2u   (D2h      )
  <S^2>      :  2.0000
  Dipole Moment:   -0.0000 X     0.0000 Y    -0.0000 Z
 NATURAL OCCUPATION NUMBERS (higher than 1.0E-05)
            1           2           3           4           5           6
    1   2.0000000   2.0000000   2.0000000   2.0000000   2.0000000   2.0000000
            7           8           9          10          11          12
    1   2.0000000   2.0000000   2.0000000   2.0000000   2.0000000   2.0000000
           13          14          15          16          17          18
    1   2.0000000   2.0000000   2.0000000   2.0000000   2.0000000   2.0000000
           19          20          21          22          23          24
    1   2.0000000   2.0000000   2.0000000   2.0000000   2.0000000   2.0000000
           25          26          27          28          29          30
    1   2.0000000   2.0000000   2.0000000   2.0000000   1.9998849   1.9998706
           31          32          33          34          35          36
    1   1.9998260   1.9997960   1.9846486   1.0003352   0.9996727   0.0151936
           37          38          39          40
    1   0.0003623   0.0002067   0.0001375   0.0000661

 Head-Gordon Nu:    2.03
 Head-Gordon Nu_nl: 2.00
 Created directory ./qchem350305/plots

  Amplitudes : 
  
 | HOLE  | ALPHA        | BETA         | PART  |    AMPLITUDE 
--------------------------------------------------
 |       | 111111100000 | 111110000000 |       |     9.9468677798295E-01
--------------------------------------------------
*** Contributions RASCI wfn    Active: 100.00
                                 Hole:   0.00
                                 Part:   0.00

      Mulliken population analysis 
 ---------------------------------------------------
   Atom    Charge (a.u.)   Spin (a.u.)  
 ---------------------------------------------------
   1  C    0.099933        0.030052 
   2  C    0.099933        0.030052 
   3  C   -0.168766        0.397615 
   4  C   -0.137178        0.085116 
   5  C   -0.137178        0.085116 
   6  C   -0.168766        0.397615 
   7  C   -0.168766        0.397615 
   8  C   -0.168766        0.397615 
   9  C   -0.137178        0.085116 
  10  C   -0.137179        0.085116 
  11  H    0.130637        0.002071 
  12  H    0.125341        0.000173 
  13  H    0.125341        0.000173 
  14  H    0.130637        0.002071 
  15  H    0.130637        0.002071 
  16  H    0.125341        0.000173 
  17  H    0.125341        0.000173 
  18  H    0.130637        0.002071 
 ---------------------------------------------------
   Sum:    0.000000        2.000000 
 ---------------------------------------------------
 
      Analysis of the transition density matrix (wrt ground state)
 -------------------------------------
   Atom      e-      h+     Total     
 -------------------------------------
      1  -5.9262   5.9262  -0.0000
      2  -5.9262   5.9262   0.0000
      3  -6.5638   6.5638   0.0000
      4  -6.2164   6.2164   0.0000
      5  -6.2164   6.2164   0.0000
      6  -6.5638   6.5638  -0.0000
      7  -6.5638   6.5638   0.0000
      8  -6.5638   6.5638   0.0000
      9  -6.2164   6.2164   0.0000
     10  -6.2164   6.2164   0.0000
     11  -0.8714   0.8714   0.0000
     12  -0.8748   0.8748   0.0000
     13  -0.8748   0.8748   0.0000
     14  -0.8714   0.8714   0.0000
     15  -0.8714   0.8714  -0.0000
     16  -0.8748   0.8748   0.0000
     17  -0.8748   0.8748   0.0000
     18  -0.8714   0.8714  -0.0000
  Sum:  -69.9579  69.9579   0.0000
 -------------------------------------
 
      Analysis of the difference density matrix (wrt ground state)
 -------------------------------------
   Atom   Attach   Detach   Total     
 -------------------------------------
      1   0.0000   0.0000   0.0000
      2   0.0000   0.0000   0.0000
      3   0.0000   0.0000   0.0000
      4   0.0000   0.0000   0.0000
      5   0.0000   0.0000   0.0000
      6   0.0000   0.0000   0.0000
      7   0.0000   0.0000   0.0000
      8   0.0000   0.0000   0.0000
      9   0.0000   0.0000   0.0000
     10   0.0000   0.0000   0.0000
     11   0.0000   0.0000   0.0000
     12   0.0000   0.0000   0.0000
     13   0.0000   0.0000   0.0000
     14   0.0000   0.0000   0.0000
     15   0.0000   0.0000   0.0000
     16   0.0000   0.0000   0.0000
     17   0.0000   0.0000   0.0000
     18   0.0000   0.0000   0.0000
  Sum:    0.0000   0.0000   0.0000
 -------------------------------------
 
*** Unpaired Electrons
 Yamaguchi Nd:         2.06
  
**************************************************
 RAS-CI total energy for state   2:   -383.273042236084
  Excitation energy (eV) =  2.873524936340
  State symmetry: B3u   (D2h      )
  <S^2>      :  2.0000
  Dipole Moment:   -0.0000 X    -0.0000 Y    -0.0000 Z
  Trans. Moment:   -0.0000 X    -0.0000 Y     0.0000 Z
  Strength   :  0.000000
  Natural transition orbitals ( 1 -> 2 ):
   e-/hole pair  1 alpha:  ampl =  0.984018 ( 96.8%)   [12 : 13]
   e-/hole pair  2 alpha:  ampl =  0.006238 (  0.0%)   [11 : 14]
   e-/hole pair  1 beta :  ampl =  0.125984 (  1.6%)   [12 : 13]
   e-/hole pair  2 beta :  ampl =  0.048698 (  0.2%)   [11 : 14]
   Sum of square amplitudes: 0.99

 NATURAL OCCUPATION NUMBERS (higher than 1.0E-05)
            1           2           3           4           5           6
    1   2.0000000   2.0000000   2.0000000   2.0000000   2.0000000   2.0000000
            7           8           9          10          11          12
    1   2.0000000   2.0000000   2.0000000   2.0000000   2.0000000   2.0000000
           13          14          15          16          17          18
    1   2.0000000   2.0000000   2.0000000   2.0000000   2.0000000   2.0000000
           19          20          21          22          23          24
    1   2.0000000   2.0000000   2.0000000   2.0000000   2.0000000   2.0000000
           25          26          27          28          29          30
    1   2.0000000   2.0000000   2.0000000   2.0000000   1.9998612   1.9998030
           31          32          33          34          35          36
    1   1.9997782   1.9997758   1.9755261   1.0138259   0.9862210   0.0243739
           37          38          39          40
    1   0.0003781   0.0002327   0.0001597   0.0000645

 Head-Gordon Nu:    2.02
 Head-Gordon Nu_nl: 2.00

  Amplitudes : 
  
 | HOLE  | ALPHA        | BETA         | PART  |    AMPLITUDE 
--------------------------------------------------
 |       | 111111100000 | 111101000000 |       |     1.2661417999836E-01
 |       | 111111010000 | 111110000000 |       |     9.8888888480677E-01
--------------------------------------------------
*** Contributions RASCI wfn    Active: 100.00
                                 Hole:   0.00
                                 Part:   0.00

      Mulliken population analysis 
 ---------------------------------------------------
   Atom    Charge (a.u.)   Spin (a.u.)  
 ---------------------------------------------------
   1  C    0.019389        0.130920 
   2  C    0.019389        0.130920 
   3  C   -0.012076        0.214815 
   4  C   -0.256051        0.217510 
   5  C   -0.256051        0.217510 
   6  C   -0.012076        0.214815 
   7  C   -0.012075        0.214815 
   8  C   -0.012076        0.214815 
   9  C   -0.256050        0.217510 
  10  C   -0.256051        0.217510 
  11  H    0.133447        0.000855 
  12  H    0.124986        0.001360 
  13  H    0.124985        0.001360 
  14  H    0.133447        0.000855 
  15  H    0.133447        0.000855 
  16  H    0.124985        0.001360 
  17  H    0.124985        0.001360 
  18  H    0.133447        0.000855 
 ---------------------------------------------------
   Sum:    0.000000        2.000000 
 ---------------------------------------------------
 
      Analysis of the transition density matrix (wrt ground state)
 -------------------------------------
   Atom      e-      h+     Total     
 -------------------------------------
      1  -0.2302   0.0372  -0.1930
      2  -0.2302   0.0372  -0.1930
      3  -0.0288   0.3823   0.3535
      4  -0.3368   0.0800  -0.2568
      5  -0.3368   0.0800  -0.2568
      6  -0.0288   0.3823   0.3535
      7  -0.0288   0.3823   0.3535
      8  -0.0288   0.3823   0.3535
      9  -0.3368   0.0800  -0.2568
     10  -0.3368   0.0800  -0.2568
     11  -0.0000   0.0025   0.0025
     12  -0.0035   0.0008  -0.0028
     13  -0.0035   0.0008  -0.0028
     14  -0.0000   0.0025   0.0025
     15  -0.0000   0.0025   0.0025
     16  -0.0035   0.0008  -0.0028
     17  -0.0035   0.0008  -0.0028
     18  -0.0000   0.0025   0.0025
  Sum:   -1.9367   1.9367  -0.0000
 -------------------------------------
 
      Analysis of the difference density matrix (wrt ground state)
 -------------------------------------
   Atom   Attach   Detach   Total     
 -------------------------------------
      1   0.1036  -0.0230   0.0805
      2   0.1036  -0.0230   0.0805
      3   0.0337  -0.1904  -0.1567
      4   0.1679  -0.0491   0.1189
      5   0.1679  -0.0491   0.1189
      6   0.0337  -0.1904  -0.1567
      7   0.0337  -0.1904  -0.1567
      8   0.0337  -0.1904  -0.1567
      9   0.1679  -0.0491   0.1189
     10   0.1679  -0.0491   0.1189
     11  -0.0013  -0.0016  -0.0028
     12   0.0021  -0.0017   0.0004
     13   0.0021  -0.0017   0.0004
     14  -0.0013  -0.0016  -0.0028
     15  -0.0013  -0.0016  -0.0028
     16   0.0021  -0.0017   0.0004
     17   0.0021  -0.0017   0.0004
     18  -0.0013  -0.0016  -0.0028
  Sum:    1.0171  -1.0171   0.0000
 -------------------------------------
 
*** Unpaired Electrons
 Yamaguchi Nd:         2.10
  
**************************************************
 RAS-CI total energy for state   3:   -383.268158655731
  Excitation energy (eV) =  3.006413918905
  State symmetry: B3u   (D2h      )
  <S^2>      :  2.0000
  Dipole Moment:   -0.0000 X     0.0000 Y    -0.0000 Z
  Trans. Moment:    0.0000 X    -0.0000 Y    -0.0000 Z
  Strength   :  0.000000
  Natural transition orbitals ( 1 -> 3 ):
   e-/hole pair  1 alpha:  ampl =  0.119703 (  1.4%)   [12 : 13]
   e-/hole pair  2 alpha:  ampl =  0.048691 (  0.2%)   [11 : 14]
   e-/hole pair  1 beta :  ampl =  0.983385 ( 96.7%)   [12 : 13]
   e-/hole pair  2 beta :  ampl =  0.005906 (  0.0%)   [11 : 14]
   Sum of square amplitudes: 0.98

 NATURAL OCCUPATION NUMBERS (higher than 1.0E-05)
            1           2           3           4           5           6
    1   2.0000000   2.0000000   2.0000000   2.0000000   2.0000000   2.0000000
            7           8           9          10          11          12
    1   2.0000000   2.0000000   2.0000000   2.0000000   2.0000000   2.0000000
           13          14          15          16          17          18
    1   2.0000000   2.0000000   2.0000000   2.0000000   2.0000000   2.0000000
           19          20          21          22          23          24
    1   2.0000000   2.0000000   2.0000000   2.0000000   2.0000000   2.0000000
           25          26          27          28          29          30
    1   2.0000000   2.0000000   2.0000000   2.0000000   1.9998656   1.9998651
           31          32          33          34          35          36
    1   1.9998153   1.9997823   1.9738555   1.0108548   0.9891489   0.0260971
           37          38          39          40
    1   0.0003540   0.0001946   0.0001283   0.0000384

 Head-Gordon Nu:    2.03
 Head-Gordon Nu_nl: 2.00

  Amplitudes : 
  
 | HOLE  | ALPHA        | BETA         | PART  |    AMPLITUDE 
--------------------------------------------------
 |       | 111111100000 | 111101000000 |       |     9.8833399544605E-01
 |       | 111111010000 | 111110000000 |       |    -1.2029858314216E-01
--------------------------------------------------
*** Contributions RASCI wfn    Active: 100.00
                                 Hole:   0.00
                                 Part:   0.00

      Mulliken population analysis 
 ---------------------------------------------------
   Atom    Charge (a.u.)   Spin (a.u.)  
 ---------------------------------------------------
   1  C    0.197741        0.161822 
   2  C    0.197741        0.161822 
   3  C   -0.318938        0.207691 
   4  C   -0.033516        0.209160 
   5  C   -0.033516        0.209160 
   6  C   -0.318938        0.207691 
   7  C   -0.318938        0.207691 
   8  C   -0.318938        0.207691 
   9  C   -0.033516        0.209160 
  10  C   -0.033517        0.209160 
  11  H    0.126463        0.001395 
  12  H    0.127121        0.000843 
  13  H    0.127121        0.000843 
  14  H    0.126463        0.001395 
  15  H    0.126463        0.001395 
  16  H    0.127121        0.000843 
  17  H    0.127121        0.000843 
  18  H    0.126463        0.001395 
 ---------------------------------------------------
   Sum:    0.000000        2.000000 
 ---------------------------------------------------
 
      Analysis of the transition density matrix (wrt ground state)
 -------------------------------------
   Atom      e-      h+     Total     
 -------------------------------------
      1  -0.0035   0.0011  -0.0024
      2  -0.0035   0.0011  -0.0024
      3  -0.0014   0.0058   0.0044
      4  -0.0052   0.0020  -0.0032
      5  -0.0052   0.0020  -0.0032
      6  -0.0014   0.0058   0.0044
      7  -0.0014   0.0058   0.0044
      8  -0.0014   0.0058   0.0044
      9  -0.0052   0.0020  -0.0032
     10  -0.0052   0.0020  -0.0032
     11  -0.0000   0.0000   0.0000
     12  -0.0001   0.0000  -0.0000
     13  -0.0001   0.0000  -0.0000
     14  -0.0000   0.0000   0.0000
     15  -0.0000   0.0000   0.0000
     16  -0.0001   0.0000  -0.0000
     17  -0.0001   0.0000  -0.0000
     18  -0.0000   0.0000   0.0000
  Sum:   -0.0335   0.0335  -0.0000
 -------------------------------------
 
      Analysis of the difference density matrix (wrt ground state)
 -------------------------------------
   Atom   Attach   Detach   Total     
 -------------------------------------
      1   0.0224  -0.1202  -0.0978
      2   0.0224  -0.1202  -0.0978
      3   0.1857  -0.0356   0.1502
      4   0.0581  -0.1618  -0.1037
      5   0.0581  -0.1618  -0.1037
      6   0.1857  -0.0356   0.1502
      7   0.1857  -0.0356   0.1502
      8   0.1857  -0.0356   0.1502
      9   0.0581  -0.1618  -0.1037
     10   0.0581  -0.1618  -0.1037
     11   0.0020   0.0022   0.0042
     12   0.0000  -0.0018  -0.0018
     13   0.0000  -0.0018  -0.0018
     14   0.0020   0.0022   0.0042
     15   0.0020   0.0022   0.0042
     16   0.0000  -0.0018  -0.0018
     17   0.0000  -0.0018  -0.0018
     18   0.0020   0.0022   0.0042
  Sum:    1.0283  -1.0283   0.0000
 -------------------------------------
 
*** Unpaired Electrons
 Yamaguchi Nd:         2.11
  
**************************************************
 RAS-CI total energy for state   4:   -383.221464910760
  Excitation energy (eV) =  4.277015365761
  State symmetry: B2u   (D2h      )
  <S^2>      :  2.0000
  Dipole Moment:   -0.0000 X     0.0000 Y    -0.0000 Z
  Trans. Moment:   -0.0000 X     0.0000 Y    -0.0000 Z
  Strength   :  0.000000
  Natural transition orbitals ( 1 -> 4 ):
   e-/hole pair  1 alpha:  ampl =  0.061994 (  0.4%)   [12 : 13]
   e-/hole pair  2 alpha:  ampl =  0.047997 (  0.2%)   [11 : 14]
   e-/hole pair  1 beta :  ampl =  0.061990 (  0.4%)   [12 : 13]
   e-/hole pair  2 beta :  ampl =  0.047988 (  0.2%)   [11 : 14]
   Sum of square amplitudes: 0.01

 NATURAL OCCUPATION NUMBERS (higher than 1.0E-05)
            1           2           3           4           5           6
    1   2.0000000   2.0000000   2.0000000   2.0000000   2.0000000   2.0000000
            7           8           9          10          11          12
    1   2.0000000   2.0000000   2.0000000   2.0000000   2.0000000   2.0000000
           13          14          15          16          17          18
    1   2.0000000   2.0000000   2.0000000   2.0000000   2.0000000   2.0000000
           19          20          21          22          23          24
    1   2.0000000   2.0000000   2.0000000   2.0000000   2.0000000   2.0000000
           25          26          27          28          29          30
    1   2.0000000   2.0000000   2.0000000   2.0000000   1.9998822   1.9998552
           31          32          33          34          35          36
    1   1.9998160   1.9998083   1.9054564   1.0020197   0.9980082   0.0945437
           37          38          39          40
    1   0.0003420   0.0001508   0.0000864   0.0000313

 Head-Gordon Nu:    2.19
 Head-Gordon Nu_nl: 2.06

  Amplitudes : 
  
 | HOLE  | ALPHA        | BETA         | PART  |    AMPLITUDE 
--------------------------------------------------
 |       | 111111010000 | 111101000000 |       |     9.7434308365270E-01
 |       | 111110110000 | 111100100000 |       |    -2.1053508990703E-01
--------------------------------------------------
*** Contributions RASCI wfn    Active: 100.00
                                 Hole:   0.00
                                 Part:   0.00

      Mulliken population analysis 
 ---------------------------------------------------
   Atom    Charge (a.u.)   Spin (a.u.)  
 ---------------------------------------------------
   1  C    0.116176        0.262545 
   2  C    0.116175        0.262545 
   3  C   -0.161691        0.025127 
   4  C   -0.152386        0.341385 
   5  C   -0.152386        0.341385 
   6  C   -0.161691        0.025127 
   7  C   -0.161691        0.025127 
   8  C   -0.161691        0.025127 
   9  C   -0.152386        0.341385 
  10  C   -0.152387        0.341385 
  11  H    0.129180        0.000178 
  12  H    0.126810        0.002037 
  13  H    0.126810        0.002037 
  14  H    0.129180        0.000178 
  15  H    0.129180        0.000178 
  16  H    0.126810        0.002037 
  17  H    0.126810        0.002037 
  18  H    0.129180        0.000178 
 ---------------------------------------------------
   Sum:    0.000000        2.000000 
 ---------------------------------------------------
 
      Analysis of the transition density matrix (wrt ground state)
 -------------------------------------
   Atom      e-      h+     Total     
 -------------------------------------
      1  -0.0010   0.0010   0.0000
      2  -0.0010   0.0010   0.0000
      3  -0.0011   0.0011   0.0000
      4  -0.0015   0.0015  -0.0000
      5  -0.0015   0.0015  -0.0000
      6  -0.0011   0.0011   0.0000
      7  -0.0011   0.0011   0.0000
      8  -0.0011   0.0011   0.0000
      9  -0.0015   0.0015  -0.0000
     10  -0.0015   0.0015  -0.0000
     11  -0.0000   0.0000  -0.0000
     12  -0.0000   0.0000   0.0000
     13  -0.0000   0.0000   0.0000
     14  -0.0000   0.0000  -0.0000
     15  -0.0000   0.0000  -0.0000
     16  -0.0000   0.0000   0.0000
     17  -0.0000   0.0000   0.0000
     18  -0.0000   0.0000  -0.0000
  Sum:   -0.0126   0.0126   0.0000
 -------------------------------------
 
      Analysis of the difference density matrix (wrt ground state)
 -------------------------------------
   Atom   Attach   Detach   Total     
 -------------------------------------
      1   0.1354  -0.1516  -0.0162
      2   0.1354  -0.1516  -0.0162
      3   0.1892  -0.1963  -0.0071
      4   0.2185  -0.2033   0.0152
      5   0.2185  -0.2033   0.0152
      6   0.1892  -0.1963  -0.0071
      7   0.1892  -0.1963  -0.0071
      8   0.1892  -0.1963  -0.0071
      9   0.2185  -0.2033   0.0152
     10   0.2185  -0.2033   0.0152
     11   0.0019  -0.0004   0.0015
     12   0.0009  -0.0024  -0.0015
     13   0.0009  -0.0024  -0.0015
     14   0.0019  -0.0004   0.0015
     15   0.0019  -0.0004   0.0015
     16   0.0009  -0.0024  -0.0015
     17   0.0009  -0.0024  -0.0015
     18   0.0019  -0.0004   0.0015
  Sum:    1.9129  -1.9129   0.0000
 -------------------------------------
 
*** Unpaired Electrons
 Yamaguchi Nd:         2.36
  
**************************************************
 RAS-CI total energy for state   5:   -383.161712848901
  Excitation energy (eV) =  5.902951693987
  State symmetry: Ag    (D2h      )
  <S^2>      :  6.0000
  Dipole Moment:   -0.0000 X     0.0000 Y    -0.0000 Z
  Trans. Moment:    0.0000 X    -0.0000 Y    -0.0000 Z
  Strength   :  0.000000
  Natural transition orbitals ( 1 -> 5 ):
   e-/hole pair  1 alpha:  ampl =  0.497363 ( 24.7%)   [12 : 13]
   e-/hole pair  2 alpha:  ampl =  0.035209 (  0.1%)   [11 : 14]
   e-/hole pair  1 beta :  ampl =  0.497363 ( 24.7%)   [12 : 13]
   e-/hole pair  2 beta :  ampl =  0.035209 (  0.1%)   [11 : 14]
   Sum of square amplitudes: 0.50

 NATURAL OCCUPATION NUMBERS (higher than 1.0E-05)
            1           2           3           4           5           6
    1   2.0000000   2.0000000   2.0000000   2.0000000   2.0000000   2.0000000
            7           8           9          10          11          12
    1   2.0000000   2.0000000   2.0000000   2.0000000   2.0000000   2.0000000
           13          14          15          16          17          18
    1   2.0000000   2.0000000   2.0000000   2.0000000   2.0000000   2.0000000
           19          20          21          22          23          24
    1   2.0000000   2.0000000   2.0000000   2.0000000   2.0000000   2.0000000
           25          26          27          28          29          30
    1   2.0000000   2.0000000   2.0000000   2.0000000   1.9999122   1.9999075
           31          32          33          34          35          36
    1   1.9999017   1.9998087   1.0000042   0.9999992   0.9999977   0.9999922
           37          38          39          40
    1   0.0002931   0.0001212   0.0000353   0.0000269

 Head-Gordon Nu:    4.00
 Head-Gordon Nu_nl: 4.00

  Amplitudes : 
  
 | HOLE  | ALPHA        | BETA         | PART  |    AMPLITUDE 
--------------------------------------------------
 |       | 111111100000 | 111100010000 |       |     4.9990372248341E-01
 |       | 111111010000 | 111100100000 |       |    -4.9990372248348E-01
 |       | 111110110000 | 111101000000 |       |     4.9990372248348E-01
 |       | 111101110000 | 111110000000 |       |    -4.9990372248347E-01
--------------------------------------------------
*** Contributions RASCI wfn    Active: 100.00
                                 Hole:   0.00
                                 Part:   0.00

      Mulliken population analysis 
 ---------------------------------------------------
   Atom    Charge (a.u.)   Spin (a.u.)  
 ---------------------------------------------------
   1  C    0.113394        0.146410 
   2  C    0.113393        0.146410 
   3  C   -0.163924        0.211226 
   4  C   -0.148935        0.213323 
   5  C   -0.148935        0.213323 
   6  C   -0.163924        0.211226 
   7  C   -0.163923        0.211226 
   8  C   -0.163924        0.211226 
   9  C   -0.148935        0.213323 
  10  C   -0.148936        0.213323 
  11  H    0.129308        0.001128 
  12  H    0.126854        0.001118 
  13  H    0.126854        0.001118 
  14  H    0.129308        0.001128 
  15  H    0.129308        0.001128 
  16  H    0.126854        0.001118 
  17  H    0.126854        0.001118 
  18  H    0.129308        0.001128 
 ---------------------------------------------------
   Sum:    0.000000        2.000000 
 ---------------------------------------------------
 
      Analysis of the transition density matrix (wrt ground state)
 -------------------------------------
   Atom      e-      h+     Total     
 -------------------------------------
      1  -0.0592   0.0710   0.0118
      2  -0.0592   0.0710   0.0118
      3  -0.0079   0.0055  -0.0024
      4  -0.0866   0.0835  -0.0031
      5  -0.0866   0.0835  -0.0031
      6  -0.0079   0.0055  -0.0024
      7  -0.0079   0.0055  -0.0024
      8  -0.0079   0.0055  -0.0024
      9  -0.0866   0.0835  -0.0031
     10  -0.0866   0.0835  -0.0031
     11  -0.0000   0.0000   0.0000
     12  -0.0009   0.0004  -0.0005
     13  -0.0009   0.0004  -0.0005
     14  -0.0000   0.0000   0.0000
     15  -0.0000   0.0000   0.0000
     16  -0.0009   0.0004  -0.0005
     17  -0.0009   0.0004  -0.0005
     18  -0.0000   0.0000   0.0000
  Sum:   -0.4998   0.4998  -0.0000
 -------------------------------------
 
      Analysis of the difference density matrix (wrt ground state)
 -------------------------------------
   Atom   Attach   Detach   Total     
 -------------------------------------
      1   0.1226  -0.1361  -0.0135
      2   0.1226  -0.1361  -0.0135
      3   0.0106  -0.0154  -0.0048
      4   0.1777  -0.1660   0.0118
      5   0.1777  -0.1660   0.0118
      6   0.0106  -0.0154  -0.0048
      7   0.0106  -0.0154  -0.0048
      8   0.0106  -0.0154  -0.0048
      9   0.1777  -0.1660   0.0118
     10   0.1777  -0.1660   0.0118
     11   0.0008   0.0005   0.0013
     12   0.0010  -0.0025  -0.0015
     13   0.0010  -0.0025  -0.0015
     14   0.0008   0.0005   0.0013
     15   0.0008   0.0005   0.0013
     16   0.0010  -0.0025  -0.0015
     17   0.0010  -0.0025  -0.0015
     18   0.0008   0.0005   0.0013
  Sum:    1.0056  -1.0056  -0.0000
 -------------------------------------
 
*** Unpaired Electrons
 Yamaguchi Nd:         4.00
  
**************************************************
 RAS-CI total energy for state   6:   -383.140925390480
  Excitation energy (eV) =  6.468607217284
  State symmetry: B1g   (D2h      )
  <S^2>      :  2.0000
  Dipole Moment:   -0.0000 X     0.0000 Y    -0.0000 Z
  Trans. Moment:   -0.1038 X    -0.0000 Y     0.0000 Z
  Strength   :  0.001707
  Natural transition orbitals ( 1 -> 6 ):
   e-/hole pair  1 alpha:  ampl =  0.671869 ( 45.1%)   [12 : 13]
   e-/hole pair  2 alpha:  ampl =  0.037958 (  0.1%)   [11 : 14]
   e-/hole pair  1 beta :  ampl =  0.723372 ( 52.3%)   [12 : 13]
   e-/hole pair  2 beta :  ampl =  0.035252 (  0.1%)   [11 : 14]
   Sum of square amplitudes: 0.98

 NATURAL OCCUPATION NUMBERS (higher than 1.0E-05)
            1           2           3           4           5           6
    1   2.0000000   2.0000000   2.0000000   2.0000000   2.0000000   2.0000000
            7           8           9          10          11          12
    1   2.0000000   2.0000000   2.0000000   2.0000000   2.0000000   2.0000000
           13          14          15          16          17          18
    1   2.0000000   2.0000000   2.0000000   2.0000000   2.0000000   2.0000000
           19          20          21          22          23          24
    1   2.0000000   2.0000000   2.0000000   2.0000000   2.0000000   2.0000000
           25          26          27          28          29          30
    1   2.0000000   2.0000000   2.0000000   2.0000000   1.9998260   1.9998011
           31          32          33          34          35          36
    1   1.9997957   1.9993950   1.5206163   1.4501341   0.5499544   0.4793424
           37          38          39          40
    1   0.0005877   0.0003383   0.0001297   0.0000794

 Head-Gordon Nu:    2.06
 Head-Gordon Nu_nl: 2.33

  Amplitudes : 
  
 | HOLE  | ALPHA        | BETA         | PART  |    AMPLITUDE 
--------------------------------------------------
 |       | 111111100000 | 111100100000 |       |     7.2703418083477E-01
 |       | 111110110000 | 111110000000 |       |    -6.7522818016323E-01
--------------------------------------------------
*** Contributions RASCI wfn    Active: 100.00
                                 Hole:   0.00
                                 Part:   0.00

      Mulliken population analysis 
 ---------------------------------------------------
   Atom    Charge (a.u.)   Spin (a.u.)  
 ---------------------------------------------------
   1  C    0.112253        0.147004 
   2  C    0.112253        0.147004 
   3  C   -0.179057        0.211182 
   4  C   -0.133187        0.213102 
   5  C   -0.133187        0.213102 
   6  C   -0.179057        0.211182 
   7  C   -0.179056        0.211182 
   8  C   -0.179057        0.211182 
   9  C   -0.133186        0.213102 
  10  C   -0.133187        0.213102 
  11  H    0.129850        0.001122 
  12  H    0.126267        0.001091 
  13  H    0.126267        0.001091 
  14  H    0.129850        0.001122 
  15  H    0.129850        0.001122 
  16  H    0.126267        0.001091 
  17  H    0.126267        0.001091 
  18  H    0.129850        0.001122 
 ---------------------------------------------------
   Sum:    0.000000        2.000000 
 ---------------------------------------------------
 
      Analysis of the transition density matrix (wrt ground state)
 -------------------------------------
   Atom      e-      h+     Total     
 -------------------------------------
      1  -0.1073   0.0109  -0.0964
      2  -0.1073   0.0109  -0.0964
      3  -0.0140   0.1805   0.1665
      4  -0.1571   0.0393  -0.1178
      5  -0.1571   0.0393  -0.1178
      6  -0.0140   0.1805   0.1665
      7  -0.0140   0.1805   0.1665
      8  -0.0140   0.1805   0.1665
      9  -0.1571   0.0393  -0.1178
     10  -0.1571   0.0393  -0.1178
     11  -0.0000   0.0010   0.0010
     12  -0.0016   0.0002  -0.0015
     13  -0.0016   0.0002  -0.0015
     14  -0.0000   0.0010   0.0010
     15  -0.0000   0.0010   0.0010
     16  -0.0016   0.0002  -0.0015
     17  -0.0016   0.0002  -0.0015
     18  -0.0000   0.0010   0.0010
  Sum:   -0.9058   0.9058  -0.0000
 -------------------------------------
 
      Analysis of the difference density matrix (wrt ground state)
 -------------------------------------
   Atom   Attach   Detach   Total     
 -------------------------------------
      1   0.0669  -0.0792  -0.0123
      2   0.0669  -0.0792  -0.0123
      3   0.1086  -0.0983   0.0103
      4   0.1050  -0.1090  -0.0040
      5   0.1050  -0.1090  -0.0040
      6   0.1086  -0.0983   0.0103
      7   0.1086  -0.0983   0.0103
      8   0.1086  -0.0983   0.0103
      9   0.1050  -0.1090  -0.0040
     10   0.1050  -0.1090  -0.0040
     11   0.0010  -0.0002   0.0008
     12   0.0007  -0.0016  -0.0009
     13   0.0007  -0.0016  -0.0009
     14   0.0010  -0.0002   0.0008
     15   0.0010  -0.0002   0.0008
     16   0.0007  -0.0016  -0.0009
     17   0.0007  -0.0016  -0.0009
     18   0.0010  -0.0002   0.0008
  Sum:    0.9952  -0.9952  -0.0000
 -------------------------------------
 
*** Unpaired Electrons
 Yamaguchi Nd:         3.06
  
**************************************************
 RAS-CI total energy for state   7:   -383.103299224402
  Excitation energy (eV) =  7.492467288631
  State symmetry: B1g   (D2h      )
  <S^2>      :  2.0000
  Dipole Moment:   -0.0000 X     0.0000 Y    -0.0000 Z
  Trans. Moment:   -2.5176 X    -0.0000 Y     0.0000 Z
  Strength   :  1.163474
  Natural transition orbitals ( 1 -> 7 ):
   e-/hole pair  1 alpha:  ampl =  0.710376 ( 50.5%)   [12 : 13]
   e-/hole pair  2 alpha:  ampl =  0.034803 (  0.1%)   [11 : 14]
   e-/hole pair  1 beta :  ampl =  0.665671 ( 44.3%)   [12 : 13]
   e-/hole pair  2 beta :  ampl =  0.037159 (  0.1%)   [11 : 14]
   Sum of square amplitudes: 0.95

 NATURAL OCCUPATION NUMBERS (higher than 1.0E-05)
            1           2           3           4           5           6
    1   2.0000000   2.0000000   2.0000000   2.0000000   2.0000000   2.0000000
            7           8           9          10          11          12
    1   2.0000000   2.0000000   2.0000000   2.0000000   2.0000000   2.0000000
           13          14          15          16          17          18
    1   2.0000000   2.0000000   2.0000000   2.0000000   2.0000000   2.0000000
           19          20          21          22          23          24
    1   2.0000000   2.0000000   2.0000000   2.0000000   2.0000000   2.0000000
           25          26          27          28          29          30
    1   2.0000000   2.0000000   2.0000000   2.0000000   1.9998046   1.9996978
           31          32          33          34          35          36
    1   1.9995674   1.9993363   1.4937066   1.4231180   0.5766231   0.5065207
           37          38          39          40
    1   0.0007599   0.0005356   0.0001883   0.0001418

 Head-Gordon Nu:    2.17
 Head-Gordon Nu_nl: 2.49

  Amplitudes : 
  
 | HOLE  | ALPHA        | BETA         | PART  |    AMPLITUDE 
--------------------------------------------------
 |       | 111111100000 | 111100100000 |       |     6.6898518843088E-01
 |       | 111111010000 | 111100010000 |       |    -1.5770187866516E-01
 |       | 111110110000 | 111110000000 |       |     7.1386019244367E-01
 |       | 111101110000 | 111101000000 |       |    -1.2871511919148E-01
--------------------------------------------------
*** Contributions RASCI wfn    Active: 100.00
                                 Hole:   0.00
                                 Part:   0.00

      Mulliken population analysis 
 ---------------------------------------------------
   Atom    Charge (a.u.)   Spin (a.u.)  
 ---------------------------------------------------
   1  C    0.099994        0.145900 
   2  C    0.099994        0.145900 
   3  C   -0.156137        0.211335 
   4  C   -0.150364        0.213539 
   5  C   -0.150364        0.213539 
   6  C   -0.156137        0.211335 
   7  C   -0.156137        0.211335 
   8  C   -0.156138        0.211335 
   9  C   -0.150364        0.213539 
  10  C   -0.150365        0.213539 
  11  H    0.130469        0.001130 
  12  H    0.126036        0.001047 
  13  H    0.126036        0.001047 
  14  H    0.130469        0.001130 
  15  H    0.130469        0.001130 
  16  H    0.126036        0.001047 
  17  H    0.126036        0.001047 
  18  H    0.130469        0.001130 
 ---------------------------------------------------
   Sum:    0.000000        2.000000 
 ---------------------------------------------------
 
      Analysis of the transition density matrix (wrt ground state)
 -------------------------------------
   Atom      e-      h+     Total     
 -------------------------------------
      1  -0.1198   0.0121  -0.1077
      2  -0.1198   0.0121  -0.1077
      3  -0.0156   0.2019   0.1863
      4  -0.1757   0.0439  -0.1318
      5  -0.1757   0.0439  -0.1318
      6  -0.0156   0.2019   0.1863
      7  -0.0156   0.2019   0.1863
      8  -0.0156   0.2019   0.1863
      9  -0.1757   0.0439  -0.1318
     10  -0.1757   0.0439  -0.1318
     11   0.0000   0.0011   0.0011
     12  -0.0018   0.0002  -0.0016
     13  -0.0018   0.0002  -0.0016
     14   0.0000   0.0011   0.0011
     15   0.0000   0.0011   0.0011
     16  -0.0018   0.0002  -0.0016
     17  -0.0018   0.0002  -0.0016
     18   0.0000   0.0011   0.0011
  Sum:   -1.0124   1.0124  -0.0000
 -------------------------------------
 
      Analysis of the difference density matrix (wrt ground state)
 -------------------------------------
   Atom   Attach   Detach   Total     
 -------------------------------------
      1   0.0759  -0.0760  -0.0001
      2   0.0759  -0.0760  -0.0001
      3   0.0914  -0.1041  -0.0126
      4   0.1170  -0.1038   0.0132
      5   0.1170  -0.1038   0.0132
      6   0.0914  -0.1041  -0.0126
      7   0.0914  -0.1041  -0.0126
      8   0.0914  -0.1041  -0.0126
      9   0.1170  -0.1038   0.0132
     10   0.1170  -0.1038   0.0132
     11   0.0007  -0.0006   0.0002
     12   0.0008  -0.0015  -0.0007
     13   0.0008  -0.0015  -0.0007
     14   0.0007  -0.0006   0.0002
     15   0.0007  -0.0006   0.0002
     16   0.0008  -0.0015  -0.0007
     17   0.0008  -0.0015  -0.0007
     18   0.0007  -0.0006   0.0002
  Sum:    0.9918  -0.9918  -0.0000
 -------------------------------------
 
*** Unpaired Electrons
 Yamaguchi Nd:         3.16
  
**************************************************
 RAS-CI total energy for state   8:   -383.095694022011
  Excitation energy (eV) =  7.699415374883
  State symmetry: Ag    (D2h      )
  <S^2>      :  2.0000
  Dipole Moment:   -0.0000 X     0.0000 Y    -0.0000 Z
  Trans. Moment:   -0.0000 X     0.1693 Y    -0.0000 Z
  Strength   :  0.005404
  Natural transition orbitals ( 1 -> 8 ):
   e-/hole pair  1 alpha:  ampl =  0.430755 ( 18.6%)   [12 : 13]
   e-/hole pair  2 alpha:  ampl =  0.039613 (  0.2%)   [11 : 14]
   e-/hole pair  1 beta :  ampl =  0.559682 ( 31.3%)   [12 : 13]
   e-/hole pair  2 beta :  ampl =  0.030494 (  0.1%)   [11 : 14]
   Sum of square amplitudes: 0.50

 NATURAL OCCUPATION NUMBERS (higher than 1.0E-05)
            1           2           3           4           5           6
    1   2.0000000   2.0000000   2.0000000   2.0000000   2.0000000   2.0000000
            7           8           9          10          11          12
    1   2.0000000   2.0000000   2.0000000   2.0000000   2.0000000   2.0000000
           13          14          15          16          17          18
    1   2.0000000   2.0000000   2.0000000   2.0000000   2.0000000   2.0000000
           19          20          21          22          23          24
    1   2.0000000   2.0000000   2.0000000   2.0000000   2.0000000   2.0000000
           25          26          27          28          29          30
    1   2.0000000   2.0000000   2.0000000   2.0000000   1.9998871   1.9998089
           31          32          33          34          35          36
    1   1.9998056   1.9996633   1.0000983   1.0000631   0.9999499   0.9999042
           37          38          39          40
    1   0.0004752   0.0001782   0.0001223   0.0000441

 Head-Gordon Nu:    4.00
 Head-Gordon Nu_nl: 4.00

  Amplitudes : 
  
 | HOLE  | ALPHA        | BETA         | PART  |    AMPLITUDE 
--------------------------------------------------
 |       | 111111100000 | 111100010000 |       |     5.6248506607712E-01
 |       | 111111010000 | 111100100000 |       |     5.0335399277873E-01
 |       | 111110110000 | 111101000000 |       |    -4.9204031397004E-01
 |       | 111101110000 | 111110000000 |       |    -4.3290924067175E-01
--------------------------------------------------
*** Contributions RASCI wfn    Active: 100.00
                                 Hole:   0.00
                                 Part:   0.00

      Mulliken population analysis 
 ---------------------------------------------------
   Atom    Charge (a.u.)   Spin (a.u.)  
 ---------------------------------------------------
   1  C    0.113593        0.148458 
   2  C    0.113593        0.148458 
   3  C   -0.163565        0.212265 
   4  C   -0.149480        0.211292 
   5  C   -0.149480        0.211292 
   6  C   -0.163565        0.212265 
   7  C   -0.163565        0.212265 
   8  C   -0.163566        0.212265 
   9  C   -0.149480        0.211292 
  10  C   -0.149481        0.211292 
  11  H    0.129428        0.001164 
  12  H    0.126821        0.001049 
  13  H    0.126821        0.001049 
  14  H    0.129428        0.001164 
  15  H    0.129428        0.001164 
  16  H    0.126821        0.001049 
  17  H    0.126821        0.001049 
  18  H    0.129428        0.001164 
 ---------------------------------------------------
   Sum:    0.000000        2.000000 
 ---------------------------------------------------
 
      Analysis of the transition density matrix (wrt ground state)
 -------------------------------------
   Atom      e-      h+     Total     
 -------------------------------------
      1  -0.0446   0.0534   0.0089
      2  -0.0446   0.0534   0.0089
      3  -0.0061   0.0043  -0.0018
      4  -0.0652   0.0629  -0.0023
      5  -0.0652   0.0629  -0.0023
      6  -0.0061   0.0043  -0.0018
      7  -0.0061   0.0043  -0.0018
      8  -0.0061   0.0043  -0.0018
      9  -0.0652   0.0629  -0.0023
     10  -0.0652   0.0629  -0.0023
     11  -0.0000   0.0000   0.0000
     12  -0.0007   0.0003  -0.0004
     13  -0.0007   0.0003  -0.0004
     14  -0.0000   0.0000   0.0000
     15  -0.0000   0.0000   0.0000
     16  -0.0007   0.0003  -0.0004
     17  -0.0007   0.0003  -0.0004
     18  -0.0000   0.0000   0.0000
  Sum:   -0.3768   0.3768  -0.0000
 -------------------------------------
 
      Analysis of the difference density matrix (wrt ground state)
 -------------------------------------
   Atom   Attach   Detach   Total     
 -------------------------------------
      1   0.1227  -0.1364  -0.0137
      2   0.1227  -0.1364  -0.0137
      3   0.0103  -0.0155  -0.0052
      4   0.1780  -0.1657   0.0123
      5   0.1780  -0.1657   0.0123
      6   0.0103  -0.0155  -0.0052
      7   0.0103  -0.0155  -0.0052
      8   0.0103  -0.0155  -0.0052
      9   0.1780  -0.1657   0.0123
     10   0.1780  -0.1657   0.0123
     11   0.0007   0.0005   0.0012
     12   0.0008  -0.0023  -0.0015
     13   0.0008  -0.0023  -0.0015
     14   0.0007   0.0005   0.0012
     15   0.0007   0.0005   0.0012
     16   0.0008  -0.0023  -0.0015
     17   0.0008  -0.0023  -0.0015
     18   0.0007   0.0005   0.0012
  Sum:    1.0050  -1.0050  -0.0000
 -------------------------------------
 
*** Unpaired Electrons
 Yamaguchi Nd:         4.00
  
**************************************************
 RAS-CI total energy for state   9:   -383.078635664098
  Excitation energy (eV) =  8.163596910529
  State symmetry: B2g   (D2h      )
  <S^2>      :  2.0000
  Dipole Moment:    0.0000 X     0.0000 Y    -0.0000 Z
  Trans. Moment:    0.0000 X    -0.0000 Y     0.0000 Z
  Strength   :  0.000000
  Natural transition orbitals ( 1 -> 9 ):
   e-/hole pair  1 alpha:  ampl =  0.989522 ( 97.9%)   [12 : 13]
   e-/hole pair  2 alpha:  ampl =  0.078688 (  0.6%)   [11 : 14]
   e-/hole pair  1 beta :  ampl =  0.003670 (  0.0%)   [12 : 13]
   e-/hole pair  2 beta :  ampl =  0.001150 (  0.0%)   [11 : 14]
   Sum of square amplitudes: 0.99

 NATURAL OCCUPATION NUMBERS (higher than 1.0E-05)
            1           2           3           4           5           6
    1   2.0000000   2.0000000   2.0000000   2.0000000   2.0000000   2.0000000
            7           8           9          10          11          12
    1   2.0000000   2.0000000   2.0000000   2.0000000   2.0000000   2.0000000
           13          14          15          16          17          18
    1   2.0000000   2.0000000   2.0000000   2.0000000   2.0000000   2.0000000
           19          20          21          22          23          24
    1   2.0000000   2.0000000   2.0000000   2.0000000   2.0000000   2.0000000
           25          26          27          28          29          30
    1   2.0000000   2.0000000   2.0000000   2.0000000   1.9998567   1.9998047
           31          32          33          34          35          36
    1   1.9997879   1.9997619   1.9758206   0.9933242   0.9832510   0.0221007
           37          38          39          40
    1   0.0189377   0.0067525   0.0003935   0.0002085

 Head-Gordon Nu:    2.05
 Head-Gordon Nu_nl: 2.01

  Amplitudes : 
  
 | HOLE  | ALPHA        | BETA         | PART  |    AMPLITUDE 
--------------------------------------------------
 |       | 111111001000 | 111110000000 |       |     9.8778059463117E-01
--------------------------------------------------
*** Contributions RASCI wfn    Active: 100.00
                                 Hole:   0.00
                                 Part:   0.00

      Mulliken population analysis 
 ---------------------------------------------------
   Atom    Charge (a.u.)   Spin (a.u.)  
 ---------------------------------------------------
   1  C    2.749388       -2.621688 
   2  C    2.749387       -2.621688 
   3  C   -1.457802        1.687270 
   4  C   -0.529714        0.477111 
   5  C   -0.529713        0.477111 
   6  C   -1.457802        1.687270 
   7  C   -1.457802        1.687270 
   8  C   -1.457803        1.687270 
   9  C   -0.529713        0.477111 
  10  C   -0.529714        0.477111 
  11  H    0.503265       -0.371303 
  12  H    0.109558        0.017766 
  13  H    0.109557        0.017766 
  14  H    0.503265       -0.371303 
  15  H    0.503265       -0.371303 
  16  H    0.109557        0.017766 
  17  H    0.109557        0.017766 
  18  H    0.503265       -0.371303 
 ---------------------------------------------------
   Sum:    0.000000        2.000000 
 ---------------------------------------------------
 
      Analysis of the transition density matrix (wrt ground state)
 -------------------------------------
   Atom      e-      h+     Total     
 -------------------------------------
      1   5.1886   0.0377   5.2263
      2   5.1886   0.0377   5.2263
      3  -2.9286   0.3891  -2.5395
      4  -0.8574   0.0814  -0.7760
      5  -0.8574   0.0814  -0.7760
      6  -2.9286   0.3891  -2.5395
      7  -2.9286   0.3891  -2.5395
      8  -2.9286   0.3891  -2.5395
      9  -0.8574   0.0814  -0.7760
     10  -0.8574   0.0814  -0.7760
     11   0.7337   0.0026   0.7362
     12  -0.0347   0.0008  -0.0339
     13  -0.0347   0.0008  -0.0339
     14   0.7337   0.0026   0.7362
     15   0.7337   0.0026   0.7362
     16  -0.0347   0.0008  -0.0339
     17  -0.0347   0.0008  -0.0339
     18   0.7337   0.0026   0.7362
  Sum:   -1.9707   1.9707  -0.0000
 -------------------------------------
 
      Analysis of the difference density matrix (wrt ground state)
 -------------------------------------
   Atom   Attach   Detach   Total     
 -------------------------------------
      1  -2.6280  -0.0214  -2.6495
      2  -2.6280  -0.0214  -2.6495
      3   1.4845  -0.1954   1.2890
      4   0.4382  -0.0457   0.3925
      5   0.4382  -0.0457   0.3925
      6   1.4845  -0.1954   1.2890
      7   1.4845  -0.1954   1.2890
      8   1.4845  -0.1954   1.2890
      9   0.4382  -0.0457   0.3925
     10   0.4382  -0.0457   0.3925
     11  -0.3712  -0.0014  -0.3726
     12   0.0178  -0.0020   0.0158
     13   0.0178  -0.0020   0.0158
     14  -0.3712  -0.0014  -0.3726
     15  -0.3712  -0.0014  -0.3726
     16   0.0178  -0.0020   0.0158
     17   0.0178  -0.0020   0.0158
     18  -0.3712  -0.0014  -0.3726
  Sum:    1.0209  -1.0209   0.0000
 -------------------------------------
 
*** Unpaired Electrons
 Yamaguchi Nd:         2.14
  
**************************************************
 RAS-CI total energy for state  10:   -383.061579060354
  Excitation energy (eV) =  8.627730712775
  State symmetry: B3g   (D2h      )
  <S^2>      :  2.0000
  Dipole Moment:   -0.0000 X    -0.0000 Y    -0.0000 Z
  Trans. Moment:   -0.0000 X     0.0000 Y    -0.0455 Z
  Strength   :  0.000438
  Natural transition orbitals ( 1 -> 10 ):
   e-/hole pair  1 alpha:  ampl =  0.005806 (  0.0%)   [12 : 13]
   e-/hole pair  2 alpha:  ampl =  0.001698 (  0.0%)   [11 : 14]
   e-/hole pair  1 beta :  ampl =  0.979717 ( 96.0%)   [12 : 13]
   e-/hole pair  2 beta :  ampl =  0.158655 (  2.5%)   [11 : 14]
   Sum of square amplitudes: 0.99

 NATURAL OCCUPATION NUMBERS (higher than 1.0E-05)
            1           2           3           4           5           6
    1   2.0000000   2.0000000   2.0000000   2.0000000   2.0000000   2.0000000
            7           8           9          10          11          12
    1   2.0000000   2.0000000   2.0000000   2.0000000   2.0000000   2.0000000
           13          14          15          16          17          18
    1   2.0000000   2.0000000   2.0000000   2.0000000   2.0000000   2.0000000
           19          20          21          22          23          24
    1   2.0000000   2.0000000   2.0000000   2.0000000   2.0000000   2.0000000
           25          26          27          28          29          30
    1   2.0000000   2.0000000   2.0000000   2.0000000   1.9997383   1.9995624
           31          32          33          34          35          36
    1   1.9799002   1.9709835   1.9622467   1.0337751   1.0292105   0.0237066
           37          38          39          40
    1   0.0003633   0.0002747   0.0001238   0.0001150

 Head-Gordon Nu:    2.05
 Head-Gordon Nu_nl: 2.01

  Amplitudes : 
  
 | HOLE  | ALPHA        | BETA         | PART  |    AMPLITUDE 
--------------------------------------------------
 |       | 111111100000 | 111011000000 |       |     9.7799998670125E-01
 |       | 111111100000 | 011110100000 |       |    -1.5792478790278E-01
--------------------------------------------------
*** Contributions RASCI wfn    Active: 100.00
                                 Hole:   0.00
                                 Part:   0.00

      Mulliken population analysis 
 ---------------------------------------------------
   Atom    Charge (a.u.)   Spin (a.u.)  
 ---------------------------------------------------
   1  C    0.158229        0.082505 
   2  C    0.158228        0.082505 
   3  C   -0.246751        0.326193 
   4  C   -0.164365        0.055306 
   5  C   -0.164365        0.055306 
   6  C   -0.246751        0.326193 
   7  C   -0.246751        0.326193 
   8  C   -0.246751        0.326193 
   9  C   -0.164365        0.055306 
  10  C   -0.164366        0.055306 
  11  H    0.203760        0.074344 
  12  H    0.128242        0.002904 
  13  H    0.128242        0.002904 
  14  H    0.203760        0.074344 
  15  H    0.203760        0.074344 
  16  H    0.128242        0.002904 
  17  H    0.128242        0.002904 
  18  H    0.203760        0.074344 
 ---------------------------------------------------
   Sum:    0.000000        2.000000 
 ---------------------------------------------------
 
      Analysis of the transition density matrix (wrt ground state)
 -------------------------------------
   Atom      e-      h+     Total     
 -------------------------------------
      1  -0.0000   0.0000  -0.0000
      2  -0.0000   0.0000  -0.0000
      3   0.0000  -0.0000   0.0000
      4  -0.0000   0.0000  -0.0000
      5  -0.0000   0.0000  -0.0000
      6   0.0000  -0.0000   0.0000
      7   0.0000  -0.0000   0.0000
      8   0.0000  -0.0000   0.0000
      9  -0.0000   0.0000  -0.0000
     10  -0.0000   0.0000  -0.0000
     11   0.0000  -0.0000   0.0000
     12   0.0000  -0.0000   0.0000
     13   0.0000  -0.0000   0.0000
     14   0.0000  -0.0000   0.0000
     15   0.0000  -0.0000   0.0000
     16   0.0000  -0.0000   0.0000
     17   0.0000  -0.0000   0.0000
     18   0.0000  -0.0000   0.0000
  Sum:   -0.0001   0.0001   0.0000
 -------------------------------------
 
      Analysis of the difference density matrix (wrt ground state)
 -------------------------------------
   Atom   Attach   Detach   Total     
 -------------------------------------
      1   0.0082  -0.0664  -0.0583
      2   0.0082  -0.0664  -0.0583
      3   0.2055  -0.1275   0.0780
      4   0.0442  -0.0170   0.0272
      5   0.0442  -0.0170   0.0272
      6   0.2055  -0.1275   0.0780
      7   0.2055  -0.1275   0.0780
      8   0.2055  -0.1275   0.0780
      9   0.0442  -0.0170   0.0272
     10   0.0442  -0.0170   0.0272
     11   0.0002  -0.0733  -0.0731
     12   0.0003  -0.0032  -0.0029
     13   0.0003  -0.0032  -0.0029
     14   0.0002  -0.0733  -0.0731
     15   0.0002  -0.0733  -0.0731
     16   0.0003  -0.0032  -0.0029
     17   0.0003  -0.0032  -0.0029
     18   0.0002  -0.0733  -0.0731
  Sum:    1.0169  -1.0169   0.0000
 -------------------------------------
 
*** Unpaired Electrons
 Yamaguchi Nd:         2.22
  
**************************************************
 RAS-CI total energy for state  11:   -383.053039372416
  Excitation energy (eV) =  8.860107444533
  State symmetry: Ag    (D2h      )
  <S^2>      :  2.0000
  Dipole Moment:   -0.0000 X     0.0000 Y    -0.0000 Z
  Trans. Moment:   -0.0000 X     1.7505 Y    -0.0000 Z
  Strength   :  0.665129
  Natural transition orbitals ( 1 -> 11 ):
   e-/hole pair  1 alpha:  ampl =  0.711856 ( 50.7%)   [12 : 13]
   e-/hole pair  2 alpha:  ampl =  0.044042 (  0.2%)   [11 : 14]
   e-/hole pair  1 beta :  ampl =  0.622580 ( 38.8%)   [12 : 13]
   e-/hole pair  2 beta :  ampl =  0.050360 (  0.3%)   [11 : 14]
   Sum of square amplitudes: 0.90

 NATURAL OCCUPATION NUMBERS (higher than 1.0E-05)
            1           2           3           4           5           6
    1   2.0000000   2.0000000   2.0000000   2.0000000   2.0000000   2.0000000
            7           8           9          10          11          12
    1   2.0000000   2.0000000   2.0000000   2.0000000   2.0000000   2.0000000
           13          14          15          16          17          18
    1   2.0000000   2.0000000   2.0000000   2.0000000   2.0000000   2.0000000
           19          20          21          22          23          24
    1   2.0000000   2.0000000   2.0000000   2.0000000   2.0000000   2.0000000
           25          26          27          28          29          30
    1   2.0000000   2.0000000   2.0000000   2.0000000   1.9998601   1.9998470
           31          32          33          34          35          36
    1   1.9998237   1.9997202   1.0001064   1.0000277   0.9999782   0.9998932
           37          38          39          40
    1   0.0003372   0.0001802   0.0001642   0.0000618

 Head-Gordon Nu:    4.00
 Head-Gordon Nu_nl: 4.00

  Amplitudes : 
  
 | HOLE  | ALPHA        | BETA         | PART  |    AMPLITUDE 
--------------------------------------------------
 |       | 111111100000 | 111100010000 |       |     6.2572777984948E-01
 |       | 111111010000 | 111100100000 |       |     1.6953102740865E-01
 |       | 111110110000 | 111101000000 |       |     2.5924604241471E-01
 |       | 111101110000 | 111110000000 |       |     7.1544279485546E-01
--------------------------------------------------
*** Contributions RASCI wfn    Active: 100.00
                                 Hole:   0.00
                                 Part:   0.00

      Mulliken population analysis 
 ---------------------------------------------------
   Atom    Charge (a.u.)   Spin (a.u.)  
 ---------------------------------------------------
   1  C    0.113792        0.048791 
   2  C    0.113791        0.048791 
   3  C   -0.163972        0.363814 
   4  C   -0.149262        0.109510 
   5  C   -0.149262        0.109510 
   6  C   -0.163972        0.363814 
   7  C   -0.163971        0.363814 
   8  C   -0.163972        0.363814 
   9  C   -0.149262        0.109510 
  10  C   -0.149263        0.109510 
  11  H    0.129356        0.001878 
  12  H    0.126982        0.000403 
  13  H    0.126982        0.000403 
  14  H    0.129356        0.001878 
  15  H    0.129356        0.001878 
  16  H    0.126982        0.000403 
  17  H    0.126982        0.000403 
  18  H    0.129356        0.001878 
 ---------------------------------------------------
   Sum:    0.000000        2.000000 
 ---------------------------------------------------
 
      Analysis of the transition density matrix (wrt ground state)
 -------------------------------------
   Atom      e-      h+     Total     
 -------------------------------------
      1  -0.1208   0.1453   0.0245
      2  -0.1208   0.1453   0.0245
      3  -0.0153   0.0104  -0.0050
      4  -0.1769   0.1706  -0.0063
      5  -0.1769   0.1706  -0.0063
      6  -0.0153   0.0104  -0.0050
      7  -0.0153   0.0104  -0.0050
      8  -0.0153   0.0104  -0.0050
      9  -0.1769   0.1706  -0.0063
     10  -0.1769   0.1706  -0.0063
     11   0.0000   0.0000   0.0000
     12  -0.0018   0.0008  -0.0010
     13  -0.0018   0.0008  -0.0010
     14   0.0000   0.0000   0.0000
     15   0.0000   0.0000   0.0000
     16  -0.0018   0.0008  -0.0010
     17  -0.0018   0.0008  -0.0010
     18   0.0000   0.0000   0.0000
  Sum:   -1.0179   1.0179  -0.0000
 -------------------------------------
 
      Analysis of the difference density matrix (wrt ground state)
 -------------------------------------
   Atom   Attach   Detach   Total     
 -------------------------------------
      1   0.1223  -0.1362  -0.0139
      2   0.1223  -0.1362  -0.0139
      3   0.0107  -0.0155  -0.0048
      4   0.1779  -0.1659   0.0121
      5   0.1779  -0.1659   0.0121
      6   0.0107  -0.0155  -0.0048
      7   0.0107  -0.0155  -0.0048
      8   0.0107  -0.0155  -0.0048
      9   0.1779  -0.1659   0.0121
     10   0.1779  -0.1659   0.0121
     11   0.0008   0.0005   0.0013
     12   0.0008  -0.0025  -0.0016
     13   0.0008  -0.0025  -0.0016
     14   0.0008   0.0005   0.0013
     15   0.0008   0.0005   0.0013
     16   0.0008  -0.0025  -0.0016
     17   0.0008  -0.0025  -0.0016
     18   0.0008   0.0005   0.0013
  Sum:    1.0056  -1.0056  -0.0000
 -------------------------------------
 
*** Unpaired Electrons
 Yamaguchi Nd:         4.00
  
**************************************************
 RAS-CI total energy for state  12:   -383.008773443688
  Excitation energy (eV) = 10.064644650167
  State symmetry: Au    (D2h      )
  <S^2>      :  2.0000
  Dipole Moment:    0.0000 X    -0.0000 Y    -0.0000 Z
  Trans. Moment:   -0.0000 X     0.0000 Y    -0.0000 Z
  Strength   :  0.000000
  Natural transition orbitals ( 1 -> 12 ):
   e-/hole pair  1 alpha:  ampl =  0.967759 ( 93.7%)   [12 : 13]
   e-/hole pair  2 alpha:  ampl =  0.223230 (  5.0%)   [11 : 14]
   e-/hole pair  1 beta :  ampl =  0.003306 (  0.0%)   [12 : 13]
   e-/hole pair  2 beta :  ampl =  0.000800 (  0.0%)   [11 : 14]
   Sum of square amplitudes: 0.99

 NATURAL OCCUPATION NUMBERS (higher than 1.0E-05)
            1           2           3           4           5           6
    1   2.0000000   2.0000000   2.0000000   2.0000000   2.0000000   2.0000000
            7           8           9          10          11          12
    1   2.0000000   2.0000000   2.0000000   2.0000000   2.0000000   2.0000000
           13          14          15          16          17          18
    1   2.0000000   2.0000000   2.0000000   2.0000000   2.0000000   2.0000000
           19          20          21          22          23          24
    1   2.0000000   2.0000000   2.0000000   2.0000000   2.0000000   2.0000000
           25          26          27          28          29          30
    1   2.0000000   2.0000000   2.0000000   2.0000000   1.9998631   1.9997993
           31          32          33          34          35          36
    1   1.9997700   1.9997517   1.9766717   0.9497542   0.9405314   0.0648085
           37          38          39          40
    1   0.0502369   0.0181522   0.0004666   0.0001944

 Head-Gordon Nu:    2.05
 Head-Gordon Nu_nl: 2.02

  Amplitudes : 
  
 | HOLE  | ALPHA        | BETA         | PART  |    AMPLITUDE 
--------------------------------------------------
 |       | 111111000100 | 111110000000 |       |     7.9055349794953E-01
 |       | 111111000010 | 111110000000 |       |    -5.2248535129080E-01
 |       | 111111000001 | 111110000000 |       |    -1.8759027768902E-01
 |       | 111110101000 | 111110000000 |       |    -2.2270816496884E-01
--------------------------------------------------
*** Contributions RASCI wfn    Active: 100.00
                                 Hole:   0.00
                                 Part:   0.00

      Mulliken population analysis 
 ---------------------------------------------------
   Atom    Charge (a.u.)   Spin (a.u.)  
 ---------------------------------------------------
   1  C    0.898589       -0.767655 
   2  C    0.898588       -0.767655 
   3  C   -0.709324        0.934724 
   4  C   -0.123259        0.072251 
   5  C   -0.123259        0.072251 
   6  C   -0.709324        0.934724 
   7  C   -0.709323        0.934724 
   8  C   -0.709325        0.934725 
   9  C   -0.123259        0.072252 
  10  C   -0.123259        0.072250 
  11  H    0.221150       -0.088230 
  12  H    0.162139       -0.034918 
  13  H    0.162139       -0.034918 
  14  H    0.221150       -0.088230 
  15  H    0.221150       -0.088230 
  16  H    0.162139       -0.034918 
  17  H    0.162139       -0.034918 
  18  H    0.221150       -0.088230 
 ---------------------------------------------------
   Sum:    0.000000        2.000000 
 ---------------------------------------------------
 
      Analysis of the transition density matrix (wrt ground state)
 -------------------------------------
   Atom      e-      h+     Total     
 -------------------------------------
      1   1.5396   0.0371   1.5767
      2   1.5396   0.0371   1.5767
      3  -1.4501   0.3897  -1.0604
      4  -0.0575   0.0816   0.0242
      5  -0.0575   0.0816   0.0242
      6  -1.4501   0.3897  -1.0604
      7  -1.4501   0.3897  -1.0604
      8  -1.4501   0.3897  -1.0604
      9  -0.0575   0.0816   0.0242
     10  -0.0575   0.0816   0.0242
     11   0.1763   0.0025   0.1788
     12   0.0683   0.0008   0.0691
     13   0.0683   0.0008   0.0691
     14   0.1763   0.0025   0.1788
     15   0.1763   0.0025   0.1788
     16   0.0683   0.0008   0.0691
     17   0.0683   0.0008   0.0691
     18   0.1763   0.0025   0.1788
  Sum:   -1.9728   1.9728   0.0000
 -------------------------------------
 
      Analysis of the difference density matrix (wrt ground state)
 -------------------------------------
   Atom   Attach   Detach   Total     
 -------------------------------------
      1  -0.7756  -0.0231  -0.7987
      2  -0.7756  -0.0231  -0.7987
      3   0.7350  -0.1945   0.5406
      4   0.0323  -0.0462  -0.0139
      5   0.0323  -0.0462  -0.0139
      6   0.7350  -0.1945   0.5406
      7   0.7350  -0.1945   0.5406
      8   0.7350  -0.1945   0.5406
      9   0.0323  -0.0462  -0.0139
     10   0.0323  -0.0462  -0.0139
     11  -0.0888  -0.0017  -0.0905
     12  -0.0340  -0.0028  -0.0368
     13  -0.0340  -0.0028  -0.0368
     14  -0.0888  -0.0017  -0.0905
     15  -0.0888  -0.0017  -0.0905
     16  -0.0340  -0.0028  -0.0368
     17  -0.0340  -0.0028  -0.0368
     18  -0.0888  -0.0017  -0.0905
  Sum:    1.0268  -1.0268  -0.0000
 -------------------------------------
 
*** Unpaired Electrons
 Yamaguchi Nd:         2.30
  
**************************************************
 RAS-CI total energy for state  13:   -383.007185875244
  Excitation energy (eV) = 10.107844585467
  State symmetry: B2g   (D2h      )
[...]
 Reading 1e-SO integrals
 1e Reduced matrix elements (cm-1)
<S|| Hso(L-) ||S'> =    -0.0000000000    -0.0000000000i
<S|| Hso(L0) ||S'> =     0.0000000000     1.4948200925i
<S|| Hso(L+) ||S'> =    -0.0000000000     0.0000000000i
 1-elec SOC matrix (cm-1): < B(S,Sz) | Hso(1e) | A(S',Sz') >
                       |Sz'=-1.00>                |Sz'= 0.00>                |Sz'= 1.00>
 <Sz=-1.00|      0.000000     -1.056997i      -0.000000      0.000000i      -0.000000      0.000000i
 <Sz= 0.00|      0.000000      0.000000i       0.000000      0.000000i      -0.000000      0.000000i
 <Sz= 1.00|     -0.000000      0.000000i       0.000000      0.000000i       0.000000      1.056997i
1-elec SOCC =     1.494820093 cm-1
 Reading 2e-SOMF integrals
 2e-SOMF Reduced matrix elements (cm-1)
<S|| Hso(L-) ||S'> =     0.0000000000     0.0000000000i
<S|| Hso(L0) ||S'> =     0.0000000000    -1.6335588656i
<S|| Hso(L+) ||S'> =     0.0000000000    -0.0000000000i
 2-elec mean-field SOC matrix (cm-1): < B(S,Sz) | Hso(2e-mf) | A(S',Sz') >
                       |Sz'=-1.00>                |Sz'= 0.00>                |Sz'= 1.00>
 <Sz=-1.00|     -0.000000      1.155101i       0.000000     -0.000000i       0.000000     -0.000000i
 <Sz= 0.00|     -0.000000     -0.000000i      -0.000000     -0.000000i       0.000000     -0.000000i
 <Sz= 1.00|      0.000000     -0.000000i      -0.000000     -0.000000i      -0.000000     -1.155101i
 Total mean-field SOC matrix (cm-1): < B(S,Sz) | Hsomf | A(S',Sz') >
                       |Sz'=-1.00>                |Sz'= 0.00>                |Sz'= 1.00>
 <Sz=-1.00|      0.000000      0.098103i      -0.000000      0.000000i      -0.000000     -0.000000i
 <Sz= 0.00|      0.000000      0.000000i       0.000000     -0.000000i      -0.000000      0.000000i
 <Sz= 1.00|     -0.000000     -0.000000i       0.000000      0.000000i       0.000000     -0.098103i
Mean-Field SOCC =     0.138738773 cm-1
   
**************************************************
RAS-CI timing summary (seconds)
  CPU time      12864.73s
  System time       0.31s
  Wall time     16103.11s
Detailed CPU timing summary
     Fock matrix         :        33.9462 s
     Integrals           :       504.4650 s
     Addressing matrices :         0.0003 s
     Guesses             :         0.0795 s
     Iterations          :      8878.8220 s
     Properties          :      3447.4095 s
     RAS-CI(2) correction:         0.0000 s
  
 
 --------------------------------------------------------------
             Orbital Energies (a.u.) and Symmetries
 --------------------------------------------------------------
 
 Alpha MOs, Restricted
 -- Doubly Occupied --           
-11.246 -11.245 -11.244 -11.244 -11.244 -11.244 -11.238 -11.238
  1 Ag    1 B2u   1 B3u   1 B1g   2 Ag    2 B2u   3 Ag    2 B3u                
-11.236 -11.236  -1.178  -1.112  -1.055  -1.021  -0.976  -0.879
  3 B2u   2 B1g   4 Ag    3 B3u   4 B2u   5 Ag    3 B1g   4 B3u                
 -0.830  -0.818  -0.716  -0.630  -0.586  -0.554  -0.540  -0.555
  5 B2u   6 Ag    4 B1g   6 B2u   5 B3u   7 B2u   6 B3u   1 B1u                
 -0.485  -0.486  -0.465  -0.423  -0.701  -0.675  -0.618  -0.583
  7 Ag    5 B1g   1 B2g   1 B3g   7 B3u   8 Ag    9 Ag    6 B1g                
 -0.362
  2 B1u                                                                        
 -- Singly Occupied (Occupied) --
 -0.326  -0.190
  1 Au    2 B2g                                                                
 -- Virtual --                   
  0.115   0.286   0.362   0.369   0.459   0.111   0.156   0.164
  2 B3g   8 B2u  10 Ag   11 Ag   12 Ag    3 B1u  13 Ag    9 B2u                
  0.166   0.188   0.194   0.201   0.226   0.215   0.242   0.243
  8 B3u  14 Ag    7 B1g  10 B2u   9 B3u   2 Au    8 B1g  15 Ag                 
  0.276   0.296   0.301   0.319   0.319   0.343   0.352   0.370
 10 B3u   3 B3g  16 Ag   11 B2u   4 B1u  11 B3u   3 B2g   9 B1g                
  0.400   0.391   0.400   0.415   0.429   0.460   0.462   0.465
 10 B1g   4 B3g   5 B1u   3 Au   12 B2u  12 B3u  13 B3u   6 B1u                
  0.476   0.472   0.480   0.503   0.509   0.505   0.545   0.547
 17 Ag    4 B2g  14 B3u  13 B2u  14 B2u   5 B3g  15 B2u  11 B1g                
  0.550   0.564   0.572   0.579   0.588   0.604   0.606   0.615
  4 Au   15 B3u  12 B1g  18 Ag   19 Ag   13 B1g  16 B2u   6 B3g                
  0.632   0.633   0.637   0.650   0.651   0.676   0.683   0.710
 17 B2u  16 B3u   5 B2g  20 Ag   14 B1g  18 B2u  17 B3u   7 B1u                
  0.712   0.729   0.753   0.785   0.832   0.843   0.851   0.855
 15 B1g  18 B3u  21 Ag   16 B1g  19 B2u  20 B2u  22 Ag    8 B1u                
  0.870   0.874   0.877   0.896   0.903   0.922   0.923   0.921
 19 B3u  21 B2u  17 B1g   6 B2g  18 B1g  20 B3u  23 Ag    7 B3g                
  0.928   0.946   0.983   0.997   1.019   1.027   1.047   1.052
  5 Au   22 B2u  19 B1g   7 B2g  21 B3u  24 Ag   25 Ag   23 B2u                
  1.067   1.087   1.091   1.110   1.119   1.165   1.175   1.184
  6 Au    9 B1u  20 B1g  26 Ag   22 B3u  23 B3u  10 B1u  24 B2u                
  1.195   1.201   1.267   1.293   1.313   1.332   1.344   1.370
 27 Ag    8 B3g  25 B2u  21 B1g   9 B3g  28 Ag    7 Au    8 B2g                
  1.401   1.399   1.417   1.427   1.438   1.443   1.459   1.469
 22 B1g  24 B3u   9 B2g  25 B3u  29 Ag   26 B2u  23 B1g  10 B3g                
  1.472   1.479   1.497   1.502   1.572   1.584   1.608   1.636
 27 B2u  11 B1u  26 B3u  30 Ag   28 B2u   8 Au   24 B1g  29 B2u                
  1.639   1.647   1.690   1.697   1.748   1.752   1.757   1.763
 31 Ag   25 B1g  12 B1u  27 B3u  10 B2g   9 Au   32 Ag   30 B2u                
  1.766   1.783   1.784   1.823   1.826   1.846   1.865   1.889
 26 B1g  28 B3u  11 B3g  13 B1u  27 B1g  33 Ag   10 Au   31 B2u                
  1.914   1.948   1.946   1.954   1.959   1.958   1.983   1.989
 12 B3g  34 Ag   11 B2g  29 B3u  32 B2u  14 B1u  13 B3g  28 B1g                
  2.007   2.024   2.026   2.111   2.125   2.130   2.160   2.193
 33 B2u  30 B3u  12 B2g  11 Au   35 Ag   15 B1u  14 B3g  12 Au                 
  2.248   2.249   2.254   2.275   2.281   2.288   2.321   2.393
 16 B1u  34 B2u  31 B3u  15 B3g  29 B1g  36 Ag   13 B2g  37 Ag                 
  2.427   2.439   2.446   2.452   2.455   2.457   2.531   2.534
 32 B3u  38 Ag   30 B1g  33 B3u  31 B1g  35 B2u  32 B1g  34 B3u                
  2.554   2.562   2.564   2.598   2.617   2.661   2.724   2.724
 39 Ag   16 B3g  36 B2u  35 B3u  17 B1u  13 Au   40 Ag   37 B2u                
  2.738   2.771   2.777   2.837   2.857   2.863   2.871   2.899
 41 Ag   14 B2g  36 B3u  33 B1g  38 B2u  15 B2g  37 B3u  42 Ag                 
  2.913   2.919   2.930   2.941   2.942   2.964   2.967   3.005
 38 B3u  34 B1g  39 B2u  43 Ag   18 B1u  35 B1g  17 B3g  14 Au                 
  3.012   3.033   3.035   3.052   3.070   3.076   3.097   3.104
 16 B2g  44 Ag   40 B2u  19 B1u  39 B3u  41 B2u  18 B3g  20 B1u                
  3.110   3.114   3.122   3.128   3.135   3.170   3.196   3.198
 45 Ag   36 B1g  17 B2g  40 B3u  42 B2u  37 B1g  43 B2u  21 B1u                
  3.202   3.208   3.217   3.230   3.267   3.286   3.302   3.314
 15 Au   41 B3u  46 Ag   16 Au   38 B1g  18 B2g  44 B2u  39 B1g                
  3.314   3.316   3.324   3.363   3.389   3.415   3.423   3.437
 19 B3g  47 Ag   22 B1u  23 B1u  42 B3u  19 B2g  48 Ag   43 B3u                
  3.466   3.467   3.503   3.504   3.512   3.518   3.523   3.538
 20 B3g  40 B1g  45 B2u  20 B2g  17 Au   21 B3g  49 Ag   46 B2u                
  3.539   3.557   3.559   3.563   3.582   3.625   3.646   3.655
 24 B1u  44 B3u  50 Ag   41 B1g  18 Au   45 B3u  25 B1u  47 B2u                
  3.651   3.661   3.679   3.688   3.694   3.700   3.747   3.752
 21 B2g  51 Ag   42 B1g  52 Ag   22 B3g  46 B3u  43 B1g  19 Au                 
  3.774   3.794   3.799   3.808   3.813   3.845   3.853   3.860
 48 B2u  20 Au   22 B2g  47 B3u  23 B3g  49 B2u  23 B2g  26 B1u                
  3.890   3.905   3.914   3.951   3.972   3.987   4.013   4.054
 24 B3g  50 B2u  44 B1g  48 B3u  45 B1g  53 Ag   51 B2u  21 Au                 
  4.073   4.100   4.149   4.170   4.177   4.184   4.242   4.273
 54 Ag   27 B1u  52 B2u  22 Au   46 B1g  49 B3u  25 B3g  55 Ag                 
  4.278   4.299   4.336   4.364   4.381   4.397   4.420   4.458
 53 B2u  50 B3u  47 B1g  56 Ag   48 B1g  24 B2g  51 B3u  49 B1g                
  4.467   4.485   4.509   4.518   4.538   4.550   4.570   4.600
 26 B3g  28 B1u  57 Ag   54 B2u  55 B2u  50 B1g  58 Ag   29 B1u                
  4.614   4.622   4.642   4.681   4.733   4.751   4.763   4.801
 23 Au   25 B2g  27 B3g  52 B3u  24 Au   53 B3u  59 Ag   51 B1g                
  4.883   4.887   4.995   5.063   5.076   5.094   5.096   5.113
 28 B3g  56 B2u  54 B3u  57 B2u  60 Ag   29 B3g  25 Au   55 B3u                
  5.150   5.155   5.230   5.301   5.399   5.416   5.424   5.454
 61 Ag   58 B2u  52 B1g  56 B3u  59 B2u  62 Ag   53 B1g  60 B2u                
  5.553   5.660   5.689   5.716   5.746   5.966   5.971   6.060
 63 Ag   54 B1g  61 B2u  55 B1g  57 B3u  62 B2u  56 B1g  63 B2u                
  6.301  22.969  23.490  23.590  23.683  23.777  23.874  23.925
 57 B1g  64 Ag   58 B3u  65 Ag   59 B3u  58 B1g  64 B2u  66 Ag                 
 23.978  23.998  24.664
 59 B1g  65 B2u  66 B2u                                                        
 
 Beta MOs, Restricted
 -- Doubly Occupied --           
-11.246 -11.245 -11.236 -11.236 -11.236 -11.236 -11.236 -11.236
  1 Ag    1 B2u   1 B3u   1 B1g   2 Ag    2 B2u   3 Ag    2 B3u                
-11.235 -11.235  -1.160  -1.092  -1.027  -1.011  -0.943  -0.853
  3 B2u   2 B1g   4 Ag    3 B3u   4 B2u   5 Ag    3 B1g   4 B3u                
 -0.820  -0.802  -0.702  -0.621  -0.578  -0.546  -0.534  -0.493
  5 B2u   6 Ag    4 B1g   6 B2u   5 B3u   7 B2u   6 B3u   1 B1u                
 -0.479  -0.478  -0.405  -0.313  -0.692  -0.668  -0.613  -0.573
  7 Ag    5 B1g   1 B2g   1 B3g   7 B3u   8 Ag    9 Ag    6 B1g                
 -0.326
  2 B1u                                                                        
 -- Singly Occupied (Vacant) --  
 -0.009   0.119
  1 Au    2 B2g                                                                
 -- Virtual --                   
  0.145   0.292   0.366   0.375   0.464   0.183   0.158   0.166
  2 B3g   8 B2u  10 Ag   11 Ag   12 Ag    3 B1u  13 Ag    9 B2u                
  0.168   0.189   0.195   0.202   0.229   0.264   0.244   0.250
  8 B3u  14 Ag    7 B1g  10 B2u   9 B3u   2 Au    8 B1g  15 Ag                 
  0.285   0.307   0.304   0.322   0.339   0.344   0.360   0.383
 10 B3u   3 B3g  16 Ag   11 B2u   4 B1u  11 B3u   3 B2g   9 B1g                
  0.403   0.433   0.418   0.431   0.435   0.468   0.474   0.483
 10 B1g   4 B3g   5 B1u   3 Au   12 B2u  12 B3u  13 B3u   6 B1u                
  0.483   0.497   0.488   0.507   0.517   0.532   0.551   0.557
 17 Ag    4 B2g  14 B3u  13 B2u  14 B2u   5 B3g  15 B2u  11 B1g                
  0.571   0.568   0.576   0.586   0.598   0.609   0.610   0.622
  4 Au   15 B3u  12 B1g  18 Ag   19 Ag   13 B1g  16 B2u   6 B3g                
  0.638   0.641   0.660   0.654   0.654   0.682   0.688   0.725
 17 B2u  16 B3u   5 B2g  20 Ag   14 B1g  18 B2u  17 B3u   7 B1u                
  0.721   0.735   0.756   0.792   0.836   0.848   0.854   0.868
 15 B1g  18 B3u  21 Ag   16 B1g  19 B2u  20 B2u  22 Ag    8 B1u                
  0.874   0.880   0.887   0.922   0.913   0.928   0.927   0.940
 19 B3u  21 B2u  17 B1g   6 B2g  18 B1g  20 B3u  23 Ag    7 B3g                
  0.955   0.951   0.988   1.010   1.023   1.038   1.052   1.055
  5 Au   22 B2u  19 B1g   7 B2g  21 B3u  24 Ag   25 Ag   23 B2u                
  1.091   1.101   1.097   1.113   1.130   1.171   1.195   1.194
  6 Au    9 B1u  20 B1g  26 Ag   22 B3u  23 B3u  10 B1u  24 B2u                
  1.201   1.217   1.275   1.301   1.328   1.337   1.353   1.389
 27 Ag    8 B3g  25 B2u  21 B1g   9 B3g  28 Ag    7 Au    8 B2g                
  1.407   1.411   1.433   1.432   1.446   1.447   1.462   1.477
 22 B1g  24 B3u   9 B2g  25 B3u  29 Ag   26 B2u  23 B1g  10 B3g                
  1.474   1.488   1.500   1.507   1.576   1.604   1.617   1.641
 27 B2u  11 B1u  26 B3u  30 Ag   28 B2u   8 Au   24 B1g  29 B2u                
  1.645   1.652   1.713   1.701   1.762   1.767   1.760   1.766
 31 Ag   25 B1g  12 B1u  27 B3u  10 B2g   9 Au   32 Ag   30 B2u                
  1.771   1.786   1.812   1.832   1.829   1.848   1.882   1.895
 26 B1g  28 B3u  11 B3g  13 B1u  27 B1g  33 Ag   10 Au   31 B2u                
  1.921   1.952   1.972   1.957   1.961   1.971   1.989   1.993
 12 B3g  34 Ag   11 B2g  29 B3u  32 B2u  14 B1u  13 B3g  28 B1g                
  2.013   2.028   2.035   2.128   2.127   2.139   2.171   2.199
 33 B2u  30 B3u  12 B2g  11 Au   35 Ag   15 B1u  14 B3g  12 Au                 
  2.254   2.252   2.262   2.282   2.286   2.294   2.328   2.396
 16 B1u  34 B2u  31 B3u  15 B3g  29 B1g  36 Ag   13 B2g  37 Ag                 
  2.435   2.446   2.456   2.461   2.458   2.465   2.541   2.539
 32 B3u  38 Ag   30 B1g  33 B3u  31 B1g  35 B2u  32 B1g  34 B3u                
  2.559   2.569   2.568   2.602   2.630   2.667   2.729   2.734
 39 Ag   16 B3g  36 B2u  35 B3u  17 B1u  13 Au   40 Ag   37 B2u                
  2.745   2.783   2.782   2.841   2.861   2.876   2.874   2.904
 41 Ag   14 B2g  36 B3u  33 B1g  38 B2u  15 B2g  37 B3u  42 Ag                 
  2.917   2.925   2.935   2.943   2.951   2.968   2.980   3.018
 38 B3u  34 B1g  39 B2u  43 Ag   18 B1u  35 B1g  17 B3g  14 Au                 
  3.018   3.037   3.039   3.061   3.077   3.080   3.110   3.109
 16 B2g  44 Ag   40 B2u  19 B1u  39 B3u  41 B2u  18 B3g  20 B1u                
  3.116   3.119   3.130   3.134   3.142   3.173   3.202   3.205
 45 Ag   36 B1g  17 B2g  40 B3u  42 B2u  37 B1g  43 B2u  21 B1u                
  3.211   3.212   3.230   3.247   3.273   3.297   3.307   3.321
 15 Au   41 B3u  46 Ag   16 Au   38 B1g  18 B2g  44 B2u  39 B1g                
  3.322   3.319   3.337   3.371   3.396   3.422   3.431   3.450
 19 B3g  47 Ag   22 B1u  23 B1u  42 B3u  19 B2g  48 Ag   43 B3u                
  3.476   3.478   3.507   3.515   3.519   3.529   3.527   3.543
 20 B3g  40 B1g  45 B2u  20 B2g  17 Au   21 B3g  49 Ag   46 B2u                
  3.549   3.561   3.561   3.567   3.598   3.628   3.657   3.658
 24 B1u  44 B3u  50 Ag   41 B1g  18 Au   45 B3u  25 B1u  47 B2u                
  3.665   3.665   3.686   3.690   3.707   3.703   3.751   3.761
 21 B2g  51 Ag   42 B1g  52 Ag   22 B3g  46 B3u  43 B1g  19 Au                 
  3.778   3.799   3.810   3.813   3.818   3.851   3.862   3.870
 48 B2u  20 Au   22 B2g  47 B3u  23 B3g  49 B2u  23 B2g  26 B1u                
  3.898   3.908   3.917   3.955   3.974   3.991   4.017   4.063
 24 B3g  50 B2u  44 B1g  48 B3u  45 B1g  53 Ag   51 B2u  21 Au                 
  4.076   4.108   4.153   4.177   4.183   4.189   4.249   4.278
 54 Ag   27 B1u  52 B2u  22 Au   46 B1g  49 B3u  25 B3g  55 Ag                 
  4.283   4.302   4.342   4.367   4.384   4.407   4.426   4.461
 53 B2u  50 B3u  47 B1g  56 Ag   48 B1g  24 B2g  51 B3u  49 B1g                
  4.471   4.494   4.514   4.523   4.541   4.552   4.574   4.608
 26 B3g  28 B1u  57 Ag   54 B2u  55 B2u  50 B1g  58 Ag   29 B1u                
  4.621   4.631   4.648   4.684   4.741   4.753   4.767   4.803
 23 Au   25 B2g  27 B3g  52 B3u  24 Au   53 B3u  59 Ag   51 B1g                
  4.889   4.893   4.999   5.065   5.080   5.100   5.102   5.117
 28 B3g  56 B2u  54 B3u  57 B2u  60 Ag   29 B3g  25 Au   55 B3u                
  5.153   5.158   5.232   5.305   5.401   5.419   5.427   5.456
 61 Ag   58 B2u  52 B1g  56 B3u  59 B2u  62 Ag   53 B1g  60 B2u                
  5.556   5.663   5.691   5.719   5.748   5.969   5.975   6.063
 63 Ag   54 B1g  61 B2u  55 B1g  57 B3u  62 B2u  56 B1g  63 B2u                
  6.303  22.972  23.492  23.593  23.688  23.781  23.875  23.927
 57 B1g  64 Ag   58 B3u  65 Ag   59 B3u  58 B1g  64 B2u  66 Ag                 
 23.981  24.002  24.665
 59 B1g  65 B2u  66 B2u                                                        
 --------------------------------------------------------------
 
          Ground-State Mulliken Net Atomic Charges

     Atom                 Charge (a.u.)
  ----------------------------------------
      1 C                     0.099595
      2 C                     0.099594
      3 C                    -0.168912
      4 C                    -0.136785
      5 C                    -0.136785
      6 C                    -0.168912
      7 C                    -0.168912
      8 C                    -0.168912
      9 C                    -0.136785
     10 C                    -0.136786
     11 H                     0.130568
     12 H                     0.125332
     13 H                     0.125332
     14 H                     0.130568
     15 H                     0.130568
     16 H                     0.125332
     17 H                     0.125332
     18 H                     0.130568
  ----------------------------------------
  Sum of atomic charges =     0.000000

 -----------------------------------------------------------------
                    Cartesian Multipole Moments
 -----------------------------------------------------------------
    Charge (ESU x 10^10)
                 0.0000
    Dipole Moment (Debye)
         X       0.0000      Y      -0.0000      Z       0.0000
       Tot       0.0000
    Quadrupole Moments (Debye-Ang)
        XX     -52.6086     XY       0.0000     YY     -51.1496
        XZ       0.0000     YZ       0.0000     ZZ     -65.8565
    Octopole Moments (Debye-Ang^2)
       XXX       0.0000    XXY       0.0000    XYY      -0.0000
       YYY       0.0000    XXZ       0.0000    XYZ      -0.0000
       YYZ       0.0000    XZZ       0.0000    YZZ      -0.0000
       ZZZ       0.0000
    Hexadecapole Moments (Debye-Ang^3)
      XXXX   -1148.2207   XXXY       0.0000   XXYY    -262.9240
      XYYY       0.0000   YYYY    -474.6161   XXXZ      -0.0000
      XXYZ      -0.0000   XYYZ       0.0000   YYYZ       0.0000
      XXZZ    -255.6222   XYZZ      -0.0000   YYZZ    -113.2362
      XZZZ       0.0000   YZZZ      -0.0000   ZZZZ     -80.5268
 -----------------------------------------------------------------
 Total job time:  16357.79s(wall), 13116.34s(cpu) 
 Fri Sep  6 15:58:34 2024

======= MOLDEN-FORMATTED INPUT FILE FOLLOWS =======
[Molden Format]
[Atoms] (AU)
  C      1    6      0.00000000     -1.36236251     -0.00000000
  C      2    6     -0.00000000      1.36236251      0.00000000
  C      3    6     -2.33762068     -2.64369788     -0.00000000
  C      4    6     -4.69894378     -1.28631936      0.00000000
  C      5    6     -4.69894378      1.28631936      0.00000000
  C      6    6     -2.33762068      2.64369788      0.00000000
  C      7    6      2.33762068      2.64369788      0.00000000
  C      8    6      2.33762068     -2.64369788     -0.00000000
  C      9    6      4.69894378     -1.28631936     -0.00000000
  C     10    6      4.69894378      1.28631936     -0.00000000
  H     11    1      2.35273474     -4.69146889     -0.00000000
  H     12    1      6.45529481     -2.33709517     -0.00000000
  H     13    1      6.45529481      2.33709517     -0.00000000
  H     14    1      2.35273474      4.69146889      0.00000000
  H     15    1     -2.35273474     -4.69146889     -0.00000000
  H     16    1     -6.45529481     -2.33709517      0.00000000
  H     17    1     -6.45529481      2.33709517      0.00000000
  H     18    1     -2.35273474      4.69146889      0.00000000

======= END OF MOLDEN-FORMATTED INPUT FILE =======


        *************************************************************
        *                                                           *
        *  Thank you very much for using Q-Chem.  Have a nice day.  *
        *                                                           *
        *************************************************************


