                  Welcome to Q-Chem
     A Quantum Leap Into The Future Of Chemistry


 Q-Chem 6.0 (devel), Q-Chem, Inc., Pleasanton, CA (2022)

 E. Epifanovsky,  A. T. B. Gilbert,  Xintian Feng,  Joonho Lee,  Yuezhi Mao,  
 N. Mardirossian,  P. Pokhilko,  A. White,  M. Wormit,  M. P. Coons,  
 A. L. Dempwolff,  Zhengting Gan,  D. Hait,  P. R. Horn,  L. D. Jacobson,  
 I. Kaliman,  J. Kussmann,  A. W. Lange,  Ka Un Lao,  D. S. Levine,  Jie Liu,  
 S. C. McKenzie,  A. F. Morrison,  K. Nanda,  F. Plasser,  D. R. Rehn,  
 M. L. Vidal,  Zhi-Qiang You,  Ying Zhu,  B. Alam,  B. Albrecht,  
 A. Aldossary,  E. Alguire,  J. H. Andersen,  V. Athavale,  D. Barton,  
 K. Begam,  A. Behn,  N. Bellonzi,  Y. A. Bernard,  E. J. Berquist,  
 H. Burton,  A. Carreras,  K. Carter-Fenk,  Romit Chakraborty,  
 Chandrima Chakravarty,  Junhan Chen,  A. D. Chien,  K. D. Closser,  
 V. Cofer-Shabica,  L. Cunha,  S. Dasgupta,  Jia Deng,  M. de Wergifosse,  
 M. Diedenhofen,  Hainam Do,  S. Ehlert,  Po-Tung Fang,  S. Fatehi,  
 Qingguo Feng,  T. Friedhoff,  B. Ganoe,  J. Gayvert,  Qinghui Ge,  
 G. Gidofalvi,  M. Goldey,  J. Gomes,  C. Gonzalez-Espinoza,  S. Gulania,  
 A. Gunina,  J. A. Gyamfi,  M. W. D. Hanson-Heine,  P. H. P. Harbach,  
 A. W. Hauser,  M. F. Herbst,  M. Hernandez Vera,  M. Hodecker,  
 Z. C. Holden,  S. Houck,  Xunkun Huang,  Kerwin Hui,  B. C. Huynh,  
 K. Ikeda,  M. Ivanov,  Hyunjun Ji,  Zuxin Jin,  Hanjie Jiang,  B. Kaduk,  
 S. Kaehler,  R. Kang,  K. Khistyaev,  Jaehoon Kim,  Yongbin Kim,  
 P. Klunzinger,  Z. Koczor-Benda,  Joong Hoon Koh,  D. Kosenkov,  
 Saikiran Kotaru,  L. Koulias,  T. Kowalczyk,  C. M. Krauter,  K. Kue,  
 A. Kunitsa,  T. Kus,  A. Landau,  K. V. Lawler,  D. Lefrancois,  S. Lehtola,  
 Rain Li,  Shaozhi Li,  Yi-Pei Li,  Jiashu Liang,  M. Liebenthal,  
 Hung-Hsuan Lin,  You-Sheng Lin,  Fenglai Liu,  Kuan-Yu Liu,  
 M. Loipersberger,  A. Luenser,  C. Malbon,  A. Manjanath,  P. Manohar,  
 E. Mansoor,  S. F. Manzer,  Shan-Ping Mao,  A. V. Marenich,  T. Markovich,  
 S. Mason,  F. Matz,  S. A. Maurer,  P. F. McLaughlin,  M. F. S. J. Menger,  
 J.-M. Mewes,  S. A. Mewes,  P. Morgante,  Mohammad Mostafanejad,  
 J. W. Mullinax,  K. J. Oosterbaan,  G. Paran,  V. Parravicini,  
 Alexander C. Paul,  Suranjan K. Paul,  F. Pavosevic,  Zheng Pei,  S. Prager,  
 E. I. Proynov,  E. Ramos,  B. Rana,  A. E. Rask,  A. Rettig,  R. M. Richard,  
 F. Rob,  E. Rossomme,  T. Scheele,  M. Scheurer,  M. Schneider,  
 P. E. Schneider,  N. Sergueev,  S. M. Sharada,  Hengyuan Shen,  
 W. Skomorowski,  D. W. Small,  C. J. Stein,  Yingli Su,  Yu-Chuan Su,  
 E. J. Sundstrom,  Zhen Tao,  J. Thirman,  Hung-Yi Tsai,  T. Tsuchimochi,  
 N. M. Tubman,  C. Utku,  S. P. Veccham,  O. Vydrov,  J. Wenzel,  
 Jonathan Wong,  J. Witte,  A. Yamada,  Chou-Hsun Yang,  Kun Yao,  
 S. Yeganeh,  S. R. Yost,  A. Zech,  F. Zeller,  Igor Ying Zhang,  
 Xing Zhang,  Yu Zhang,  D. Zuev,  A. Aspuru-Guzik,  A. T. Bell,  
 N. A. Besley,  K. B. Bravaya,  B. R. Brooks,  D. Casanova,  Jeng-Da Chai,  
 Hsing-Ta Chen,  S. Coriani,  C. J. Cramer,  A. E. DePrince, III,  
 R. A. DiStasio Jr.,  A. Dreuw,  B. D. Dunietz,  T. R. Furlani,  
 W. A. Goddard III,  S. Grimme,  S. Hammes-Schiffer,  T. Head-Gordon,  
 W. J. Hehre,  Chao-Ping Hsu,  T.-C. Jagau,  Yousung Jung,  A. Klamt,  
 Jing Kong,  D. S. Lambrecht,  Xiangyuan Li,  WanZhen Liang,  N. J. Mayhall,  
 C. W. McCurdy,  J. B. Neaton,  T. Neudecker,  C. Ochsenfeld,  
 J. A. Parkhill,  R. Peverati,  V. A. Rassolov,  Haisheng Ren,  Yihan Shao,  
 L. V. Slipchenko,  R. P. Steele,  J. E. Subotnik,  A. J. W. Thom,  
 A. Tkatchenko,  D. G. Truhlar,  T. Van Voorhis,  Fan Wang,  
 T. A. Wesolowski,  K. B. Whaley,  H. L. Woodcock III,  P. M. Zimmerman,  
 S. Faraji,  P. M. W. Gill,  M. Head-Gordon,  J. M. Herbert,  A. I. Krylov

 Contributors to earlier versions of Q-Chem not listed above: 
 R. D. Adamson,  B. Austin,  R. Baer,  J. Baker,  G. J. O. Beran,  
 K. Brandhorst,  S. T. Brown,  E. F. C. Byrd,  Arup K. Chakraborty,  
 G. K. L. Chan,  Chun-Min Chang,  Yunqing Chen,  C.-L. Cheng,  
 Siu Hung Chien,  D. M. Chipman,  D. L. Crittenden,  H. Dachsel,  
 R. J. Doerksen,  A. D. Dutoi,  R. G. Edgar,  J. Fosso-Tande,  
 L. Fusti-Molnar,  D. Ghosh,  A. Ghysels,  A. Golubeva-Zadorozhnaya,  
 J. Gonthier,  M. S. Gordon,  S. R. Gwaltney,  G. Hawkins,  J. E. Herr,  
 A. Heyden,  S. Hirata,  E. G. Hohenstein,  G. Kedziora,  F. J. Keil,  
 C. Kelley,  Jihan Kim,  R. A. King,  R. Z. Khaliullin,  P. P. Korambath,  
 W. Kurlancheek,  A. Laurent,  A. M. Lee,  M. S. Lee,  S. V. Levchenko,  
 Ching Yeh Lin,  D. Liotard,  E. Livshits,  R. C. Lochan,  I. Lotan,  
 L. A. Martinez-Martinez,  P. E. Maslen,  N. Nair,  D. P. O'Neill,  
 D. Neuhauser,  E. Neuscamman,  C. M. Oana,  R. Olivares-Amaya,  R. Olson,  
 T. M. Perrine,  B. Peters,  P. A. Pieniazek,  A. Prociuk,  Y. M. Rhee,  
 J. Ritchie,  M. A. Rohrdanz,  E. Rosta,  N. J. Russ,  H. F. Schaefer III,  
 M. W. Schmidt,  N. E. Schultz,  S. Sharma,  N. Shenvi,  C. D. Sherrill,  
 A. C. Simmonett,  A. Sodt,  T. Stein,  D. Stuck,  K. S. Thanthiriwatte,  
 V. Vanovschi,  L. Vogt,  Tao Wang,  A. Warshel,  M. A. Watson,  
 C. F. Williams,  Q. Wu,  X. Xu,  Jun Yang,  W. Zhang,  Yan Zhao

   Please cite Q-Chem as follows:
  "Software for the frontiers of quantum chemistry:
   An overview of developments in the Q-Chem 5 package"
   J. Chem. Phys. 155, 084801 (2021)
   https://doi.org/10.1063/5.0055522 (open access)

 Q-Chem 6.0.1 for Intel X86 EM64T Linux

 Parts of Q-Chem use Armadillo 9.900.5 (Nocturnal Misbehaviour).
 http://arma.sourceforge.net/

 Q-Chem begins on Fri Sep  6 15:59:13 2024  

 Host: atlas-252
0

     Scratch files written to ./qchem364253//
 Processing $rem in /scratch/abel/SOFTWARE/qchem/config/preferences:
 Processing $rem in /dipc/acebg/.qchemrc:

 Checking the input file for inconsistencies... 	...done.

--------------------------------------------------------------
User input:
--------------------------------------------------------------
$comment
 RAS-SF CALCULATION
$end

$molecule
READ quinoline.molecule
$end

$rem
!**CALCULATION TYPE***     
JOBTYPE            sp    
EXCHANGE           HF
CORRELATION        RASCI    !RASCI=Casanova; RASCI2=Zimmerman
BASIS              def2-TZVP
!BASIS2             STO-3G

!***SCF REFERENCE***
INPUT_BOHR          TRUE
!SKIP_SCFMAN        FALSE
UNRESTRICTED       FALSE
!SCF_GUESS          core
!SCF_GUESS_MIX      FALSE
!SCF_GUESS_ALWAYS   FALSE
MAX_SCF_CYCLES     999
!SCF_CONVERGENCE    10
SCF_ALGORITHM      DIIS_GDM !DIIS,DM,DIIS_DM,GDM,DIIS_GDM,GD

!SYMMETRY           TRUE   !use of symmetry for calculating integrals
!SYM_IGNORE         FALSE  !turn off using symmetry
!SYM_TOL            5      !tolerance for determining point group
!USE_ABELIAN_SUBGROUP      !define to use abelian group

!THRESH             14
!SCF_FINAL_PRINT     1 !0,1,2,3

!****RAS-SF****
RAS_ROOTS          30       !number of RAS-CI roots to be computed
SET_ITER           100     !number of iterations in RASCI
RAS_ELEC 14
RAS_ELEC_ALPHA 8
RAS_ELEC_BETA 6

RAS_ACT 12
RAS_ACT_ORB [20, 21, 25, 28, 29, 33, 34, 35, 36, 37, 55, 56]
RAS_OCC 27
!N_FROZEN_CORE      FC     !Number of frozen core orbitals
!N_FROZEN_VIRTUAL   0      !Number of frozen virtual orbitals

RAS_DO_HOLE        FALSE   !presence of hole excitations in RAS-CI wave function
RAS_DO_PART        FALSE   !presence of particle excitations
!RAS_AMPL_PRINT     10     !threshold (×10 2 ) for the CI amplitudes

!RAS_GUESS_CS       0      !number of closed shell guess conﬁgurations
!RAS_SPIN_MULT      0      !spin multiplicity. Only for Ms = 0 
!RAS_SRDFT          FALSE  !short-range density functional RAS-CI
!RAS_NFRAG          0     !fragments of excitation analysis in RASCI

RAS_PRINT          2      !level of information
!RAS_NATORB         TRUE   !computation of the natural orbital occupancies
!RAS_NATORB_STATE  0      !Saves NO of i RAS computed state in .fchk ﬁle
!RAS_FOD            TRUE

!****RAS-SOC****
CALC_SOC           TRUE   !calculate SOC for EOM-CC, RAS-CI, ADC, TDDFT/TDA and TDDFT
!RAS_SOC_2E        TRUE   !two-electron mean-ﬁeld contribution, default=true
RAS_SOC_SYM_DENS   TRUE   !averaging of α and β densities

!****MEMORY****
MEM_TOTAL          90000 !Default 2000 MB
MEM_STATIC         10000  !Default 64 MB

!**Molecular Properties and Analysis **                                                                                          
GUI                0       !Checkpoints generation
STATE_ANALYSIS     TRUE
$end
--------------------------------------------------------------
 ----------------------------------------------------------------
             Standard Nuclear Orientation (Bohr)
    I     Atom           X                Y                Z
 ----------------------------------------------------------------
    1      C      -0.0559353627    -1.3989916065    -0.0000000000
    2      C      -0.0782415914     1.3256554364     0.0000000000
    3      C       2.3016375305    -2.6538713366    -0.0000000000
    4      C       4.6667611846    -1.2654684416    -0.0000000000
    5      C       4.6497706855     1.3016649328    -0.0000000000
    6      C       2.2722800840     2.6377967747    -0.0000000000
    7      N      -2.2102262665     2.6945577754     0.0000000000
    8      C      -2.3995793248    -2.6420616021     0.0000000000
    9      C      -4.6640560358    -1.1648929097     0.0000000000
   10      C      -4.4878393265     1.4051065478     0.0000000000
   11      H      -2.4867924844    -4.6867516752     0.0000000000
   12      H      -6.4947443947    -2.0790860337     0.0000000000
   13      H      -6.1538984074     2.5944746854     0.0000000000
   14      H       2.3432526882    -4.7016054474    -0.0000000000
   15      H       6.4266657394    -2.3097175760    -0.0000000000
   16      H       6.3951035242     2.3693643728    -0.0000000000
   17      H       2.2132101396     4.6817904753    -0.0000000000
 ----------------------------------------------------------------
 Molecular Point Group                 Cs    NOp =  2
 Largest Abelian Subgroup              Cs    NOp =  2
 Nuclear Repulsion Energy =         458.56962217 hartrees
 There are       35 alpha and       33 beta electrons
 Requested basis set is def2-TZVP
 There are 138 shells and 352 basis functions

 Q-Chem warning in module libmdc/get_mega.C, line 167:

 Allowed MEM_STATIC has been capped at MEM_STATIC=8191.
 Reduce the value of MEM_STATIC to silence this warning.


 Total QAlloc Memory Limit  90000 MB
 Mega-Array Size      8007 MB
 MEM_STATIC part      8191 MB

 A cutoff of  1.0D-09 yielded   8146 shell pairs
 There are     53734 function pairs (     69986 Cartesian)
 Smallest overlap matrix eigenvalue = 8.95E-06

 Q-Chem warning in module stvman/mkSTV.C, line 313:

 Overlap eigenvalue is smaller than square root of threshold
 Use THRESH >= 12 to get rid of this warning


 Scale SEOQF with 1.000000e-01/1.000000e-01/1.000000e+00

 Standard Electronic Orientation quadrupole field applied
 Nucleus-field energy     =     0.0000000148 hartrees
 Guess from superposition of atomic densities
 Warning:  Energy on first SCF cycle will be non-variational
 SAD guess density has 68.000000 electrons

 -----------------------------------------------------------------------
  General SCF calculation program by
  Eric Jon Sundstrom, Paul Horn, Yuezhi Mao, Dmitri Zuev, Alec White,
  David Stuck, Shaama M.S., Shane Yost, Joonho Lee, David Small,
  Daniel Levine, Susi Lehtola, Hugh Burton, Evgeny Epifanovsky,
  Bang C. Huynh
 -----------------------------------------------------------------------
 Hartree-Fock
 Orthonormalizing orbitals
 A restricted open-shell SCF calculation will be
 performed using DIIS, GDM
 SCF converges when RMS gradient is below 1.0e-05
 ---------------------------------------
  Cycle       Energy         DIIS error
 ---------------------------------------
    1    -396.5781026976      3.09e-02  
    2    -396.3847307891      2.99e-02  
    3    -398.7075159200      1.34e-02  
    4    -399.3027653795      3.98e-03  Done DIIS. Switching to GDM
 ---------------------------------------
  Cycle       Energy        RMS Gradient
 ---------------------------------------
    1    -399.3027653795      6.61e-02   Descent step
    2    -399.3553090883      7.64e-02   Normal BFGS step
    3    -399.3739134794      3.45e-02   Normal BFGS step
    4    -399.3786522039      2.82e-02   Normal BFGS step
    5    -399.3809969457      1.99e-02   Normal BFGS step
    6    -399.3819969647      8.37e-03   Normal BFGS step
    7    -399.3825111903      3.88e-03   Normal BFGS step
    8    -399.3826271659      1.64e-03   Normal BFGS step
    9    -399.3826550282      8.36e-04   Normal BFGS step
   10    -399.3826582381      4.26e-04   Normal BFGS step
   11    -399.3826591830      9.07e-05   Normal BFGS step
   12    -399.3826593418      3.73e-05   Normal BFGS step
   13    -399.3826595607      1.61e-05   Normal BFGS step
   14    -399.3826603105      5.45e-06  Convergence criterion met
The disked orbital energies are calculated using alpha and beta Focks
 ---------------------------------------
 SCF time:   CPU 475.37s  wall 478.00s 
<S^2> =          2.000000000
 SCF   energy in the final basis set =     -399.3826603105
 Total energy in the final basis set =     -399.3826603105
  
     ##========================================##
     ||                                        ||
     ||              R A S M A N 2             ||
     ||________________________________________||
     ||                                        ||
     ||  Author:                               ||
     ||                                        ||
     ||        David Casanova (2010)           ||
     ||                                        ||
     ##========================================##
  
Setting single-point xc-functionals (if necessary)

  ***************************************************
  *  RAS-CI Dimensions:                             *
  *                                                 *
  *  Active Elec.:  14 ( 8, 6)   Active Orb.:  12   *
  *  Doubly Occ. :  27           Doubly Vir.: 313   *
  *  Frozen Occ. :   0           Frozen Vir.:   0   *
  *                                                 *
  *  Total CI configurations:    457380             * 
  *    Active configurations:    457380             * 
  *      Hole configurations:         0             * 
  *  Particle configurations:         0             * 
  *                                                 *
  *   Requested states:       30                    *
  *  Spin multiplicity: Any multiplicity            *
  *                                                 *
  ***************************************************
-----------------------------------------
    Memory requirements of RASCI

 Each CI-vector requires      3.49 MiB 
 Max. subspace vectors           3000      

 Reduced Lists                0.01 MiB 
 Excitation Lists             0.01 MiB 
 Excitation Lists Sign        0.01 MiB 
 CI-space (Max)           10641.97 MiB 
 Integrals                  276.58 MiB 
 Memory required (Max)    10642.01 MiB 
 Memory available          7811.55 MiB 

 Q-Chem warning in module rasman2/ras_mem_check.C, line 162:

 Static memory may be insufficient to store the subspace vectors


    Disk requirements of RASCI

 Fock matrix                  1.89 MiB 
 2-electron integrals         0.32 MiB 
 CI-space                 20937.19 MiB 
 Disk required            20939.40 MiB 
-----------------------------------------
  
RAS1 HF-like energy:           -372.0060375684
 Computing integrals
 Computing J and K matrices
 Computing addressing
 Making amplitude guesses
 
Direct CI diagonalization
 ---------------------------------------------------
 Iter    Rts Conv    Rts Left    Ttl Dev     Max Dev
 ---------------------------------------------------
   1         0          30      0.005154    0.000247
   2         0          30      0.004991    0.000501
   3         0          30      0.004527    0.000356
   4         0          30      0.003712    0.000373
   5         0          30      0.003674    0.000411
   6         0          30      0.002842    0.000358
   7         1          29      0.002380    0.000300
   8         1          29      0.001797    0.000183
   9         1          29      0.001372    0.000261
  10         2          28      0.001457    0.000318
  11         5          25      0.001153    0.000300
  12         6          24      0.000981    0.000305
  13         8          22      0.001142    0.000259
  14         9          21      0.000780    0.000237
  15        11          19      0.000779    0.000228
  16        11          19      0.000693    0.000159
  17        14          16      0.000474    0.000120
  18        16          14      0.000329    0.000087
  19        18          12      0.000241    0.000063
  20        19          11      0.000177    0.000048
  21        20          10      0.000134    0.000038
  22        19          11      0.000204    0.000096
  23        23           7      0.000168    0.000062
  24        23           7      0.000127    0.000055
  25        24           6      0.000102    0.000043
  26        24           6      0.000083    0.000035
  27        25           5      0.000114    0.000052
  28        25           5      0.000118    0.000054
  29        25           5      0.000091    0.000038
  30        25           5      0.000068    0.000031
  31        26           4      0.000053    0.000024
  32        26           4      0.000044    0.000020
  33        26           4      0.000040    0.000018
  34        26           4      0.000036    0.000017
  35        26           4      0.000032    0.000015
  36        27           3      0.000028    0.000012
  37        28           2      0.000024    0.000010
  38        28           2      0.000021    0.000009
  39        28           2      0.000019    0.000007
  40        28           2      0.000016    0.000006
  41        28           2      0.000014    0.000005
  42        28           2      0.000013    0.000004
  43        28           2      0.000011    0.000003
  44        28           2      0.000010    0.000002
  45        28           2      0.000009    0.000002
  46        28           2      0.000008    0.000001
  47        30           0      0.000008    0.000001    Roots Converged
 ---------------------------------------------------
   
**************************************************
 RAS-CI total energy for state   1:   -399.390367946866
  Excitation energy (eV) =  0.000000000000
  State symmetry: A'    (Cs       )
  <S^2>      :  2.0000
  Dipole Moment:   -0.4108 X     0.8193 Y     0.0000 Z
 NATURAL OCCUPATION NUMBERS (higher than 1.0E-05)
            1           2           3           4           5           6
    1   2.0000000   2.0000000   2.0000000   2.0000000   2.0000000   2.0000000
            7           8           9          10          11          12
    1   2.0000000   2.0000000   2.0000000   2.0000000   2.0000000   2.0000000
           13          14          15          16          17          18
    1   2.0000000   2.0000000   2.0000000   2.0000000   2.0000000   2.0000000
           19          20          21          22          23          24
    1   2.0000000   2.0000000   2.0000000   2.0000000   2.0000000   2.0000000
           25          26          27          28          29          30
    1   2.0000000   2.0000000   2.0000000   1.9999181   1.9999075   1.9998952
           31          32          33          34          35          36
    1   1.9998169   1.9997549   1.9777154   0.9992475   0.9991137   0.0139762
           37          38          39
    1   0.0101093   0.0003596   0.0001855

 Head-Gordon Nu:    2.05
 Head-Gordon Nu_nl: 2.00
 Created directory ./qchem364253/plots

  Amplitudes : 
  
 | HOLE  | ALPHA        | BETA         | PART  |    AMPLITUDE 
--------------------------------------------------
 |       | 111111110000 | 111111000000 |       |     9.9198709120207E-01
--------------------------------------------------
*** Contributions RASCI wfn    Active: 100.00
                                 Hole:   0.00
                                 Part:   0.00

      Mulliken population analysis 
 ---------------------------------------------------
   Atom    Charge (a.u.)   Spin (a.u.)  
 ---------------------------------------------------
   1  C   -0.029880        0.000346 
   2  C    0.340198        0.018743 
   3  C   -0.120820        0.722795 
   4  C   -0.147374        0.096426 
   5  C   -0.096498        0.091865 
   6  C   -0.234269        0.745175 
   7  N   -0.357012        0.084700 
   8  C   -0.180625        0.116314 
   9  C   -0.124949        0.049429 
  10  C    0.012017        0.065496 
  11  H    0.135133        0.001410 
  12  H    0.130469        0.000224 
  13  H    0.127404       -0.000769 
  14  H    0.141791        0.002998 
  15  H    0.131035        0.000443 
  16  H    0.130802        0.000380 
  17  H    0.142577        0.004025 
 ---------------------------------------------------
   Sum:    0.000000        2.000000 
 ---------------------------------------------------
 
      Analysis of the transition density matrix (wrt ground state)
 -------------------------------------
   Atom      e-      h+     Total     
 -------------------------------------
      1  -6.0231   6.0231   0.0000
      2  -5.6726   5.6726   0.0000
      3  -6.8375   6.8375  -0.0000
      4  -6.2392   6.2392  -0.0000
      5  -6.1841   6.1841   0.0000
      6  -6.9748   6.9748  -0.0000
      7  -7.4390   7.4390   0.0000
      8  -6.2912   6.2912  -0.0000
      9  -6.1667   6.1667   0.0000
     10  -6.0447   6.0447  -0.0000
     11  -0.8662   0.8662   0.0000
     12  -0.8697   0.8697   0.0000
     13  -0.8718   0.8718   0.0000
     14  -0.8612   0.8612  -0.0000
     15  -0.8694   0.8694   0.0000
     16  -0.8696   0.8696  -0.0000
     17  -0.8614   0.8614  -0.0000
  Sum:  -69.9422  69.9422  -0.0000
 -------------------------------------
 
      Analysis of the difference density matrix (wrt ground state)
 -------------------------------------
   Atom   Attach   Detach   Total     
 -------------------------------------
      1   0.0000   0.0000   0.0000
      2   0.0000   0.0000   0.0000
      3   0.0000   0.0000   0.0000
      4   0.0000   0.0000   0.0000
      5   0.0000   0.0000   0.0000
      6   0.0000   0.0000   0.0000
      7   0.0000   0.0000   0.0000
      8   0.0000   0.0000   0.0000
      9   0.0000   0.0000   0.0000
     10   0.0000   0.0000   0.0000
     11   0.0000   0.0000   0.0000
     12   0.0000   0.0000   0.0000
     13   0.0000   0.0000   0.0000
     14   0.0000   0.0000   0.0000
     15   0.0000   0.0000   0.0000
     16   0.0000   0.0000   0.0000
     17   0.0000   0.0000   0.0000
  Sum:    0.0000   0.0000   0.0000
 -------------------------------------
 
*** Unpaired Electrons
 Yamaguchi Nd:         2.09
  
**************************************************
 RAS-CI total energy for state   2:   -399.272768917914
  Excitation energy (eV) =  3.200032390334
  State symmetry: A'    (Cs       )
  <S^2>      :  2.0000
  Dipole Moment:   -0.2728 X     0.6252 Y    -0.0000 Z
  Trans. Moment:   -0.1781 X    -0.1432 Y     0.0000 Z
  Strength   :  0.004094
  Natural transition orbitals ( 1 -> 2 ):
   e-/hole pair  1 alpha:  ampl =  0.142095 (  2.0%)   [12 : 13]
   e-/hole pair  2 alpha:  ampl =  0.030409 (  0.1%)   [11 : 14]
   e-/hole pair  1 beta :  ampl =  0.778541 ( 60.6%)   [12 : 13]
   e-/hole pair  2 beta :  ampl =  0.009875 (  0.0%)   [11 : 14]
   Sum of square amplitudes: 0.63

 NATURAL OCCUPATION NUMBERS (higher than 1.0E-05)
            1           2           3           4           5           6
    1   2.0000000   2.0000000   2.0000000   2.0000000   2.0000000   2.0000000
            7           8           9          10          11          12
    1   2.0000000   2.0000000   2.0000000   2.0000000   2.0000000   2.0000000
           13          14          15          16          17          18
    1   2.0000000   2.0000000   2.0000000   2.0000000   2.0000000   2.0000000
           19          20          21          22          23          24
    1   2.0000000   2.0000000   2.0000000   2.0000000   2.0000000   2.0000000
           25          26          27          28          29          30
    1   2.0000000   2.0000000   2.0000000   1.9999259   1.9999126   1.9998860
           31          32          33          34          35          36
    1   1.9997453   1.9995424   1.8792196   1.0168780   0.9972910   0.0943147
           37          38          39
    1   0.0125856   0.0006383   0.0000606

 Head-Gordon Nu:    2.21
 Head-Gordon Nu_nl: 2.08

  Amplitudes : 
  
 | HOLE  | ALPHA        | BETA         | PART  |    AMPLITUDE 
--------------------------------------------------
 |       | 111111110000 | 111110100000 |       |     7.6834786354653E-01
 |       | 111111101000 | 111111000000 |       |     1.1423046551254E-01
 |       | 111111101000 | 111110100000 |       |     4.7636581450293E-01
 |       | 111111100100 | 111110100000 |       |     3.1942953856208E-01
 |       | 111111011000 | 111110010000 |       |    -1.7020988906789E-01
 |       | 111111010100 | 111110010000 |       |    -1.1519783379178E-01
--------------------------------------------------
*** Contributions RASCI wfn    Active: 100.00
                                 Hole:   0.00
                                 Part:   0.00

      Mulliken population analysis 
 ---------------------------------------------------
   Atom    Charge (a.u.)   Spin (a.u.)  
 ---------------------------------------------------
   1  C    0.066065        0.221320 
   2  C    0.420617        0.185985 
   3  C   -0.226620        0.080437 
   4  C   -0.060330        0.143130 
   5  C   -0.014802        0.126095 
   6  C   -0.362782        0.169761 
   7  N   -0.501654        0.175901 
   8  C   -0.426614        0.318307 
   9  C    0.042359        0.269855 
  10  C    0.126849        0.305180 
  11  H    0.136955        0.003015 
  12  H    0.131221        0.001040 
  13  H    0.123634        0.000546 
  14  H    0.138070       -0.000682 
  15  H    0.128339       -0.000085 
  16  H    0.137067       -0.000526 
  17  H    0.141624        0.000720 
 ---------------------------------------------------
   Sum:    0.000000        2.000000 
 ---------------------------------------------------
 
      Analysis of the transition density matrix (wrt ground state)
 -------------------------------------
   Atom      e-      h+     Total     
 -------------------------------------
      1  -0.0070   0.0015  -0.0055
      2  -0.0035   0.0015  -0.0020
      3  -0.0049   0.0225   0.0176
      4  -0.0004   0.0005   0.0002
      5  -0.0010   0.0015   0.0005
      6  -0.0024   0.0031   0.0007
      7  -0.0061   0.0009  -0.0052
      8  -0.0124   0.0052  -0.0072
      9  -0.0014   0.0014   0.0001
     10  -0.0047   0.0055   0.0008
     11  -0.0001   0.0000  -0.0001
     12  -0.0000   0.0000   0.0000
     13  -0.0000   0.0000  -0.0000
     14  -0.0001   0.0001   0.0001
     15  -0.0000   0.0000   0.0000
     16  -0.0000   0.0000   0.0000
     17  -0.0000   0.0000  -0.0000
  Sum:   -0.0440   0.0440  -0.0000
 -------------------------------------
 
      Analysis of the difference density matrix (wrt ground state)
 -------------------------------------
   Atom   Attach   Detach   Total     
 -------------------------------------
      1   0.0898  -0.1857  -0.0959
      2   0.0752  -0.1556  -0.0804
      3   0.3258  -0.2200   0.1058
      4   0.0519  -0.1389  -0.0870
      5   0.0437  -0.1254  -0.0817
      6   0.3414  -0.2129   0.1285
      7   0.1502  -0.0056   0.1446
      8   0.2609  -0.0149   0.2460
      9   0.0505  -0.2178  -0.1673
     10   0.0788  -0.1937  -0.1148
     11   0.0007  -0.0025  -0.0018
     12   0.0002  -0.0010  -0.0008
     13   0.0024   0.0013   0.0038
     14   0.0028   0.0009   0.0037
     15   0.0016   0.0011   0.0027
     16  -0.0031  -0.0032  -0.0063
     17   0.0028  -0.0018   0.0010
  Sum:    1.4757  -1.4757   0.0000
 -------------------------------------
 
*** Unpaired Electrons
 Yamaguchi Nd:         2.43
  
**************************************************
 RAS-CI total energy for state   3:   -399.248394120408
  Excitation energy (eV) =  3.863304376696
  State symmetry: A'    (Cs       )
  <S^2>      :  2.0000
  Dipole Moment:   -1.6567 X     0.6478 Y     0.0000 Z
  Trans. Moment:   -1.0856 X    -0.0466 Y     0.0000 Z
  Strength   :  0.111743
  Natural transition orbitals ( 1 -> 3 ):
   e-/hole pair  1 alpha:  ampl =  0.918335 ( 84.3%)   [12 : 13]
   e-/hole pair  2 alpha:  ampl =  0.018618 (  0.0%)   [11 : 14]
   e-/hole pair  1 beta :  ampl =  0.274143 (  7.5%)   [12 : 13]
   e-/hole pair  2 beta :  ampl =  0.054739 (  0.3%)   [11 : 14]
   Sum of square amplitudes: 0.92

 NATURAL OCCUPATION NUMBERS (higher than 1.0E-05)
            1           2           3           4           5           6
    1   2.0000000   2.0000000   2.0000000   2.0000000   2.0000000   2.0000000
            7           8           9          10          11          12
    1   2.0000000   2.0000000   2.0000000   2.0000000   2.0000000   2.0000000
           13          14          15          16          17          18
    1   2.0000000   2.0000000   2.0000000   2.0000000   2.0000000   2.0000000
           19          20          21          22          23          24
    1   2.0000000   2.0000000   2.0000000   2.0000000   2.0000000   2.0000000
           25          26          27          28          29          30
    1   2.0000000   2.0000000   2.0000000   1.9999049   1.9998602   1.9998152
           31          32          33          34          35          36
    1   1.9996598   1.9994999   1.8698631   1.0293841   0.9209759   0.1576454
           37          38          39
    1   0.0225694   0.0006423   0.0001798

 Head-Gordon Nu:    2.20
 Head-Gordon Nu_nl: 2.13

  Amplitudes : 
  
 | HOLE  | ALPHA        | BETA         | PART  |    AMPLITUDE 
--------------------------------------------------
 |       | 111111110000 | 111110100000 |       |    -1.1427833590424E-01
 |       | 111111110000 | 111110010000 |       |    -2.1008181210314E-01
 |       | 111111110000 | 111110001000 |       |    -1.0651828430628E-01
 |       | 111111101000 | 111111000000 |       |     7.0543158059377E-01
 |       | 111111101000 | 111110100000 |       |    -1.0632832338528E-01
 |       | 111111101000 | 111110010000 |       |    -1.5670388149020E-01
 |       | 111111100100 | 111111000000 |       |     5.5578677566358E-01
 |       | 111111100100 | 111110010000 |       |    -1.0558719674570E-01
 |       | 111111011000 | 111110100000 |       |     1.0450516286286E-01
 |       | 111110111000 | 111111000000 |       |     1.5469078456879E-01
 |       | 111110110100 | 111111000000 |       |     1.0562507904986E-01
--------------------------------------------------
*** Contributions RASCI wfn    Active: 100.00
                                 Hole:   0.00
                                 Part:   0.00

      Mulliken population analysis 
 ---------------------------------------------------
   Atom    Charge (a.u.)   Spin (a.u.)  
 ---------------------------------------------------
   1  C   -0.079446        0.150873 
   2  C    0.258954        0.148886 
   3  C    0.101935        0.447782 
   4  C   -0.169079        0.072749 
   5  C   -0.085404        0.079747 
   6  C   -0.059739        0.430543 
   7  N   -0.484373        0.185777 
   8  C   -0.406900        0.326089 
   9  C   -0.071422        0.065433 
  10  C    0.051601        0.084283 
  11  H    0.133979        0.003221 
  12  H    0.129841        0.000549 
  13  H    0.131343        0.000075 
  14  H    0.143309        0.001534 
  15  H    0.131474       -0.000286 
  16  H    0.131257        0.000223 
  17  H    0.142670        0.002523 
 ---------------------------------------------------
   Sum:    0.000000        2.000000 
 ---------------------------------------------------
 
      Analysis of the transition density matrix (wrt ground state)
 -------------------------------------
   Atom      e-      h+     Total     
 -------------------------------------
      1  -0.2263   0.0507  -0.1756
      2  -0.2239   0.0262  -0.1978
      3  -0.1443   0.6019   0.4576
      4  -0.0066   0.0183   0.0117
      5  -0.0039   0.0295   0.0256
      6  -0.0967   0.4892   0.3926
      7  -0.2764   0.0765  -0.1999
      8  -0.5382   0.1560  -0.3822
      9  -0.0647   0.1017   0.0370
     10  -0.0963   0.1280   0.0317
     11  -0.0062   0.0010  -0.0052
     12  -0.0004   0.0007   0.0003
     13  -0.0009   0.0009   0.0000
     14  -0.0020   0.0039   0.0019
     15  -0.0001   0.0004   0.0003
     16  -0.0000   0.0005   0.0005
     17  -0.0015   0.0031   0.0016
  Sum:   -1.6884   1.6884  -0.0000
 -------------------------------------
 
      Analysis of the difference density matrix (wrt ground state)
 -------------------------------------
   Atom   Attach   Detach   Total     
 -------------------------------------
      1   0.1186  -0.0691   0.0496
      2   0.1201  -0.0388   0.0812
      3   0.0905  -0.3133  -0.2228
      4   0.0337  -0.0120   0.0217
      5   0.0047  -0.0158  -0.0111
      6   0.0703  -0.2448  -0.1745
      7   0.1629  -0.0355   0.1274
      8   0.2983  -0.0721   0.2263
      9   0.0541  -0.1076  -0.0535
     10   0.0638  -0.1034  -0.0396
     11   0.0026  -0.0015   0.0012
     12   0.0011  -0.0004   0.0006
     13  -0.0013  -0.0026  -0.0039
     14  -0.0000  -0.0015  -0.0015
     15  -0.0002  -0.0002  -0.0004
     16  -0.0010   0.0005  -0.0005
     17   0.0021  -0.0022  -0.0001
  Sum:    1.0203  -1.0203   0.0000
 -------------------------------------
 
*** Unpaired Electrons
 Yamaguchi Nd:         2.58
  
**************************************************
 RAS-CI total energy for state   4:   -399.245769256810
  Excitation energy (eV) =  3.934730549254
  State symmetry: A'    (Cs       )
  <S^2>      :  2.0000
  Dipole Moment:   -0.9508 X     0.9949 Y     0.0000 Z
  Trans. Moment:    0.0458 X    -0.1451 Y     0.0000 Z
  Strength   :  0.002231
  Natural transition orbitals ( 1 -> 4 ):
   e-/hole pair  1 alpha:  ampl =  0.964931 ( 93.1%)   [12 : 13]
   e-/hole pair  2 alpha:  ampl =  0.044349 (  0.2%)   [11 : 14]
   e-/hole pair  1 beta :  ampl =  0.051336 (  0.3%)   [12 : 13]
   e-/hole pair  2 beta :  ampl =  0.034138 (  0.1%)   [11 : 14]
   Sum of square amplitudes: 0.94

 NATURAL OCCUPATION NUMBERS (higher than 1.0E-05)
            1           2           3           4           5           6
    1   2.0000000   2.0000000   2.0000000   2.0000000   2.0000000   2.0000000
            7           8           9          10          11          12
    1   2.0000000   2.0000000   2.0000000   2.0000000   2.0000000   2.0000000
           13          14          15          16          17          18
    1   2.0000000   2.0000000   2.0000000   2.0000000   2.0000000   2.0000000
           19          20          21          22          23          24
    1   2.0000000   2.0000000   2.0000000   2.0000000   2.0000000   2.0000000
           25          26          27          28          29          30
    1   2.0000000   2.0000000   2.0000000   1.9999214   1.9998950   1.9997902
           31          32          33          34          35          36
    1   1.9996317   1.9994926   1.9690040   1.0022238   0.9914252   0.0288508
           37          38          39
    1   0.0089637   0.0006209   0.0001807

 Head-Gordon Nu:    2.06
 Head-Gordon Nu_nl: 2.01

  Amplitudes : 
  
 | HOLE  | ALPHA        | BETA         | PART  |    AMPLITUDE 
--------------------------------------------------
 |       | 111111101000 | 111111000000 |       |    -5.8386973948866E-01
 |       | 111111100100 | 111111000000 |       |     7.5676583397791E-01
 |       | 111111100100 | 111110100000 |       |     1.4021340484575E-01
 |       | 111110110100 | 111111000000 |       |     1.1518991291728E-01
--------------------------------------------------
*** Contributions RASCI wfn    Active: 100.00
                                 Hole:   0.00
                                 Part:   0.00

      Mulliken population analysis 
 ---------------------------------------------------
   Atom    Charge (a.u.)   Spin (a.u.)  
 ---------------------------------------------------
   1  C   -0.141785        0.115461 
   2  C    0.211640        0.190850 
   3  C    0.183595        0.313152 
   4  C   -0.280705        0.246750 
   5  C   -0.243154        0.197137 
   6  C    0.041718        0.458595 
   7  N   -0.324494        0.054516 
   8  C   -0.113525        0.043277 
   9  C   -0.233391        0.164837 
  10  C   -0.045209        0.203906 
  11  H    0.133547        0.000007 
  12  H    0.128624        0.002127 
  13  H    0.130641        0.001996 
  14  H    0.149462        0.000910 
  15  H    0.131311        0.001796 
  16  H    0.126705        0.002643 
  17  H    0.145019        0.002042 
 ---------------------------------------------------
   Sum:    0.000000        2.000000 
 ---------------------------------------------------
 
      Analysis of the transition density matrix (wrt ground state)
 -------------------------------------
   Atom      e-      h+     Total     
 -------------------------------------
      1  -0.2166   0.0465  -0.1701
      2  -0.2568   0.0236  -0.2332
      3  -0.0253   0.6725   0.6472
      4  -0.3187   0.0322  -0.2865
      5  -0.3019   0.0422  -0.2597
      6  -0.0280   0.5690   0.5410
      7  -0.0203   0.0852   0.0649
      8  -0.0285   0.1691   0.1406
      9  -0.3273   0.0915  -0.2358
     10  -0.3305   0.1240  -0.2065
     11  -0.0000   0.0011   0.0010
     12  -0.0034   0.0006  -0.0028
     13  -0.0035   0.0009  -0.0026
     14  -0.0000   0.0044   0.0044
     15  -0.0034   0.0005  -0.0029
     16  -0.0032   0.0006  -0.0026
     17  -0.0000   0.0036   0.0036
  Sum:   -1.8675   1.8675  -0.0000
 -------------------------------------
 
      Analysis of the difference density matrix (wrt ground state)
 -------------------------------------
   Atom   Attach   Detach   Total     
 -------------------------------------
      1   0.1510  -0.0391   0.1119
      2   0.1535  -0.0250   0.1286
      3   0.0439  -0.3484  -0.3044
      4   0.1778  -0.0444   0.1333
      5   0.1689  -0.0223   0.1467
      6   0.0481  -0.3241  -0.2760
      7   0.0110  -0.0435  -0.0325
      8   0.0359  -0.1030  -0.0671
      9   0.1948  -0.0864   0.1084
     10   0.1746  -0.1174   0.0572
     11   0.0013   0.0003   0.0016
     12   0.0020  -0.0001   0.0018
     13   0.0001  -0.0034  -0.0032
     14  -0.0033  -0.0044  -0.0077
     15   0.0009  -0.0012  -0.0003
     16   0.0021   0.0020   0.0041
     17   0.0004  -0.0028  -0.0024
  Sum:    1.1630  -1.1630   0.0000
 -------------------------------------
 
*** Unpaired Electrons
 Yamaguchi Nd:         2.14
  
**************************************************
 RAS-CI total energy for state   5:   -399.214218944135
  Excitation energy (eV) =  4.793258237663
  State symmetry: A'    (Cs       )
  <S^2>      :  2.0000
  Dipole Moment:    0.5847 X     0.9841 Y    -0.0000 Z
  Trans. Moment:    0.0976 X     0.0042 Y     0.0000 Z
  Strength   :  0.001121
  Natural transition orbitals ( 1 -> 5 ):
   e-/hole pair  1 alpha:  ampl =  0.181391 (  3.3%)   [12 : 13]
   e-/hole pair  2 alpha:  ampl =  0.047504 (  0.2%)   [11 : 14]
   e-/hole pair  1 beta :  ampl =  0.113238 (  1.3%)   [12 : 13]
   e-/hole pair  2 beta :  ampl =  0.018717 (  0.0%)   [11 : 14]
   Sum of square amplitudes: 0.05

 NATURAL OCCUPATION NUMBERS (higher than 1.0E-05)
            1           2           3           4           5           6
    1   2.0000000   2.0000000   2.0000000   2.0000000   2.0000000   2.0000000
            7           8           9          10          11          12
    1   2.0000000   2.0000000   2.0000000   2.0000000   2.0000000   2.0000000
           13          14          15          16          17          18
    1   2.0000000   2.0000000   2.0000000   2.0000000   2.0000000   2.0000000
           19          20          21          22          23          24
    1   2.0000000   2.0000000   2.0000000   2.0000000   2.0000000   2.0000000
           25          26          27          28          29          30
    1   2.0000000   2.0000000   2.0000000   1.9999306   1.9999253   1.9998690
           31          32          33          34          35          36
    1   1.9997344   1.9996564   1.7910938   1.0100086   0.9871821   0.2024280
           37          38          39
    1   0.0096086   0.0004998   0.0000634

 Head-Gordon Nu:    2.40
 Head-Gordon Nu_nl: 2.27

  Amplitudes : 
  
 | HOLE  | ALPHA        | BETA         | PART  |    AMPLITUDE 
--------------------------------------------------
 |       | 111111101000 | 111110100000 |       |    -6.0325619727510E-01
 |       | 111111100100 | 111111000000 |       |    -1.5364416314317E-01
 |       | 111111100100 | 111110100000 |       |     6.9932154938579E-01
 |       | 111111011000 | 111110010000 |       |     1.9069028080056E-01
 |       | 111111010100 | 111110010000 |       |    -2.2568286230746E-01
--------------------------------------------------
*** Contributions RASCI wfn    Active: 100.00
                                 Hole:   0.00
                                 Part:   0.00

      Mulliken population analysis 
 ---------------------------------------------------
   Atom    Charge (a.u.)   Spin (a.u.)  
 ---------------------------------------------------
   1  C    0.009504        0.295992 
   2  C    0.305533        0.255994 
   3  C   -0.146141        0.115554 
   4  C   -0.205648        0.236715 
   5  C   -0.130033        0.306193 
   6  C   -0.251750       -0.029951 
   7  N   -0.348094        0.012129 
   8  C   -0.141266        0.039768 
   9  C   -0.062172        0.393645 
  10  C    0.029573        0.365364 
  11  H    0.136710       -0.000342 
  12  H    0.129629        0.002884 
  13  H    0.124209        0.002575 
  14  H    0.143147        0.000191 
  15  H    0.128357        0.001513 
  16  H    0.135484        0.002076 
  17  H    0.142957       -0.000300 
 ---------------------------------------------------
   Sum:    0.000000        2.000000 
 ---------------------------------------------------
 
      Analysis of the transition density matrix (wrt ground state)
 -------------------------------------
   Atom      e-      h+     Total     
 -------------------------------------
      1  -0.0034   0.0044   0.0010
      2  -0.0155   0.0017  -0.0138
      3  -0.0032   0.0065   0.0033
      4  -0.0105   0.0010  -0.0095
      5  -0.0096  -0.0005  -0.0101
      6  -0.0034   0.0398   0.0364
      7  -0.0027   0.0046   0.0019
      8  -0.0023   0.0024   0.0001
      9  -0.0102   0.0083  -0.0019
     10  -0.0092   0.0019  -0.0073
     11  -0.0000   0.0000  -0.0000
     12  -0.0001   0.0001  -0.0001
     13  -0.0001   0.0000  -0.0001
     14  -0.0000   0.0001   0.0000
     15  -0.0001   0.0000  -0.0001
     16  -0.0001   0.0000  -0.0001
     17  -0.0000   0.0002   0.0002
  Sum:   -0.0705   0.0705  -0.0000
 -------------------------------------
 
      Analysis of the difference density matrix (wrt ground state)
 -------------------------------------
   Atom   Attach   Detach   Total     
 -------------------------------------
      1   0.1327  -0.1721  -0.0394
      2   0.1650  -0.1303   0.0347
      3   0.3055  -0.2802   0.0253
      4   0.2025  -0.1442   0.0583
      5   0.1893  -0.1558   0.0335
      6   0.3090  -0.2915   0.0175
      7   0.0392  -0.0481  -0.0089
      8   0.0438  -0.0832  -0.0394
      9   0.1742  -0.2370  -0.0628
     10   0.2011  -0.2187  -0.0176
     11  -0.0004  -0.0012  -0.0016
     12   0.0016  -0.0008   0.0008
     13   0.0027   0.0005   0.0032
     14   0.0004  -0.0018  -0.0014
     15   0.0025   0.0002   0.0027
     16  -0.0012  -0.0035  -0.0047
     17   0.0018  -0.0021  -0.0004
  Sum:    1.7697  -1.7697   0.0000
 -------------------------------------
 
*** Unpaired Electrons
 Yamaguchi Nd:         2.76
  
**************************************************
 RAS-CI total energy for state   6:   -399.172375138970
  Excitation energy (eV) =  5.931886107774
  State symmetry: A'    (Cs       )
  <S^2>      :  2.0000
  Dipole Moment:    0.7961 X     0.4456 Y    -0.0000 Z
  Trans. Moment:    0.2961 X    -0.2820 Y     0.0000 Z
  Strength   :  0.024292
  Natural transition orbitals ( 1 -> 6 ):
   e-/hole pair  1 alpha:  ampl =  0.163199 (  2.7%)   [12 : 13]
   e-/hole pair  2 alpha:  ampl =  0.125095 (  1.6%)   [11 : 14]
   e-/hole pair  1 beta :  ampl =  0.599516 ( 35.9%)   [12 : 13]
   e-/hole pair  2 beta :  ampl =  0.013118 (  0.0%)   [11 : 14]
   Sum of square amplitudes: 0.40

 NATURAL OCCUPATION NUMBERS (higher than 1.0E-05)
            1           2           3           4           5           6
    1   2.0000000   2.0000000   2.0000000   2.0000000   2.0000000   2.0000000
            7           8           9          10          11          12
    1   2.0000000   2.0000000   2.0000000   2.0000000   2.0000000   2.0000000
           13          14          15          16          17          18
    1   2.0000000   2.0000000   2.0000000   2.0000000   2.0000000   2.0000000
           19          20          21          22          23          24
    1   2.0000000   2.0000000   2.0000000   2.0000000   2.0000000   2.0000000
           25          26          27          28          29          30
    1   2.0000000   2.0000000   2.0000000   1.9999086   1.9998888   1.9998605
           31          32          33          34          35          36
    1   1.9997894   1.9995641   1.7331294   1.0282454   0.9472641   0.2140232
           37          38          39
    1   0.0776512   0.0006050   0.0000704

 Head-Gordon Nu:    2.48
 Head-Gordon Nu_nl: 2.38

  Amplitudes : 
  
 | HOLE  | ALPHA        | BETA         | PART  |    AMPLITUDE 
--------------------------------------------------
 |       | 111111110000 | 111110100000 |       |     5.4124513561948E-01
 |       | 111111110000 | 111110010000 |       |    -1.5514284538116E-01
 |       | 111111110000 | 111110001000 |       |    -2.0958551498769E-01
 |       | 111111110000 | 111110000100 |       |     1.1824406818124E-01
 |       | 111111101000 | 111110100000 |       |    -4.8821287814513E-01
 |       | 111111100100 | 111110100000 |       |    -4.7841897859237E-01
 |       | 111111011000 | 111110100000 |       |     1.7783389891772E-01
 |       | 111111011000 | 111110010000 |       |     1.5715191737936E-01
 |       | 111111010100 | 111111000000 |       |    -1.2672831764112E-01
 |       | 111111010100 | 111110010000 |       |     1.6019807307476E-01
--------------------------------------------------
*** Contributions RASCI wfn    Active: 100.00
                                 Hole:   0.00
                                 Part:   0.00

      Mulliken population analysis 
 ---------------------------------------------------
   Atom    Charge (a.u.)   Spin (a.u.)  
 ---------------------------------------------------
   1  C    0.026016        0.201529 
   2  C    0.360507        0.216182 
   3  C   -0.412304        0.366781 
   4  C   -0.042021        0.141780 
   5  C    0.022760        0.140443 
   6  C   -0.437447        0.298042 
   7  N   -0.375525        0.067348 
   8  C   -0.260714        0.098028 
   9  C    0.050213        0.239630 
  10  C    0.132348        0.222392 
  11  H    0.139110        0.001384 
  12  H    0.131853        0.000987 
  13  H    0.122211        0.000148 
  14  H    0.136089        0.002585 
  15  H    0.127586        0.000580 
  16  H    0.139116       -0.000251 
  17  H    0.140201        0.002412 
 ---------------------------------------------------
   Sum:    0.000000        2.000000 
 ---------------------------------------------------
 
      Analysis of the transition density matrix (wrt ground state)
 -------------------------------------
   Atom      e-      h+     Total     
 -------------------------------------
      1  -0.0113   0.0035  -0.0078
      2  -0.0124   0.0030  -0.0094
      3  -0.0060   0.0317   0.0256
      4  -0.0054   0.0057   0.0004
      5  -0.0055   0.0063   0.0008
      6  -0.0040   0.0235   0.0195
      7  -0.0087   0.0018  -0.0070
      8  -0.0167   0.0043  -0.0124
      9  -0.0069   0.0032  -0.0037
     10  -0.0087   0.0029  -0.0059
     11  -0.0002   0.0000  -0.0002
     12  -0.0001   0.0000  -0.0000
     13  -0.0001   0.0000  -0.0001
     14  -0.0001   0.0002   0.0001
     15  -0.0001   0.0000  -0.0000
     16  -0.0001   0.0000  -0.0000
     17  -0.0001   0.0001   0.0001
  Sum:   -0.0862   0.0862  -0.0000
 -------------------------------------
 
      Analysis of the difference density matrix (wrt ground state)
 -------------------------------------
   Atom   Attach   Detach   Total     
 -------------------------------------
      1   0.1200  -0.1759  -0.0559
      2   0.1408  -0.1611  -0.0203
      3   0.4118  -0.1203   0.2915
      4   0.0390  -0.1443  -0.1054
      5   0.0161  -0.1353  -0.1193
      6   0.3756  -0.1725   0.2032
      7   0.0883  -0.0698   0.0185
      8   0.1880  -0.1079   0.0801
      9   0.0663  -0.2415  -0.1752
     10   0.0806  -0.2009  -0.1203
     11  -0.0002  -0.0038  -0.0040
     12   0.0000  -0.0014  -0.0014
     13   0.0033   0.0019   0.0052
     14   0.0035   0.0022   0.0057
     15   0.0022   0.0013   0.0034
     16  -0.0045  -0.0039  -0.0083
     17   0.0034  -0.0010   0.0024
  Sum:    1.5342  -1.5342   0.0000
 -------------------------------------
 
*** Unpaired Electrons
 Yamaguchi Nd:         2.99
  
**************************************************
 RAS-CI total energy for state   7:   -399.171471179608
  Excitation energy (eV) =  5.956484093536
  State symmetry: A'    (Cs       )
  <S^2>      :  6.0000
  Dipole Moment:   -0.8126 X     0.3007 Y    -0.0000 Z
  Trans. Moment:   -0.0000 X     0.0000 Y    -0.0000 Z
  Strength   :  0.000000
  Natural transition orbitals ( 1 -> 7 ):
   e-/hole pair  1 alpha:  ampl =  0.496368 ( 24.6%)   [12 : 13]
   e-/hole pair  2 alpha:  ampl =  0.036205 (  0.1%)   [11 : 14]
   e-/hole pair  1 beta :  ampl =  0.496368 ( 24.6%)   [12 : 13]
   e-/hole pair  2 beta :  ampl =  0.036205 (  0.1%)   [11 : 14]
   Sum of square amplitudes: 0.50

 NATURAL OCCUPATION NUMBERS (higher than 1.0E-05)
            1           2           3           4           5           6
    1   2.0000000   2.0000000   2.0000000   2.0000000   2.0000000   2.0000000
            7           8           9          10          11          12
    1   2.0000000   2.0000000   2.0000000   2.0000000   2.0000000   2.0000000
           13          14          15          16          17          18
    1   2.0000000   2.0000000   2.0000000   2.0000000   2.0000000   2.0000000
           19          20          21          22          23          24
    1   2.0000000   2.0000000   2.0000000   2.0000000   2.0000000   2.0000000
           25          26          27          28          29          30
    1   2.0000000   2.0000000   2.0000000   1.9999600   1.9999414   1.9999258
           31          32          33          34          35          36
    1   1.9998781   1.9998367   1.0000054   1.0000013   0.9999821   0.9999172
           37          38          39
    1   0.0002617   0.0002504   0.0000398

 Head-Gordon Nu:    4.00
 Head-Gordon Nu_nl: 4.00

  Amplitudes : 
  
 | HOLE  | ALPHA        | BETA         | PART  |    AMPLITUDE 
--------------------------------------------------
 |       | 111111110000 | 111110001000 |       |     4.8896348823710E-01
 |       | 111111110000 | 111110000100 |       |     1.0330833103765E-01
 |       | 111111101000 | 111110010000 |       |    -4.8896342101000E-01
 |       | 111111100100 | 111110010000 |       |    -1.0330802563534E-01
 |       | 111111011000 | 111110100000 |       |     4.8896336094363E-01
 |       | 111111010100 | 111110100000 |       |     1.0330842379561E-01
 |       | 111110111000 | 111111000000 |       |    -4.8896334965388E-01
 |       | 111110110100 | 111111000000 |       |    -1.0330828831049E-01
--------------------------------------------------
*** Contributions RASCI wfn    Active: 100.00
                                 Hole:   0.00
                                 Part:   0.00

      Mulliken population analysis 
 ---------------------------------------------------
   Atom    Charge (a.u.)   Spin (a.u.)  
 ---------------------------------------------------
   1  C   -0.075756        0.197126 
   2  C    0.445347        0.100670 
   3  C   -0.177804        0.404534 
   4  C   -0.051980        0.114441 
   5  C   -0.022928        0.130239 
   6  C   -0.267927        0.396457 
   7  N   -0.467230        0.104009 
   8  C   -0.446955        0.204972 
   9  C    0.079640        0.133779 
  10  C    0.044379        0.206355 
  11  H    0.135933        0.002051 
  12  H    0.131278        0.000558 
  13  H    0.126065        0.000519 
  14  H    0.141019        0.001450 
  15  H    0.129320        0.000134 
  16  H    0.136402        0.000376 
  17  H    0.141197        0.002329 
 ---------------------------------------------------
   Sum:    0.000000        2.000000 
 ---------------------------------------------------
 
      Analysis of the transition density matrix (wrt ground state)
 -------------------------------------
   Atom      e-      h+     Total     
 -------------------------------------
      1  -0.1077   0.0892  -0.0185
      2  -0.0193   0.0710   0.0517
      3  -0.0388   0.0059  -0.0329
      4  -0.0087   0.0562   0.0475
      5  -0.0187   0.0609   0.0422
      6  -0.0185   0.0029  -0.0156
      7  -0.0586   0.0028  -0.0558
      8  -0.1384   0.0063  -0.1321
      9  -0.0077   0.1043   0.0966
     10  -0.0762   0.0951   0.0189
     11  -0.0015   0.0000  -0.0015
     12  -0.0000   0.0005   0.0005
     13  -0.0008   0.0004  -0.0003
     14  -0.0005   0.0000  -0.0005
     15  -0.0001   0.0003   0.0002
     16  -0.0002   0.0003   0.0001
     17  -0.0003   0.0000  -0.0003
  Sum:   -0.4961   0.4961  -0.0000
 -------------------------------------
 
      Analysis of the difference density matrix (wrt ground state)
 -------------------------------------
   Atom   Attach   Detach   Total     
 -------------------------------------
      1   0.2072  -0.1613   0.0459
      2   0.0381  -0.1432  -0.1051
      3   0.0791  -0.0221   0.0570
      4   0.0261  -0.1215  -0.0954
      5   0.0462  -0.1198  -0.0736
      6   0.0457  -0.0120   0.0337
      7   0.1177  -0.0075   0.1102
      8   0.2776  -0.0112   0.2663
      9   0.0174  -0.2220  -0.2046
     10   0.1642  -0.1966  -0.0324
     11   0.0016  -0.0024  -0.0008
     12   0.0004  -0.0012  -0.0008
     13   0.0018  -0.0004   0.0013
     14   0.0001   0.0006   0.0008
     15   0.0011   0.0006   0.0017
     16  -0.0027  -0.0029  -0.0056
     17   0.0017  -0.0003   0.0014
  Sum:    1.0233  -1.0233   0.0000
 -------------------------------------
 
*** Unpaired Electrons
 Yamaguchi Nd:         4.00
  
**************************************************
 RAS-CI total energy for state   8:   -399.164888199631
  Excitation energy (eV) =  6.135616092645
  State symmetry: A'    (Cs       )
  <S^2>      :  6.0000
  Dipole Moment:    0.1262 X     1.0015 Y    -0.0000 Z
  Trans. Moment:    0.0000 X     0.0000 Y    -0.0000 Z
  Strength   :  0.000000
  Natural transition orbitals ( 1 -> 8 ):
   e-/hole pair  1 alpha:  ampl =  0.496004 ( 24.6%)   [12 : 13]
   e-/hole pair  2 alpha:  ampl =  0.033613 (  0.1%)   [11 : 14]
   e-/hole pair  1 beta :  ampl =  0.496004 ( 24.6%)   [12 : 13]
   e-/hole pair  2 beta :  ampl =  0.033613 (  0.1%)   [11 : 14]
   Sum of square amplitudes: 0.50

 NATURAL OCCUPATION NUMBERS (higher than 1.0E-05)
            1           2           3           4           5           6
    1   2.0000000   2.0000000   2.0000000   2.0000000   2.0000000   2.0000000
            7           8           9          10          11          12
    1   2.0000000   2.0000000   2.0000000   2.0000000   2.0000000   2.0000000
           13          14          15          16          17          18
    1   2.0000000   2.0000000   2.0000000   2.0000000   2.0000000   2.0000000
           19          20          21          22          23          24
    1   2.0000000   2.0000000   2.0000000   2.0000000   2.0000000   2.0000000
           25          26          27          28          29          30
    1   2.0000000   2.0000000   2.0000000   1.9999424   1.9999204   1.9999123
           31          32          33          34          35          36
    1   1.9998924   1.9998239   1.0000126   0.9999843   0.9999696   0.9999287
           37          38          39
    1   0.0003150   0.0002534   0.0000451

 Head-Gordon Nu:    4.00
 Head-Gordon Nu_nl: 4.00

  Amplitudes : 
  
 | HOLE  | ALPHA        | BETA         | PART  |    AMPLITUDE 
--------------------------------------------------
 |       | 111111110000 | 111110001000 |       |    -1.0290959560268E-01
 |       | 111111110000 | 111110000100 |       |     4.8790826969749E-01
 |       | 111111101000 | 111110010000 |       |     1.0290914700234E-01
 |       | 111111100100 | 111110010000 |       |    -4.8790766632024E-01
 |       | 111111011000 | 111110100000 |       |    -1.0290957325510E-01
 |       | 111111010100 | 111110100000 |       |     4.8790890622202E-01
 |       | 111110111000 | 111111000000 |       |     1.0290981177981E-01
 |       | 111110110100 | 111111000000 |       |    -4.8790859427794E-01
--------------------------------------------------
*** Contributions RASCI wfn    Active: 100.00
                                 Hole:   0.00
                                 Part:   0.00

      Mulliken population analysis 
 ---------------------------------------------------
   Atom    Charge (a.u.)   Spin (a.u.)  
 ---------------------------------------------------
   1  C    0.108485        0.106974 
   2  C    0.250156        0.197322 
   3  C   -0.119385        0.372445 
   4  C   -0.190661        0.183929 
   5  C   -0.100587        0.169389 
   6  C   -0.245902        0.385779 
   7  N   -0.414317        0.077089 
   8  C   -0.232286        0.096910 
   9  C   -0.110113        0.228348 
  10  C    0.111148        0.173410 
  11  H    0.136341        0.000842 
  12  H    0.129719        0.001608 
  13  H    0.127278        0.000399 
  14  H    0.143482        0.001550 
  15  H    0.128753        0.001134 
  16  H    0.135489        0.000834 
  17  H    0.142401        0.002038 
 ---------------------------------------------------
   Sum:    0.000000        2.000000 
 ---------------------------------------------------
 
      Analysis of the transition density matrix (wrt ground state)
 -------------------------------------
   Atom      e-      h+     Total     
 -------------------------------------
      1  -0.0168   0.0888   0.0721
      2  -0.1148   0.0715  -0.0433
      3  -0.0099   0.0056  -0.0043
      4  -0.0768   0.0563  -0.0205
      5  -0.0623   0.0613  -0.0011
      6  -0.0168   0.0033  -0.0135
      7  -0.0277   0.0026  -0.0251
      8  -0.0270   0.0053  -0.0216
      9  -0.0975   0.1042   0.0067
     10  -0.0420   0.0944   0.0525
     11  -0.0003   0.0000  -0.0003
     12  -0.0010   0.0005  -0.0005
     13  -0.0004   0.0004   0.0000
     14  -0.0001   0.0000  -0.0001
     15  -0.0008   0.0003  -0.0006
     16  -0.0006   0.0003  -0.0003
     17  -0.0001   0.0000  -0.0001
  Sum:   -0.4950   0.4950  -0.0000
 -------------------------------------
 
      Analysis of the difference density matrix (wrt ground state)
 -------------------------------------
   Atom   Attach   Detach   Total     
 -------------------------------------
      1   0.0423  -0.1806  -0.1384
      2   0.2301  -0.1400   0.0900
      3   0.0208  -0.0223  -0.0014
      4   0.1642  -0.1209   0.0433
      5   0.1255  -0.1215   0.0041
      6   0.0411  -0.0295   0.0116
      7   0.0617  -0.0044   0.0573
      8   0.0655  -0.0139   0.0517
      9   0.2014  -0.2162  -0.0148
     10   0.0891  -0.1882  -0.0991
     11  -0.0001  -0.0011  -0.0012
     12   0.0017  -0.0009   0.0007
     13   0.0005  -0.0004   0.0001
     14  -0.0011  -0.0006  -0.0017
     15   0.0019   0.0004   0.0023
     16  -0.0013  -0.0034  -0.0047
     17   0.0007  -0.0005   0.0002
  Sum:    1.0440  -1.0440   0.0000
 -------------------------------------
 
*** Unpaired Electrons
 Yamaguchi Nd:         4.00
  
**************************************************
 RAS-CI total energy for state   9:   -399.153652559118
  Excitation energy (eV) =  6.441353426441
  State symmetry: A'    (Cs       )
  <S^2>      :  2.0000
  Dipole Moment:   -1.2654 X     0.7505 Y    -0.0000 Z
  Trans. Moment:   -1.6773 X    -0.0152 Y     0.0000 Z
  Strength   :  0.444000
  Natural transition orbitals ( 1 -> 9 ):
   e-/hole pair  1 alpha:  ampl =  0.348473 ( 12.1%)   [12 : 13]
   e-/hole pair  2 alpha:  ampl =  0.080282 (  0.6%)   [11 : 14]
   e-/hole pair  1 beta :  ampl =  0.818235 ( 67.0%)   [12 : 13]
   e-/hole pair  2 beta :  ampl =  0.020203 (  0.0%)   [11 : 14]
   Sum of square amplitudes: 0.80

 NATURAL OCCUPATION NUMBERS (higher than 1.0E-05)
            1           2           3           4           5           6
    1   2.0000000   2.0000000   2.0000000   2.0000000   2.0000000   2.0000000
            7           8           9          10          11          12
    1   2.0000000   2.0000000   2.0000000   2.0000000   2.0000000   2.0000000
           13          14          15          16          17          18
    1   2.0000000   2.0000000   2.0000000   2.0000000   2.0000000   2.0000000
           19          20          21          22          23          24
    1   2.0000000   2.0000000   2.0000000   2.0000000   2.0000000   2.0000000
           25          26          27          28          29          30
    1   2.0000000   2.0000000   2.0000000   1.9999082   1.9998915   1.9998586
           31          32          33          34          35          36
    1   1.9997682   1.9995601   1.4993859   1.1310987   0.9779467   0.3714242
           37          38          39
    1   0.0204254   0.0006237   0.0001089

 Head-Gordon Nu:    2.74
 Head-Gordon Nu_nl: 2.90

  Amplitudes : 
  
 | HOLE  | ALPHA        | BETA         | PART  |    AMPLITUDE 
--------------------------------------------------
 |       | 111111110000 | 111110100000 |       |     1.1761756203467E-01
 |       | 111111110000 | 111110010000 |       |     6.7489216437787E-01
 |       | 111111110000 | 111110001000 |       |     3.3513665521802E-01
 |       | 111111110000 | 111110000100 |       |     3.0209628312173E-01
 |       | 111111101000 | 111111000000 |       |     2.7114428699898E-01
 |       | 111111101000 | 111110010000 |       |     1.6851495780318E-01
 |       | 111111100100 | 111111000000 |       |     1.9744075840033E-01
 |       | 111111100100 | 111110100000 |       |    -1.3826685634155E-01
 |       | 111111100100 | 111110010000 |       |     1.6639662169730E-01
 |       | 111111011000 | 111110100000 |       |    -2.1598405001364E-01
 |       | 111111010100 | 111110100000 |       |    -1.9426434707044E-01
--------------------------------------------------
*** Contributions RASCI wfn    Active: 100.00
                                 Hole:   0.00
                                 Part:   0.00

      Mulliken population analysis 
 ---------------------------------------------------
   Atom    Charge (a.u.)   Spin (a.u.)  
 ---------------------------------------------------
   1  C    0.034281        0.148421 
   2  C    0.369350        0.117999 
   3  C   -0.112157        0.428318 
   4  C   -0.058452        0.179206 
   5  C    0.013736        0.176371 
   6  C   -0.303350        0.494730 
   7  N   -0.530096        0.021655 
   8  C   -0.444464        0.043215 
   9  C   -0.015250        0.200622 
  10  C    0.107231        0.181878 
  11  H    0.136114        0.000639 
  12  H    0.130225        0.000917 
  13  H    0.127263        0.000056 
  14  H    0.138360        0.001936 
  15  H    0.129791        0.000847 
  16  H    0.136173        0.000312 
  17  H    0.141245        0.002877 
 ---------------------------------------------------
   Sum:    0.000000        2.000000 
 ---------------------------------------------------
 
      Analysis of the transition density matrix (wrt ground state)
 -------------------------------------
   Atom      e-      h+     Total     
 -------------------------------------
      1  -0.0388   0.0020  -0.0369
      2  -0.0316   0.0040  -0.0276
      3  -0.0208   0.0702   0.0494
      4  -0.0025   0.0226   0.0201
      5  -0.0029   0.0190   0.0160
      6  -0.0139   0.1145   0.1005
      7  -0.0401   0.0126  -0.0275
      8  -0.0801   0.0138  -0.0663
      9  -0.0106   0.0014  -0.0093
     10  -0.0196   0.0011  -0.0184
     11  -0.0009   0.0001  -0.0008
     12  -0.0001   0.0000  -0.0001
     13  -0.0002   0.0000  -0.0002
     14  -0.0003   0.0005   0.0002
     15  -0.0000   0.0002   0.0002
     16  -0.0000   0.0002   0.0001
     17  -0.0002   0.0007   0.0005
  Sum:   -0.2627   0.2627  -0.0000
 -------------------------------------
 
      Analysis of the difference density matrix (wrt ground state)
 -------------------------------------
   Atom   Attach   Detach   Total     
 -------------------------------------
      1   0.0641  -0.1283  -0.0642
      2   0.0849  -0.1140  -0.0292
      3   0.0419  -0.0505  -0.0087
      4   0.0289  -0.1178  -0.0889
      5   0.0214  -0.1317  -0.1102
      6   0.0880  -0.0190   0.0691
      7   0.1787  -0.0057   0.1731
      8   0.2750  -0.0111   0.2638
      9   0.0838  -0.1935  -0.1097
     10   0.0716  -0.1668  -0.0952
     11   0.0014  -0.0024  -0.0010
     12   0.0009  -0.0006   0.0002
     13   0.0004  -0.0003   0.0001
     14   0.0011   0.0023   0.0034
     15   0.0007   0.0005   0.0012
     16  -0.0029  -0.0025  -0.0054
     17   0.0021  -0.0008   0.0013
  Sum:    0.9422  -0.9422   0.0000
 -------------------------------------
 
*** Unpaired Electrons
 Yamaguchi Nd:         3.38
  
**************************************************
 RAS-CI total energy for state  10:   -399.135827190902
  Excitation energy (eV) =  6.926406374309
  State symmetry: A"    (Cs       )
  <S^2>      :  2.0000
  Dipole Moment:   -0.4494 X     0.6955 Y    -0.0000 Z
  Trans. Moment:   -0.0000 X    -0.0000 Y     0.0132 Z
  Strength   :  0.000030
  Natural transition orbitals ( 1 -> 10 ):
   e-/hole pair  1 alpha:  ampl =  0.006699 (  0.0%)   [12 : 13]
   e-/hole pair  2 alpha:  ampl =  0.003853 (  0.0%)   [11 : 14]
   e-/hole pair  1 beta :  ampl =  0.857379 ( 73.5%)   [12 : 13]
   e-/hole pair  2 beta :  ampl =  0.064479 (  0.4%)   [11 : 14]
   Sum of square amplitudes: 0.74

 NATURAL OCCUPATION NUMBERS (higher than 1.0E-05)
            1           2           3           4           5           6
    1   2.0000000   2.0000000   2.0000000   2.0000000   2.0000000   2.0000000
            7           8           9          10          11          12
    1   2.0000000   2.0000000   2.0000000   2.0000000   2.0000000   2.0000000
           13          14          15          16          17          18
    1   2.0000000   2.0000000   2.0000000   2.0000000   2.0000000   2.0000000
           19          20          21          22          23          24
    1   2.0000000   2.0000000   2.0000000   2.0000000   2.0000000   2.0000000
           25          26          27          28          29          30
    1   2.0000000   2.0000000   2.0000000   1.9991040   1.9988323   1.9936649
           31          32          33          34          35          36
    1   1.9835965   1.9740564   1.9167897   1.0239469   1.0107150   0.0725778
           37          38          39
    1   0.0258669   0.0006424   0.0002071

 Head-Gordon Nu:    2.20
 Head-Gordon Nu_nl: 2.05

  Amplitudes : 
  
 | HOLE  | ALPHA        | BETA         | PART  |    AMPLITUDE 
--------------------------------------------------
 |       | 111111110000 | 111101100000 |       |     8.0507100143766E-01
 |       | 111111110000 | 111011100000 |       |    -2.3222882101326E-01
 |       | 111111101000 | 111101100000 |       |     3.5443564347710E-01
 |       | 111111101000 | 110111100000 |       |     1.1494958564602E-01
 |       | 111111100100 | 111101100000 |       |     2.5532436506385E-01
 |       | 111111011000 | 111101010000 |       |    -1.2603163171432E-01
--------------------------------------------------
*** Contributions RASCI wfn    Active: 100.00
                                 Hole:   0.00
                                 Part:   0.00

      Mulliken population analysis 
 ---------------------------------------------------
   Atom    Charge (a.u.)   Spin (a.u.)  
 ---------------------------------------------------
   1  C    0.013912        0.119490 
   2  C    0.368791        0.101821 
   3  C   -0.208952        0.229847 
   4  C   -0.117647        0.101736 
   5  C   -0.062652        0.092470 
   6  C   -0.344466        0.270983 
   7  N   -0.416981        0.214323 
   8  C   -0.267492        0.383441 
   9  C   -0.099635        0.135280 
  10  C    0.010434        0.149598 
  11  H    0.144324        0.011744 
  12  H    0.167581        0.038114 
  13  H    0.169835        0.046671 
  14  H    0.146048        0.010530 
  15  H    0.153463        0.023920 
  16  H    0.190476        0.057631 
  17  H    0.152960        0.012401 
 ---------------------------------------------------
   Sum:   -0.000000        2.000000 
 ---------------------------------------------------
 
      Analysis of the transition density matrix (wrt ground state)
 -------------------------------------
   Atom      e-      h+     Total     
 -------------------------------------
      1  -0.0000   0.0000  -0.0000
      2  -0.0000   0.0000  -0.0000
      3  -0.0000   0.0000   0.0000
      4  -0.0000   0.0000  -0.0000
      5   0.0000   0.0000   0.0000
      6  -0.0000   0.0000  -0.0000
      7  -0.0000   0.0000   0.0000
      8  -0.0000   0.0000  -0.0000
      9  -0.0000   0.0000  -0.0000
     10  -0.0000   0.0000   0.0000
     11   0.0000  -0.0000  -0.0000
     12   0.0000   0.0000   0.0000
     13   0.0000   0.0000   0.0000
     14   0.0000   0.0000   0.0000
     15   0.0000   0.0000   0.0000
     16   0.0000  -0.0000   0.0000
     17  -0.0000   0.0000   0.0000
  Sum:   -0.0001   0.0001   0.0000
 -------------------------------------
 
      Analysis of the difference density matrix (wrt ground state)
 -------------------------------------
   Atom   Attach   Detach   Total     
 -------------------------------------
      1   0.0748  -0.1186  -0.0438
      2   0.0740  -0.1026  -0.0286
      3   0.3457  -0.2576   0.0881
      4   0.0634  -0.0931  -0.0297
      5   0.0429  -0.0768  -0.0338
      6   0.3568  -0.2466   0.1102
      7   0.1293  -0.0693   0.0600
      8   0.2163  -0.1294   0.0869
      9   0.0491  -0.0744  -0.0253
     10   0.0589  -0.0573   0.0016
     11   0.0007  -0.0099  -0.0092
     12   0.0003  -0.0374  -0.0371
     13   0.0015  -0.0439  -0.0424
     14   0.0023  -0.0065  -0.0043
     15   0.0002  -0.0226  -0.0224
     16  -0.0017  -0.0580  -0.0597
     17   0.0022  -0.0126  -0.0104
  Sum:    1.4167  -1.4167   0.0000
 -------------------------------------
 
*** Unpaired Electrons
 Yamaguchi Nd:         2.45
  
**************************************************
 RAS-CI total energy for state  11:   -399.121107015030
  Excitation energy (eV) =  7.326962739475
  State symmetry: A"    (Cs       )
  <S^2>      :  2.0000
  Dipole Moment:   -0.9738 X     0.6841 Y     0.0000 Z
  Trans. Moment:    0.0000 X     0.0000 Y    -0.0299 Z
  Strength   :  0.000161
  Natural transition orbitals ( 1 -> 11 ):
   e-/hole pair  1 alpha:  ampl =  0.009655 (  0.0%)   [12 : 13]
   e-/hole pair  2 alpha:  ampl =  0.003337 (  0.0%)   [11 : 14]
   e-/hole pair  1 beta :  ampl =  0.943995 ( 89.1%)   [12 : 13]
   e-/hole pair  2 beta :  ampl =  0.118841 (  1.4%)   [11 : 14]
   Sum of square amplitudes: 0.91

 NATURAL OCCUPATION NUMBERS (higher than 1.0E-05)
            1           2           3           4           5           6
    1   2.0000000   2.0000000   2.0000000   2.0000000   2.0000000   2.0000000
            7           8           9          10          11          12
    1   2.0000000   2.0000000   2.0000000   2.0000000   2.0000000   2.0000000
           13          14          15          16          17          18
    1   2.0000000   2.0000000   2.0000000   2.0000000   2.0000000   2.0000000
           19          20          21          22          23          24
    1   2.0000000   2.0000000   2.0000000   2.0000000   2.0000000   2.0000000
           25          26          27          28          29          30
    1   2.0000000   2.0000000   2.0000000   1.9990301   1.9978846   1.9913674
           31          32          33          34          35          36
    1   1.9820176   1.9723954   1.9441424   1.0287450   1.0174681   0.0430319
           37          38          39
    1   0.0229773   0.0007334   0.0002068

 Head-Gordon Nu:    2.13
 Head-Gordon Nu_nl: 2.02

  Amplitudes : 
  
 | HOLE  | ALPHA        | BETA         | PART  |    AMPLITUDE 
--------------------------------------------------
 |       | 111111110000 | 111101100000 |       |     2.2692145387014E-01
 |       | 111111110000 | 111011100000 |       |     8.9069719439998E-01
 |       | 111111110000 | 110111010000 |       |    -1.1188802132940E-01
 |       | 111111110000 | 011111100000 |       |     1.1875103024912E-01
 |       | 111111101000 | 111101100000 |       |     1.1000388532527E-01
 |       | 111111101000 | 111011100000 |       |     1.8352652289217E-01
 |       | 111111100100 | 111011100000 |       |     1.3384623571890E-01
--------------------------------------------------
*** Contributions RASCI wfn    Active: 100.00
                                 Hole:   0.00
                                 Part:   0.00

      Mulliken population analysis 
 ---------------------------------------------------
   Atom    Charge (a.u.)   Spin (a.u.)  
 ---------------------------------------------------
   1  C    0.010087        0.059388 
   2  C    0.367115        0.054516 
   3  C   -0.231573        0.402425 
   4  C   -0.118803        0.123518 
   5  C   -0.034850        0.151936 
   6  C   -0.429551        0.370729 
   7  N   -0.364359        0.176250 
   8  C   -0.263845        0.208952 
   9  C   -0.120349        0.081657 
  10  C    0.006091        0.107437 
  11  H    0.150557        0.018520 
  12  H    0.138489        0.009264 
  13  H    0.127550        0.004939 
  14  H    0.197606        0.063520 
  15  H    0.174195        0.045718 
  16  H    0.135547        0.004485 
  17  H    0.256090        0.116747 
 ---------------------------------------------------
   Sum:    0.000000        2.000000 
 ---------------------------------------------------
 
      Analysis of the transition density matrix (wrt ground state)
 -------------------------------------
   Atom      e-      h+     Total     
 -------------------------------------
      1  -0.0000   0.0000  -0.0000
      2  -0.0000   0.0000  -0.0000
      3  -0.0000   0.0000  -0.0000
      4  -0.0000   0.0000  -0.0000
      5  -0.0000   0.0000   0.0000
      6  -0.0000   0.0001   0.0000
      7  -0.0000   0.0000  -0.0000
      8  -0.0001   0.0000  -0.0000
      9  -0.0000   0.0000  -0.0000
     10  -0.0000   0.0000  -0.0000
     11  -0.0000   0.0000   0.0000
     12   0.0000   0.0000   0.0000
     13   0.0000   0.0000   0.0000
     14   0.0000   0.0000   0.0000
     15  -0.0000   0.0000   0.0000
     16   0.0000   0.0000   0.0000
     17  -0.0000   0.0000   0.0000
  Sum:   -0.0002   0.0002  -0.0000
 -------------------------------------
 
      Analysis of the difference density matrix (wrt ground state)
 -------------------------------------
   Atom   Attach   Detach   Total     
 -------------------------------------
      1   0.0446  -0.0846  -0.0400
      2   0.0494  -0.0763  -0.0269
      3   0.2887  -0.1780   0.1108
      4   0.0780  -0.1065  -0.0286
      5   0.0471  -0.1088  -0.0616
      6   0.4467  -0.2514   0.1953
      7   0.0970  -0.0897   0.0073
      8   0.1141  -0.0308   0.0832
      9   0.0265  -0.0311  -0.0046
     10   0.0267  -0.0208   0.0059
     11   0.0010  -0.0164  -0.0154
     12   0.0005  -0.0085  -0.0080
     13   0.0013  -0.0014  -0.0001
     14   0.0028  -0.0586  -0.0558
     15   0.0015  -0.0446  -0.0432
     16  -0.0018  -0.0030  -0.0047
     17   0.0027  -0.1162  -0.1135
  Sum:    1.2267  -1.2267   0.0000
 -------------------------------------
 
*** Unpaired Electrons
 Yamaguchi Nd:         2.35
  
**************************************************
 RAS-CI total energy for state  12:   -399.102347131142
  Excitation energy (eV) =  7.837445152578
  State symmetry: A'    (Cs       )
  <S^2>      :  2.0000
  Dipole Moment:    0.3742 X     0.7578 Y    -0.0000 Z
  Trans. Moment:    0.2525 X     0.0369 Y     0.0000 Z
  Strength   :  0.012499
  Natural transition orbitals ( 1 -> 12 ):
   e-/hole pair  1 alpha:  ampl =  0.473105 ( 22.4%)   [12 : 13]
   e-/hole pair  2 alpha:  ampl =  0.090502 (  0.8%)   [11 : 14]
   e-/hole pair  1 beta :  ampl =  0.538859 ( 29.0%)   [12 : 13]
   e-/hole pair  2 beta :  ampl =  0.029857 (  0.1%)   [11 : 14]
   Sum of square amplitudes: 0.53

 NATURAL OCCUPATION NUMBERS (higher than 1.0E-05)
            1           2           3           4           5           6
    1   2.0000000   2.0000000   2.0000000   2.0000000   2.0000000   2.0000000
            7           8           9          10          11          12
    1   2.0000000   2.0000000   2.0000000   2.0000000   2.0000000   2.0000000
           13          14          15          16          17          18
    1   2.0000000   2.0000000   2.0000000   2.0000000   2.0000000   2.0000000
           19          20          21          22          23          24
    1   2.0000000   2.0000000   2.0000000   2.0000000   2.0000000   2.0000000
           25          26          27          28          29          30
    1   2.0000000   2.0000000   2.0000000   1.9999251   1.9998994   1.9998730
           31          32          33          34          35          36
    1   1.9997915   1.9996109   1.2449102   1.1509102   0.8019093   0.7374890
           37          38          39
    1   0.0650738   0.0005356   0.0000721

 Head-Gordon Nu:    3.21
 Head-Gordon Nu_nl: 3.64

  Amplitudes : 
  
 | HOLE  | ALPHA        | BETA         | PART  |    AMPLITUDE 
--------------------------------------------------
 |       | 111111110000 | 111110100000 |       |     2.2530201153814E-01
 |       | 111111110000 | 111110001000 |       |     2.8567940050396E-01
 |       | 111111110000 | 111110000100 |       |    -3.9888590092171E-01
 |       | 111111101000 | 111111000000 |       |     1.2171471222438E-01
 |       | 111111101000 | 111110100000 |       |    -1.4092034947191E-01
 |       | 111111101000 | 111110010000 |       |     2.7754844951934E-01
 |       | 111111100100 | 111111000000 |       |    -1.2378367771821E-01
 |       | 111111100100 | 111110100000 |       |    -1.2385197414900E-01
 |       | 111111100100 | 111110010000 |       |    -3.6209598578593E-01
 |       | 111111011000 | 111111000000 |       |    -1.5568742946731E-01
 |       | 111111011000 | 111110100000 |       |    -2.7883883578923E-01
 |       | 111111010100 | 111110100000 |       |     3.5990136373030E-01
 |       | 111110111000 | 111111000000 |       |    -2.7070803128678E-01
 |       | 111110110100 | 111111000000 |       |     3.2311107767123E-01
--------------------------------------------------
*** Contributions RASCI wfn    Active: 100.00
                                 Hole:   0.00
                                 Part:   0.00

      Mulliken population analysis 
 ---------------------------------------------------
   Atom    Charge (a.u.)   Spin (a.u.)  
[...]
||gamma^AB||_total       =  0.366233
||gamma^AB||_symmetrized =  0.365093
||gamma^AB||_anti-symm   =  0.028873
  
Spin-orbit couplings
 Using HF (reference) density for the 2-elec mean-field SOC contribution
KET: S',Sz' (Root  30) =  1.000 1.000
BRA: S ,Sz  (Root  29) =  1.000 1.000
Clebsh-Gordan coefficient: < 1.000, 1.000; 1.000, 0.000| 1.000, 1.000> =  0.707
 Reading 1e-SO integrals
 1e Reduced matrix elements (cm-1)
<S|| Hso(L-) ||S'> =    -0.0000000000    -0.0000000000i
<S|| Hso(L0) ||S'> =     0.0000000000     0.4537415992i
<S|| Hso(L+) ||S'> =    -0.0000000000     0.0000000000i
 1-elec SOC matrix (cm-1): < B(S,Sz) | Hso(1e) | A(S',Sz') >
                       |Sz'=-1.00>                |Sz'= 0.00>                |Sz'= 1.00>
 <Sz=-1.00|      0.000000     -0.320844i      -0.000000      0.000000i      -0.000000      0.000000i
 <Sz= 0.00|      0.000000      0.000000i       0.000000      0.000000i      -0.000000      0.000000i
 <Sz= 1.00|     -0.000000      0.000000i       0.000000      0.000000i       0.000000      0.320844i
1-elec SOCC =     0.453741599 cm-1
 Reading 2e-SOMF integrals
 2e-SOMF Reduced matrix elements (cm-1)
<S|| Hso(L-) ||S'> =     0.0000000000     0.0000000000i
<S|| Hso(L0) ||S'> =     0.0000000000    -0.2279491632i
<S|| Hso(L+) ||S'> =     0.0000000000    -0.0000000000i
 2-elec mean-field SOC matrix (cm-1): < B(S,Sz) | Hso(2e-mf) | A(S',Sz') >
                       |Sz'=-1.00>                |Sz'= 0.00>                |Sz'= 1.00>
 <Sz=-1.00|     -0.000000      0.161184i       0.000000     -0.000000i       0.000000     -0.000000i
 <Sz= 0.00|     -0.000000     -0.000000i      -0.000000     -0.000000i       0.000000     -0.000000i
 <Sz= 1.00|      0.000000     -0.000000i      -0.000000     -0.000000i      -0.000000     -0.161184i
 Total mean-field SOC matrix (cm-1): < B(S,Sz) | Hsomf | A(S',Sz') >
                       |Sz'=-1.00>                |Sz'= 0.00>                |Sz'= 1.00>
 <Sz=-1.00|      0.000000     -0.159659i      -0.000000      0.000000i      -0.000000      0.000000i
 <Sz= 0.00|      0.000000      0.000000i       0.000000      0.000000i      -0.000000      0.000000i
 <Sz= 1.00|     -0.000000      0.000000i       0.000000      0.000000i       0.000000      0.159659i
Mean-Field SOCC =     0.225792436 cm-1
   
**************************************************
RAS-CI timing summary (seconds)
  CPU time      16323.90s
  System time       0.56s
  Wall time     22495.19s
Detailed CPU timing summary
     Fock matrix         :        32.1164 s
     Integrals           :       474.4922 s
     Addressing matrices :         0.0002 s
     Guesses             :         0.0584 s
     Iterations          :     12908.6304 s
     Properties          :      2908.6018 s
     RAS-CI(2) correction:         0.0000 s
  
 
 --------------------------------------------------------------
             Orbital Energies (a.u.) and Symmetries
 --------------------------------------------------------------
 
 Alpha MOs, Restricted
 -- Doubly Occupied --           
-15.561 -11.285 -11.265 -11.255 -11.252 -11.250 -11.254 -11.246
  1 A'    2 A'    3 A'    4 A'    5 A'    6 A'    7 A'    8 A'                 
-11.251 -11.234  -1.251  -1.151  -1.092  -1.032  -1.016  -0.900
  9 A'   10 A'   11 A'   12 A'   13 A'   14 A'   15 A'   16 A'                 
 -0.849  -0.835  -0.736  -0.634  -0.627  -0.600  -0.565  -0.567
 17 A'   18 A'   19 A'   20 A'   21 A'   22 A'   23 A'    1 A"                 
 -0.482  -0.417  -0.414  -0.706  -0.690  -0.577  -0.530  -0.502
  2 A"   24 A'    3 A"   25 A'   26 A'   27 A'   28 A'   29 A'                 
 -0.365
  4 A"                                                                         
 -- Singly Occupied (Occupied) --
 -0.397  -0.240
  5 A"    6 A"                                                                 
 -- Virtual --                   
  0.108   0.113   0.351   0.360   0.152   0.163   0.174   0.189
  7 A"    8 A"   30 A'   31 A'   32 A'   33 A'   34 A'   35 A'                 
  0.197   0.204   0.213   0.207   0.230   0.266   0.288   0.295
 36 A'   37 A'   38 A'    9 A"   39 A'   40 A'   41 A'   10 A"                 
  0.300   0.311   0.321   0.328   0.349   0.376   0.375   0.397
 42 A'   43 A'   44 A'   11 A"   12 A"   45 A'   13 A"   14 A"                 
  0.405   0.421   0.420   0.442   0.456   0.453   0.459   0.475
 46 A'   47 A'   15 A"   48 A'   49 A'   16 A"   50 A'   51 A'                 
  0.490   0.500   0.503   0.504   0.525   0.533   0.557   0.561
 52 A'   53 A'   17 A"   18 A"   54 A'   55 A'   56 A'   57 A'                 
  0.574   0.574   0.581   0.581   0.604   0.619   0.626   0.636
 58 A'   19 A"   59 A'   60 A'   61 A'   62 A'   63 A'   20 A"                 
  0.642   0.652   0.669   0.684   0.692   0.706   0.716   0.733
 64 A'   65 A'   66 A'   21 A"   67 A'   68 A'   69 A'   22 A"                 
  0.746   0.778   0.791   0.827   0.844   0.845   0.860   0.857
 70 A'   71 A'   72 A'   73 A'   74 A'   75 A'   76 A'   23 A"                 
  0.865   0.875   0.893   0.904   0.916   0.921   0.948   0.965
 77 A'   78 A'   79 A'   24 A"   80 A'   25 A"   81 A'   26 A"                 
  0.980   0.991   1.005   1.019   1.035   1.062   1.088   1.086
 82 A'   83 A'   27 A"   84 A'   85 A'   86 A'   87 A'   28 A"                 
  1.098   1.123   1.152   1.171   1.199   1.196   1.231   1.238
 29 A"   88 A'   89 A'   90 A'   91 A'   30 A"   92 A'   31 A"                 
  1.294   1.325   1.335   1.344   1.365   1.387   1.412   1.425
 93 A'   32 A"   94 A'   33 A"   95 A'   96 A'   97 A'   34 A"                 
  1.431   1.445   1.445   1.465   1.497   1.509   1.529   1.533
 98 A'   99 A'   35 A"  100 A'  101 A'  102 A'   36 A"  103 A'                 
  1.555   1.577   1.612   1.628   1.669   1.679   1.706   1.700
 37 A"  104 A'  105 A'  106 A'   38 A"  107 A'  108 A'   39 A"                 
  1.718   1.733   1.752   1.763   1.766   1.797   1.812   1.824
109 A'  110 A'   40 A"  111 A'   41 A"  112 A'   42 A"  113 A'                 
  1.834   1.858   1.878   1.893   1.901   1.941   1.948   1.968
114 A'  115 A'   43 A"   44 A"  116 A'  117 A'   45 A"  118 A'                 
  1.979   1.987   2.011   2.015   2.030   2.059   2.072   2.093
 46 A"  119 A'   47 A"  120 A'   48 A"  121 A'  122 A'   49 A"                 
  2.125   2.148   2.209   2.212   2.233   2.260   2.264   2.287
 50 A"   51 A"  123 A'   52 A"  124 A'   53 A"  125 A'   54 A"                 
  2.303   2.338   2.343   2.396   2.426   2.437   2.448   2.454
126 A'  127 A'  128 A'  129 A'  130 A'  131 A'  132 A'   55 A"                 
  2.476   2.511   2.540   2.544   2.577   2.579   2.617   2.643
133 A'  134 A'  135 A'  136 A'   56 A"  137 A'  138 A'   57 A"                 
  2.668   2.721   2.740   2.757   2.792   2.797   2.816   2.838
139 A'  140 A'   58 A"  141 A'  142 A'   59 A"  143 A'  144 A'                 
  2.868   2.885   2.901   2.914   2.920   2.950   2.952   2.969
145 A'  146 A'  147 A'   60 A"  148 A'  149 A'   61 A"  150 A'                 
  2.973   2.979   3.005   3.023   3.038   3.047   3.052   3.071
 62 A"  151 A'   63 A"  152 A'  153 A'   64 A"  154 A'   65 A"                 
  3.080   3.102   3.113   3.132   3.130   3.162   3.165   3.176
155 A'  156 A'   66 A"  157 A'   67 A"  158 A'   68 A"  159 A'                 
  3.204   3.215   3.223   3.222   3.255   3.286   3.288   3.303
160 A'  161 A'  162 A'   69 A"   70 A"   71 A"  163 A'  164 A'                 
  3.324   3.329   3.362   3.365   3.398   3.402   3.417   3.418
165 A'   72 A"  166 A'   73 A"  167 A'   74 A"   75 A"  168 A'                 
  3.446   3.449   3.471   3.481   3.510   3.515   3.517   3.560
 76 A"  169 A'  170 A'   77 A"   78 A"  171 A'   79 A"  172 A'                 
  3.569   3.583   3.592   3.609   3.611   3.610   3.619   3.646
 80 A"  173 A'  174 A'  175 A'  176 A'   81 A"   82 A"  177 A'                 
  3.659   3.677   3.692   3.696   3.715   3.731   3.751   3.775
 83 A"  178 A'  179 A'   84 A"  180 A'   85 A"  181 A'  182 A'                 
  3.776   3.809   3.829   3.832   3.849   3.853   3.877   3.899
 86 A"  183 A'  184 A'   87 A"   88 A"  185 A'   89 A"  186 A'                 
  3.927   3.942   3.966   4.007   4.049   4.068   4.088   4.114
187 A'   90 A"  188 A'  189 A'  190 A'   91 A"  191 A'  192 A'                 
  4.162   4.164   4.187   4.200   4.221   4.266   4.300   4.319
193 A'   92 A"  194 A'   93 A"  195 A'  196 A'  197 A'  198 A'                 
  4.383   4.391   4.399   4.428   4.444   4.455   4.472   4.527
199 A'  200 A'   94 A"   95 A"  201 A'  202 A'   96 A"  203 A'                 
  4.543   4.549   4.554   4.586   4.593   4.629   4.652   4.670
204 A'   97 A"  205 A'  206 A'   98 A"  207 A'  208 A'   99 A"                 
  4.725   4.772   4.810   4.810   4.913   4.932   4.945   4.957
100 A"  209 A'  210 A'  101 A"  102 A"  211 A'  212 A'  213 A'                 
  5.033   5.056   5.117   5.148   5.184   5.236   5.263   5.300
103 A"  214 A'  215 A'  216 A'  217 A'  218 A'  219 A'  220 A'                 
  5.318   5.355   5.373   5.468   5.496   5.554   5.585   5.599
104 A"  105 A"  221 A'  222 A'  223 A'  224 A'  225 A'  106 A"                 
  5.638   5.702   5.711   5.812   5.831   5.925   6.042   6.164
226 A'  107 A"  227 A'  228 A'  229 A'  230 A'  231 A'  232 A'                 
  6.176   6.282   6.639  23.250  23.501  23.611  23.717  23.840
233 A'  234 A'  235 A'  236 A'  237 A'  238 A'  239 A'  240 A'                 
 23.905  23.919  24.023  24.517  33.848
241 A'  242 A'  243 A'  244 A'  245 A'                                         
 
 Beta MOs, Restricted
 -- Doubly Occupied --           
-15.559 -11.285 -11.264 -11.253 -11.251 -11.248 -11.240 -11.244
  1 A'    2 A'    3 A'    4 A'    5 A'    6 A'    7 A'    8 A'                 
-11.237 -11.234  -1.240  -1.123  -1.076  -1.024  -0.967  -0.879
  9 A'   10 A'   11 A'   12 A'   13 A'   14 A'   15 A'   16 A'                 
 -0.840  -0.812  -0.722  -0.632  -0.613  -0.589  -0.559  -0.529
 17 A'   18 A'   19 A'   20 A'   21 A'   22 A'   23 A'    1 A"                 
 -0.415  -0.412  -0.369  -0.698  -0.682  -0.570  -0.521  -0.494
  2 A"   24 A'    3 A"   25 A'   26 A'   27 A'   28 A'   29 A'                 
 -0.335
  4 A"                                                                         
 -- Singly Occupied (Vacant) --  
  0.027   0.149
  5 A"    6 A"                                                                 
 -- Virtual --                   
  0.144   0.146   0.355   0.364   0.154   0.164   0.176   0.191
  7 A"    8 A"   30 A'   31 A'   32 A'   33 A'   34 A'   35 A'                 
  0.199   0.206   0.218   0.251   0.233   0.274   0.292   0.311
 36 A'   37 A'   38 A'    9 A"   39 A'   40 A'   41 A'   10 A"                 
  0.305   0.317   0.325   0.345   0.357   0.386   0.410   0.413
 42 A'   43 A'   44 A'   11 A"   12 A"   45 A'   13 A"   14 A"                 
  0.410   0.427   0.431   0.448   0.461   0.477   0.476   0.480
 46 A'   47 A'   15 A"   48 A'   49 A'   16 A"   50 A'   51 A'                 
  0.495   0.507   0.519   0.525   0.539   0.539   0.561   0.571
 52 A'   53 A'   17 A"   18 A"   54 A'   55 A'   56 A'   57 A'                 
  0.579   0.586   0.585   0.589   0.610   0.627   0.638   0.659
 58 A'   19 A"   59 A'   60 A'   61 A'   62 A'   63 A'   20 A"                 
  0.648   0.655   0.673   0.697   0.695   0.710   0.723   0.745
 64 A'   65 A'   66 A'   21 A"   67 A'   68 A'   69 A'   22 A"                 
  0.751   0.785   0.796   0.831   0.848   0.850   0.867   0.872
 70 A'   71 A'   72 A'   73 A'   74 A'   75 A'   76 A'   23 A"                 
  0.871   0.878   0.900   0.926   0.922   0.954   0.953   0.980
 77 A'   78 A'   79 A'   24 A"   80 A'   25 A"   81 A'   26 A"                 
  0.985   0.996   1.021   1.023   1.049   1.067   1.095   1.106
 82 A'   83 A'   27 A"   84 A'   85 A'   86 A'   87 A'   28 A"                 
  1.112   1.131   1.158   1.177   1.205   1.216   1.245   1.252
 29 A"   88 A'   89 A'   90 A'   91 A'   30 A"   92 A'   31 A"                 
  1.305   1.343   1.339   1.354   1.370   1.394   1.420   1.445
 93 A'   32 A"   94 A'   33 A"   95 A'   96 A'   97 A'   34 A"                 
  1.440   1.449   1.459   1.468   1.502   1.513   1.543   1.536
 98 A'   99 A'   35 A"  100 A'  101 A'  102 A'   36 A"  103 A'                 
  1.563   1.584   1.618   1.633   1.691   1.682   1.709   1.723
 37 A"  104 A'  105 A'  106 A'   38 A"  107 A'  108 A'   39 A"                 
  1.722   1.739   1.761   1.768   1.804   1.801   1.822   1.827
109 A'  110 A'   40 A"  111 A'   41 A"  112 A'   42 A"  113 A'                 
  1.839   1.861   1.888   1.904   1.903   1.945   1.979   1.974
114 A'  115 A'   43 A"   44 A"  116 A'  117 A'   45 A"  118 A'                 
  1.990   1.993   2.018   2.019   2.039   2.062   2.074   2.102
 46 A"  119 A'   47 A"  120 A'   48 A"  121 A'  122 A'   49 A"                 
  2.141   2.157   2.219   2.218   2.237   2.268   2.266   2.294
 50 A"   51 A"  123 A'   52 A"  124 A'   53 A"  125 A'   54 A"                 
  2.307   2.343   2.349   2.405   2.435   2.448   2.457   2.460
126 A'  127 A'  128 A'  129 A'  130 A'  131 A'  132 A'   55 A"                 
  2.482   2.516   2.545   2.548   2.586   2.584   2.621   2.658
133 A'  134 A'  135 A'  136 A'   56 A"  137 A'  138 A'   57 A"                 
  2.671   2.732   2.753   2.760   2.801   2.806   2.819   2.844
139 A'  140 A'   58 A"  141 A'  142 A'   59 A"  143 A'  144 A'                 
  2.871   2.891   2.906   2.931   2.926   2.952   2.959   2.979
145 A'  146 A'  147 A'   60 A"  148 A'  149 A'   61 A"  150 A'                 
  2.986   2.982   3.018   3.030   3.043   3.054   3.058   3.082
 62 A"  151 A'   63 A"  152 A'  153 A'   64 A"  154 A'   65 A"                 
  3.084   3.109   3.119   3.139   3.143   3.166   3.178   3.179
155 A'  156 A'   66 A"  157 A'   67 A"  158 A'   68 A"  159 A'                 
  3.210   3.228   3.228   3.233   3.271   3.292   3.293   3.310
160 A'  161 A'  162 A'   69 A"   70 A"   71 A"  163 A'  164 A'                 
  3.331   3.340   3.366   3.374   3.408   3.408   3.427   3.432
165 A'   72 A"  166 A'   73 A"  167 A'   74 A"   75 A"  168 A'                 
  3.452   3.454   3.478   3.495   3.520   3.521   3.533   3.563
 76 A"  169 A'  170 A'   77 A"   78 A"  171 A'   79 A"  172 A'                 
  3.575   3.587   3.595   3.616   3.614   3.625   3.630   3.648
 80 A"  173 A'  174 A'  175 A'  176 A'   81 A"   82 A"  177 A'                 
  3.673   3.681   3.697   3.710   3.718   3.741   3.756   3.780
 83 A"  178 A'  179 A'   84 A"  180 A'   85 A"  181 A'  182 A'                 
  3.784   3.814   3.834   3.842   3.859   3.859   3.886   3.902
 86 A"  183 A'  184 A'   87 A"   88 A"  185 A'   89 A"  186 A'                 
  3.930   3.949   3.971   4.011   4.052   4.077   4.091   4.120
187 A'   90 A"  188 A'  189 A'  190 A'   91 A"  191 A'  192 A'                 
  4.166   4.171   4.191   4.209   4.225   4.270   4.306   4.324
193 A'   92 A"  194 A'   93 A"  195 A'  196 A'  197 A'  198 A'                 
  4.390   4.397   4.411   4.435   4.448   4.459   4.485   4.531
199 A'  200 A'   94 A"   95 A"  201 A'  202 A'   96 A"  203 A'                 
  4.546   4.557   4.557   4.590   4.600   4.634   4.655   4.676
204 A'   97 A"  205 A'  206 A'   98 A"  207 A'  208 A'   99 A"                 
  4.731   4.774   4.814   4.815   4.921   4.936   4.949   4.960
100 A"  209 A'  210 A'  101 A"  102 A"  211 A'  212 A'  213 A'                 
  5.041   5.059   5.122   5.153   5.187   5.239   5.267   5.303
103 A"  214 A'  215 A'  216 A'  217 A'  218 A'  219 A'  220 A'                 
  5.324   5.361   5.377   5.471   5.499   5.557   5.588   5.603
104 A"  105 A"  221 A'  222 A'  223 A'  224 A'  225 A'  106 A"                 
  5.641   5.705   5.713   5.814   5.834   5.929   6.045   6.166
226 A'  107 A"  227 A'  228 A'  229 A'  230 A'  231 A'  232 A'                 
  6.179   6.283   6.640  23.253  23.503  23.616  23.720  23.844
233 A'  234 A'  235 A'  236 A'  237 A'  238 A'  239 A'  240 A'                 
 23.908  23.920  24.024  24.518  33.849
241 A'  242 A'  243 A'  244 A'  245 A'                                         
 --------------------------------------------------------------
 
          Ground-State Mulliken Net Atomic Charges

     Atom                 Charge (a.u.)
  ----------------------------------------
      1 C                    -0.029935
      2 C                     0.342025
      3 C                    -0.127124
      4 C                    -0.146937
      5 C                    -0.095394
      6 C                    -0.238304
      7 N                    -0.352746
      8 C                    -0.170629
      9 C                    -0.131159
     10 C                     0.011574
     11 H                     0.134971
     12 H                     0.130503
     13 H                     0.127210
     14 H                     0.141617
     15 H                     0.130938
     16 H                     0.130819
     17 H                     0.142573
  ----------------------------------------
  Sum of atomic charges =     0.000000

 -----------------------------------------------------------------
                    Cartesian Multipole Moments
 -----------------------------------------------------------------
    Charge (ESU x 10^10)
                 0.0000
    Dipole Moment (Debye)
         X       1.0015      Y      -2.0828      Z      -0.0000
       Tot       2.3111
    Quadrupole Moments (Debye-Ang)
        XX     -50.0813     XY       2.8344     YY     -55.2981
        XZ      -0.0000     YZ      -0.0000     ZZ     -63.5081
    Octopole Moments (Debye-Ang^2)
       XXX      -6.6194    XXY      -0.1654    XYY       8.1339
       YYY     -14.3141    XXZ      -0.0000    XYZ       0.0000
       YYZ      -0.0000    XZZ      -0.9267    YZZ       1.7073
       ZZZ      -0.0000
    Hexadecapole Moments (Debye-Ang^3)
      XXXX   -1077.8959   XXXY      -6.7361   XXYY    -254.7494
      XYYY      19.8469   YYYY    -484.7221   XXXZ       0.0000
      XXYZ       0.0000   XYYZ       0.0000   YYYZ      -0.0000
      XXZZ    -242.8018   XYZZ      -1.6524   YYZZ    -105.5474
      XZZZ       0.0000   YZZZ      -0.0000   ZZZZ     -74.3673
 -----------------------------------------------------------------
 Total job time:  22974.57s(wall), 16799.71s(cpu) 
 Fri Sep  6 22:22:07 2024

======= MOLDEN-FORMATTED INPUT FILE FOLLOWS =======
[Molden Format]
[Atoms] (AU)
  C      1    6     -0.05593536     -1.39899161     -0.00000000
  C      2    6     -0.07824159      1.32565544      0.00000000
  C      3    6      2.30163753     -2.65387134     -0.00000000
  C      4    6      4.66676118     -1.26546844     -0.00000000
  C      5    6      4.64977069      1.30166493     -0.00000000
  C      6    6      2.27228008      2.63779677     -0.00000000
  N      7    7     -2.21022627      2.69455778      0.00000000
  C      8    6     -2.39957932     -2.64206160      0.00000000
  C      9    6     -4.66405604     -1.16489291      0.00000000
  C     10    6     -4.48783933      1.40510655      0.00000000
  H     11    1     -2.48679248     -4.68675168      0.00000000
  H     12    1     -6.49474439     -2.07908603      0.00000000
  H     13    1     -6.15389841      2.59447469      0.00000000
  H     14    1      2.34325269     -4.70160545     -0.00000000
  H     15    1      6.42666574     -2.30971758     -0.00000000
  H     16    1      6.39510352      2.36936437     -0.00000000
  H     17    1      2.21321014      4.68179048     -0.00000000

======= END OF MOLDEN-FORMATTED INPUT FILE =======


        *************************************************************
        *                                                           *
        *  Thank you very much for using Q-Chem.  Have a nice day.  *
        *                                                           *
        *************************************************************


