                  Welcome to Q-Chem
     A Quantum Leap Into The Future Of Chemistry


 Q-Chem 5.4 (devel), Q-Chem, Inc., Pleasanton, CA (2021)

 E. Epifanovsky,  A. T. B. Gilbert,  Xintian Feng,  Joonho Lee,  Yuezhi Mao,  
 N. Mardirossian,  P. Pokhilko,  A. White,  M. Wormit,  M. P. Coons,  
 A. L. Dempwolff,  Zhengting Gan,  D. Hait,  P. R. Horn,  L. D. Jacobson,  
 I. Kaliman,  J. Kussmann,  A. W. Lange,  Ka Un Lao,  D. S. Levine,  Jie Liu,  
 S. C. McKenzie,  A. F. Morrison,  K. Nanda,  F. Plasser,  D. R. Rehn,  
 M. L. Vidal,  Zhi-Qiang You,  Ying Zhu,  B. Alam,  B. Albrecht,  
 A. Aldossary,  E. Alguire,  J. H. Andersen,  D. Barton,  K. Begam,  A. Behn,  
 Y. A. Bernard,  E. J. Berquist,  H. Burton,  A. Carreras,  K. Carter-Fenk,  
 Romit Chakraborty,  A. D. Chien,  K. D. Closser,  V. Cofer-Shabica,  
 S. Dasgupta,  Jia Deng,  M. de Wergifosse,  M. Diedenhofen,  Hainam Do,  
 S. Ehlert,  Po-Tung Fang,  S. Fatehi,  Qingguo Feng,  T. Friedhoff,  
 J. Gayvert,  Qinghui Ge,  G. Gidofalvi,  M. Goldey,  J. Gomes,  
 C. Gonzalez-Espinoza,  S. Gulania,  A. Gunina,  M. W. D. Hanson-Heine,  
 P. H. P. Harbach,  A. W. Hauser,  M. F. Herbst,  M. Hernandez Vera,  
 M. Hodecker,  Z. C. Holden,  S. Houck,  Xunkun Huang,  Kerwin Hui,  
 B. C. Huynh,  M. Ivanov,  Hyunjun Ji,  Hanjie Jiang,  B. Kaduk,  S. Kaehler,  
 K. Khistyaev,  Jaehoon Kim,  P. Klunzinger,  Z. Koczor-Benda,  
 Joong Hoon Koh,  D. Kosenkov,  L. Koulias,  T. Kowalczyk,  C. M. Krauter,  
 K. Kue,  A. Kunitsa,  T. Kus,  A. Landau,  K. V. Lawler,  D. Lefrancois,  
 S. Lehtola,  Rain Li,  Yi-Pei Li,  Jiashu Liang,  M. Liebenthal,  
 Hung-Hsuan Lin,  You-Sheng Lin,  Fenglai Liu,  Kuan-Yu Liu,  
 M. Loipersberger,  A. Luenser,  A. Manjanath,  P. Manohar,  E. Mansoor,  
 S. F. Manzer,  Shan-Ping Mao,  A. V. Marenich,  T. Markovich,  S. Mason,  
 S. A. Maurer,  P. F. McLaughlin,  M. F. S. J. Menger,  J.-M. Mewes,  
 S. A. Mewes,  P. Morgante,  J. W. Mullinax,  K. J. Oosterbaan,  G. Paran,  
 Alexander C. Paul,  Suranjan K. Paul,  F. Pavosevic,  Zheng Pei,  S. Prager,  
 E. I. Proynov,  E. Ramos,  B. Rana,  A. E. Rask,  A. Rettig,  R. M. Richard,  
 F. Rob,  E. Rossomme,  T. Scheele,  M. Scheurer,  M. Schneider,  
 N. Sergueev,  S. M. Sharada,  W. Skomorowski,  D. W. Small,  C. J. Stein,  
 Yu-Chuan Su,  E. J. Sundstrom,  Zhen Tao,  J. Thirman,  T. Tsuchimochi,  
 N. M. Tubman,  S. P. Veccham,  O. Vydrov,  J. Wenzel,  J. Witte,  A. Yamada,  
 Kun Yao,  S. Yeganeh,  S. R. Yost,  A. Zech,  Igor Ying Zhang,  Xing Zhang,  
 Yu Zhang,  D. Zuev,  A. Aspuru-Guzik,  A. T. Bell,  N. A. Besley,  
 K. B. Bravaya,  B. R. Brooks,  D. Casanova,  Jeng-Da Chai,  S. Coriani,  
 C. J. Cramer,  A. E. DePrince, III,  R. A. DiStasio Jr.,  A. Dreuw,  
 B. D. Dunietz,  T. R. Furlani,  W. A. Goddard III,  S. Grimme,  
 S. Hammes-Schiffer,  T. Head-Gordon,  W. J. Hehre,  Chao-Ping Hsu,  
 T.-C. Jagau,  Yousung Jung,  A. Klamt,  Jing Kong,  D. S. Lambrecht,  
 WanZhen Liang,  N. J. Mayhall,  C. W. McCurdy,  J. B. Neaton,  T. Neudecker,  
 C. Ochsenfeld,  J. A. Parkhill,  R. Peverati,  V. A. Rassolov,  Yihan Shao,  
 L. V. Slipchenko,  R. P. Steele,  J. E. Subotnik,  A. J. W. Thom,  
 A. Tkatchenko,  D. G. Truhlar,  T. Van Voorhis,  T. A. Wesolowski,  
 K. B. Whaley,  H. L. Woodcock III,  P. M. Zimmerman,  S. Faraji,  
 P. M. W. Gill,  M. Head-Gordon,  J. M. Herbert,  A. I. Krylov

 Additional authors since Version 5.4.0: 
 Chandrima Chakravarty,  L. Cunha,  R. Kang,  Yongbin Kim,  S. Kotaru,  
 Shaozhi Li,  Xiangyuan Li,  F. Matz,  V. Parravicini,  Haisheng Ren,  
 Hengyuan Shen,  Yingli Su,  Hung-Yi Tsai,  C. Utku,  Fan Wang,  Jeff Yang,  
 F. Zeller

 Contributors to earlier versions of Q-Chem not listed above: 
 R. D. Adamson,  B. Austin,  R. Baer,  J. Baker,  G. J. O. Beran,  
 K. Brandhorst,  S. T. Brown,  E. F. C. Byrd,  Arup K. Chakraborty,  
 G. K. L. Chan,  Chun-Min Chang,  Yunqing Chen,  C.-L. Cheng,  
 Siu Hung Chien,  D. M. Chipman,  D. L. Crittenden,  H. Dachsel,  
 R. J. Doerksen,  A. D. Dutoi,  R. G. Edgar,  J. Fosso-Tande,  
 L. Fusti-Molnar,  D. Ghosh,  A. Ghysels,  A. Golubeva-Zadorozhnaya,  
 J. Gonthier,  M. S. Gordon,  S. R. Gwaltney,  G. Hawkins,  J. E. Herr,  
 A. Heyden,  S. Hirata,  E. G. Hohenstein,  G. Kedziora,  F. J. Keil,  
 C. Kelley,  Jihan Kim,  R. A. King,  R. Z. Khaliullin,  P. P. Korambath,  
 W. Kurlancheek,  A. Laurent,  A. M. Lee,  M. S. Lee,  S. V. Levchenko,  
 Ching Yeh Lin,  D. Liotard,  E. Livshits,  R. C. Lochan,  I. Lotan,  
 L. A. Martinez-Martinez,  P. E. Maslen,  N. Nair,  D. P. O'Neill,  
 D. Neuhauser,  E. Neuscamman,  C. M. Oana,  R. Olivares-Amaya,  R. Olson,  
 T. M. Perrine,  B. Peters,  P. A. Pieniazek,  A. Prociuk,  Y. M. Rhee,  
 J. Ritchie,  M. A. Rohrdanz,  E. Rosta,  N. J. Russ,  H. F. Schaefer III,  
 M. W. Schmidt,  N. E. Schultz,  S. Sharma,  N. Shenvi,  C. D. Sherrill,  
 A. C. Simmonett,  A. Sodt,  T. Stein,  D. Stuck,  K. S. Thanthiriwatte,  
 V. Vanovschi,  L. Vogt,  Tao Wang,  A. Warshel,  M. A. Watson,  
 C. F. Williams,  Q. Wu,  X. Xu,  Jun Yang,  W. Zhang,  Yan Zhao

   Please cite Q-Chem as follows:
  "Software for the frontiers of quantum chemistry:
   An overview of developments in the Q-Chem 5 package"
   J. Chem. Phys. 155, 084801 (2021)
   https://doi.org/10.1063/5.0055522 (open access)

 Q-Chem 5.4.2 for Intel X86 EM64T Linux

 Parts of Q-Chem use Armadillo 9.900.5 (Nocturnal Misbehaviour).
 http://arma.sourceforge.net/

 Q-Chem begins on Wed Jun 22 17:20:23 2022  

orc23
 Host: 0

     Scratch files written to /scratch/sven/qchem6434//
 Processing $rem in /qcsoftware/qchem_latest/config/preferences:
 Processing $rem in /home/users/sven/.qchemrc:
 Core orbitals will be frozen

 Checking the input file for inconsistencies... 	...done.

--------------------------------------------------------------
User input:
--------------------------------------------------------------
$molecule
-2 1
  Cr   -0.0000000   -0.0000000    0.4729165
  N   -0.0000000   -0.0000000    2.0441515
  N   -0.0000000    0.0000000   -3.0421146
  C   -0.0000000    0.0000000   -1.8664355
  C    1.4332171   -1.4332171    0.1852237
  N    2.2578930   -2.2578930    0.0518905
  N    2.2578930    2.2578930    0.0518905
  C    1.4332171    1.4332171    0.1852237
  C   -1.4332171    1.4332171    0.1852237
  N   -2.2578930    2.2578930    0.0518905
  C   -1.4332171   -1.4332171    0.1852237
  N   -2.2578930   -2.2578930    0.0518905
$end

$rem
   BASIS  =  def2-TZVP
   METHOD  =  EOM-MP2
    UNRESTRICTED = FALSE
 THRESH = 15
    SCF_ALGORITHM = DIIS_GDM
    THRESH_DIIS_SWITCH = 4
    MAX_SCF_CYCLES =  250
    EA_STATES         = [15,5,15,15]
    CC_STATE_TO_OPT   = [2,1]
 CC_REF_PROP = 1
 CC_EOM_PROP = 1
 CC_EOM_PROP_TE           = 1
 CC_TRANS_PROP            = 1
 CALC_SOC = TRUE
 EOM_DAVIDSON_MAX_ITER = 250
 MEM_TOTAL = 90000
 CC_MEMORY = 72000
 MEM_STATIC = 1000
 CHOLESKY_TOL = 3
 PRINT_ORBITALS   = 15
 MOLDEN_FORMAT    = TRUE
 STATE_ANALYSIS = TRUE
$end


--------------------------------------------------------------
 ----------------------------------------------------------------
             Standard Nuclear Orientation (Angstroms)
    I     Atom           X                Y                Z
 ----------------------------------------------------------------
    1      Cr      0.0000000000    -0.0000000000     0.4826670823
    2      N       0.0000000000    -0.0000000000     2.0539020823
    3      N       0.0000000000    -0.0000000000    -3.0323640177
    4      C       0.0000000000    -0.0000000000    -1.8566849177
    5      C       2.0268750606    -0.0000000000     0.1949742823
    6      N       3.1931429030    -0.0000000000     0.0616410823
    7      N       0.0000000000     3.1931429030     0.0616410823
    8      C       0.0000000000     2.0268750606     0.1949742823
    9      C      -2.0268750606     0.0000000000     0.1949742823
   10      N      -3.1931429030     0.0000000000     0.0616410823
   11      C      -0.0000000000    -2.0268750606     0.1949742823
   12      N      -0.0000000000    -3.1931429030     0.0616410823
 ----------------------------------------------------------------
 Molecular Point Group                 C2v   NOp =  4
 Largest Abelian Subgroup              C2v   NOp =  4
 Nuclear Repulsion Energy =         767.07148954 hartrees
 There are       49 alpha and       49 beta electrons
 Requested basis set is def2-TZVP
 There are 136 shells and 386 basis functions
 Total memory of 90000 MB is distributed as follows: 
   MEM_STATIC is set to 1000 MB
   QALLOC/CCMAN JOB total memory use is  89000 MB
 Warning: actual memory use might exceed 90000 MB

 Total QAlloc Memory Limit  90000 MB
 Mega-Array Size       978 MB
 MEM_STATIC part      1000 MB


                       Distance Matrix (Angstroms)
             Cr(  1)   N (  2)   N (  3)   C (  4)   C (  5)   N (  6)
   N (  2)  1.571235
   N (  3)  3.515031  5.086266
   C (  4)  2.339352  3.910587  1.175679
   C (  5)  2.047191  2.750243  3.811028  2.884012
   N (  6)  3.220780  3.763677  4.446238  3.725069  1.173865
   N (  7)  3.220780  3.763677  4.446238  3.725069  3.784463  4.515786
   C (  8)  2.047191  2.750243  3.811028  2.884012  2.866434  3.784463
   C (  9)  2.047191  2.750243  3.811028  2.884012  4.053750  5.221721
   N ( 10)  3.220780  3.763677  4.446238  3.725069  5.221721  6.386286
   C ( 11)  2.047191  2.750243  3.811028  2.884012  2.866434  3.784463
   N ( 12)  3.220780  3.763677  4.446238  3.725069  3.784463  4.515786
             N (  7)   C (  8)   C (  9)   N ( 10)   C ( 11)
   C (  8)  1.173865
   C (  9)  3.784463  2.866434
   N ( 10)  4.515786  3.784463  1.173865
   C ( 11)  5.221721  4.053750  2.866434  3.784463
   N ( 12)  6.386286  5.221721  3.784463  4.515786  1.173865

 A cutoff of  1.0D-15 yielded   8127 shell pairs
 There are     67699 function pairs (     90912 Cartesian)
 Smallest overlap matrix eigenvalue = 2.05E-04

 Scale SEOQF with 1.000000e-01/1.000000e-01/1.000000e-01

 Standard Electronic Orientation quadrupole field applied
 Nucleus-field energy     =     0.0000000076 hartrees
 Guess from superposition of atomic densities
 Warning:  Energy on first SCF cycle will be non-variational
 SAD guess density has 96.000000 electrons

 -----------------------------------------------------------------------
  General SCF calculation program by
  Eric Jon Sundstrom, Paul Horn, Yuezhi Mao, Dmitri Zuev, Alec White,
  David Stuck, Shaama M.S., Shane Yost, Joonho Lee, David Small,
  Daniel Levine, Susi Lehtola, Hugh Burton, Evgeny Epifanovsky,
  Bang C. Huynh
 -----------------------------------------------------------------------
 Hartree-Fock
 using 12 threads for integral computing
 -------------------------------------------------------
 OpenMP Integral computing Module                
 Release: version 1.0, May 2013, Q-Chem Inc. Pittsburgh 
 -------------------------------------------------------
 A restricted SCF calculation will be
 performed using DIIS, GDM
 SCF converges when RMS gradient is below 1.0e-08
 ---------------------------------------
  Cycle       Energy         DIIS error
 ---------------------------------------
    1   -1559.4314851818      2.82e-02  
    2   -1557.5313347749      1.11e-02  
    3   -1539.8057736383      3.90e-02  
    4   -1558.9128258742      4.76e-03  
    5   -1559.1890044033      1.25e-03  
    6   -1559.2157409032      4.78e-04  
    7   -1559.2209194443      2.04e-04  
    8   -1559.2227593203      1.39e-04  
    9   -1559.2241086710      1.19e-04  
   10   -1559.2258188084      1.26e-04  
   11   -1559.2263006456      6.76e-05  Done DIIS. Switching to GDM
 ---------------------------------------
  Cycle       Energy        RMS Gradient
 ---------------------------------------
    1   -1559.2263006456      3.95e-03   Normal BFGS step
    2   -1559.2261073828      1.53e-02  Line search: overstep
    3   -1559.2263500184      1.58e-03   Normal BFGS step
    4   -1559.2263901015      1.40e-03   Normal BFGS step
    5   -1559.2264276983      1.93e-03   Normal BFGS step
    6   -1559.2264347794      5.21e-04   Normal BFGS step
    7   -1559.2264361618      2.57e-04   Normal BFGS step
    8   -1559.2264363406      6.66e-05   Normal BFGS step
    9   -1559.2264363703      3.17e-05   Normal BFGS step
   10   -1559.2264363790      6.13e-06   Normal BFGS step
   11   -1559.2264363800      6.66e-06   Normal BFGS step
   12   -1559.2264363802      1.33e-06   Normal BFGS step
   13   -1559.2264363802      2.96e-07   Normal BFGS step
   14   -1559.2264363802      1.30e-07   Normal BFGS step
   15   -1559.2264363802      6.26e-08   Normal BFGS step
   16   -1559.2264363802      2.60e-08   Normal BFGS step
   17   -1559.2264363802      1.14e-08   Normal BFGS step
   18   -1559.2264363802      4.43e-09  Convergence criterion met
 ---------------------------------------
 SCF time:   CPU 1820.90s  wall 164.00s 
 SCF   energy in the final basis set =    -1559.2264363802
 Total energy in the final basis set =    -1559.2264363802
 mp2 is not implemented in computing transition properties!


 ------------------------------------------------------------------------------

   CCMAN2: suite of methods based on coupled cluster
           and equation of motion theories.

   Components:
   * libvmm-1.3-trunk
     by Evgeny Epifanovsky, Ilya Kaliman.
   * libtensor-2.5-trunk
     by Evgeny Epifanovsky, Michael Wormit, Dmitry Zuev, Sam Manzer, 
        Ilya Kaliman.
   * libcc-2.5-trunk
     by Evgeny Epifanovsky, Arik Landau, Tomasz Kus, Kirill Khistyaev, 
        Dmitry Zuev, Prashant Manohar, Xintian Feng, Anna Krylov, 
        Matthew Goldey, Alec White, Thomas Jagau, Kaushik Nanda, 
        Anastasia Gunina, Alexander Kunitsa, Joonho Lee.

   CCMAN original authors:
   Anna I. Krylov, C. David Sherrill, Steven R. Gwaltney,
   Edward F. C. Byrd (2000)
   Sergey V. Levchenko, Lyudmila V. Slipchenko, Tao Wang,
   Ana-Maria C. Cristian (2003)
   Piotr A. Pieniazek, C. Melania Oana, Evgeny Epifanovsky (2007)
   Prashant Manohar (2009)

 ------------------------------------------------------------------------------


 Allocating and initializing 72000MB of RAM...
 Calculation will run on 12 cores.


 Alpha MOs, Restricted
 -- Occupied --                  
-220.58  -26.48  -22.40  -22.40  -22.39  -15.48  -15.31  -15.31
  1 A1    2 A1    1 B1    1 B2    3 A1    4 A1    5 A1    2 B1                 
-15.308 -15.308 -15.251 -11.004 -11.004 -11.004 -11.004 -10.943
  6 A1    2 B2    7 A1    3 B1    8 A1    3 B2    9 A1   10 A1                 
 -3.449  -2.199  -2.188  -2.188  -0.943  -0.941  -0.941  -0.940
 11 A1   12 A1    4 B1    4 B2   13 A1    5 B1    5 B2   14 A1                 
 -0.887  -0.827  -0.457  -0.394  -0.382  -0.382  -0.351  -0.309
 15 A1   16 A1   17 A1   18 A1    6 B1    6 B2   19 A1   20 A1                 
 -0.301  -0.301  -0.289  -0.288  -0.268  -0.268  -0.236  -0.232
  7 B1    7 B2   21 A1   22 A1    8 B1    8 B2    1 A2   23 A1                 
 -0.206  -0.198  -0.198  -0.194  -0.194  -0.188  -0.165  -0.151
 24 A1    9 B1    9 B2   10 B2   10 B1    2 A2   25 A1   11 B1                 
 -0.151
 11 B2                                                                         
 -- Virtual --                   
  0.249   0.253   0.253   0.306   0.337   0.384   0.385   0.385
  3 A2   12 B1   12 B2   26 A1   27 A1   28 A1   13 B1   13 B2                 
  0.388   0.408   0.424   0.439   0.439   0.463   0.463   0.466
 29 A1    4 A2   30 A1   14 B1   14 B2   15 B1   15 B2   31 A1                 
  0.469   0.473   0.473   0.483   0.490   0.540   0.549   0.549
  5 A2   16 B2   16 B1   32 A1   33 A1    6 A2   17 B1   17 B2                 
  0.588   0.592   0.630   0.642   0.642   0.671   0.697   0.697
 34 A1   35 A1   36 A1   18 B1   18 B2   37 A1   19 B1   19 B2                 
  0.710   0.735   0.736   0.736   0.742   0.754   0.783   0.790
 38 A1   39 A1   20 B1   20 B2    7 A2   40 A1   41 A1   21 B1                 
  0.790   0.791   0.798   0.810   0.810   0.821   0.834   0.864
 21 B2    8 A2   42 A1   22 B1   22 B2   43 A1   44 A1   45 A1                 
  0.893   0.893   0.913   0.913   0.925   0.925   0.925   0.925
 23 B1   23 B2   24 B1   24 B2   46 A1   47 A1   25 B2   25 B1                 
  0.925   0.956   0.961   0.964   0.964   0.970   0.970   0.997
  9 A2   10 A2   48 A1   26 B1   26 B2   27 B1   27 B2   11 A2                 
  1.018   1.018   1.044   1.064   1.118   1.139   1.139   1.142
 28 B1   28 B2   12 A2   49 A1   50 A1   29 B1   29 B2   51 A1                 
  1.161   1.161   1.163   1.181   1.189   1.214   1.216   1.216
 30 B1   30 B2   52 A1   13 A2   53 A1   14 A2   31 B2   31 B1                 
  1.221   1.251   1.290   1.327   1.327   1.383   1.405   1.410
 54 A1   55 A1   56 A1   32 B1   32 B2   15 A2   57 A1   58 A1                 
  1.432   1.472   1.472   1.489   1.545   1.637   1.640   1.640
 59 A1   33 B1   33 B2   60 A1   61 A1   16 A2   34 B2   34 B1                 
  1.648   1.650   1.667   1.667   1.712   1.718   1.718   1.720
 62 A1   17 A2   35 B1   35 B2   63 A1   36 B1   36 B2   64 A1                 
  1.720   1.745   1.751   1.754   1.763   1.764   1.764   1.779
 65 A1   18 A2   19 A2   66 A1   67 A1   37 B1   37 B2   38 B1                 
  1.779   1.809   1.809   1.844   1.853   1.886   1.909   1.911
 38 B2   39 B1   39 B2   68 A1   69 A1   20 A2   70 A1   40 B1                 
  1.911   1.975   2.022   2.022   2.025   2.034   2.050   2.060
 40 B2   71 A1   41 B2   41 B1   72 A1   21 A2   73 A1   22 A2                 
  2.064   2.064   2.068   2.095   2.095   2.099   2.124   2.134
 42 B1   42 B2   74 A1   43 B1   43 B2   75 A1   76 A1   44 B2                 
  2.134   2.207   2.207   2.273   2.296   2.300   2.300   2.364
 44 B1   45 B1   45 B2   77 A1   23 A2   46 B1   46 B2   24 A2                 
  2.458   2.478   2.505   2.505   2.531   2.547   2.547   2.549
 78 A1   79 A1   47 B1   47 B2   80 A1   48 B1   48 B2   81 A1                 
  2.694   2.699   2.713   2.713   2.719   2.751   2.833   2.833
 82 A1   25 A2   49 B1   49 B2   83 A1   84 A1   50 B2   50 B1                 
  2.856   2.877   2.877   2.918   2.949   2.949   2.963   2.995
 85 A1   51 B1   51 B2   86 A1   52 B1   52 B2   87 A1   88 A1                 
  2.998   3.021   3.021   3.027   3.050   3.068   3.072   3.072
 26 A2   53 B2   53 B1   89 A1   27 A2   90 A1   54 B1   54 B2                 
  3.150   3.150   3.212   3.234   3.237   3.237   3.241   3.257
 55 B2   55 B1   28 A2   91 A1   56 B1   56 B2   29 A2   57 B2                 
  3.257   3.285   3.302   3.308   3.315   3.315   3.331   3.331
 57 B1   92 A1   93 A1   30 A2   58 B2   58 B1   59 B1   59 B2                 
  3.345   3.350   3.392   3.402   3.410   3.419   3.419   3.467
 31 A2   94 A1   95 A1   96 A1   32 A2   60 B2   60 B1   97 A1                 
  3.475   3.546   3.548   3.548   3.602   3.602   3.625   3.637
 33 A2   34 A2   61 B2   61 B1   62 B1   62 B2   98 A1   35 A2                 
  3.651   3.651   3.662   3.662   3.667   3.683   3.695   3.702
 63 B2   63 B1   64 B1   64 B2   99 A1   36 A2   37 A2  100 A1                 
  3.722   3.786   3.799   3.814   3.814   3.814   3.818   3.840
101 A1  102 A1  103 A1  104 A1   65 B1   65 B2   38 A2   66 B1                 
  3.840   3.863   3.922   3.922   3.936   3.946   3.946   3.993
 66 B2  105 A1   67 B1   67 B2  106 A1   68 B1   68 B2   39 A2                 
  4.008   4.008   4.010   4.024   4.037   4.043   4.054   4.054
 69 B1   69 B2  107 A1  108 A1  109 A1  110 A1   70 B2   70 B1                 
  4.085   4.098   4.098   4.142   4.183   4.219   4.219   4.254
 40 A2   71 B1   71 B2  111 A1  112 A1   72 B1   72 B2  113 A1                 
  4.346   4.444   4.444   4.518   4.597   4.598   4.598   4.599
114 A1   73 B1   73 B2   41 A2  115 A1   74 B1   74 B2   42 A2                 
  4.599   4.599   4.599   4.601   4.641   4.644   4.649   4.649
 75 B2   75 B1   43 A2  116 A1  117 A1  118 A1   76 B1   76 B2                 
  4.816   4.865   4.865   4.977   5.025   5.025   5.098   5.099
119 A1   77 B1   77 B2  120 A1   78 B1   78 B2   44 A2   45 A2                 
  5.113   5.113   5.125   5.125   5.128   5.144   5.167   5.232
 79 B1   79 B2   80 B2   80 B1  121 A1   46 A2  122 A1  123 A1                 
  5.234   5.266   5.268   5.268   5.270   5.270   5.270   5.278
 47 A2   48 A2   81 B2   81 B1   49 A2   82 B1   82 B2  124 A1                 
  5.286   5.317   5.325   5.521   5.539   5.539   5.568   5.596
125 A1   50 A2  126 A1  127 A1   83 B1   83 B2  128 A1  129 A1                 
  5.602   5.602   5.610   5.620   5.622   5.636   5.636   5.687
 84 B2   84 B1   51 A2   52 A2  130 A1   85 B1   85 B2   86 B2                 
  5.687   6.093   6.140   6.140   6.145   6.145   6.149   6.157
 86 B1   53 A2   87 B2   87 B1   88 B2   88 B1  131 A1  132 A1                 
  6.165   6.181   6.187   6.187   6.225   6.225   6.231   6.249
133 A1  134 A1   89 B1   89 B2   90 B1   90 B2   54 A2  135 A1                 
  6.482   6.482   6.506   6.506   6.539   6.605  24.022  24.022
 91 B1   91 B2  136 A1  137 A1  138 A1  139 A1   92 B1   92 B2                 
 24.102  24.254  24.437  33.166  33.612  33.612  33.630  33.726
140 A1  141 A1  142 A1  143 A1   93 B1   93 B2  144 A1  145 A1                 
 33.771
146 A1                                                                         

 Beta MOs, Restricted
 -- Occupied --                  
-220.58  -26.48  -22.40  -22.40  -22.39  -15.48  -15.31  -15.31
  1 A1    2 A1    1 B1    1 B2    3 A1    4 A1    5 A1    2 B1                 
-15.308 -15.308 -15.251 -11.004 -11.004 -11.004 -11.004 -10.943
  6 A1    2 B2    7 A1    3 B1    8 A1    3 B2    9 A1   10 A1                 
 -3.449  -2.199  -2.188  -2.188  -0.943  -0.941  -0.941  -0.940
 11 A1   12 A1    4 B1    4 B2   13 A1    5 B1    5 B2   14 A1                 
 -0.887  -0.827  -0.457  -0.394  -0.382  -0.382  -0.351  -0.309
 15 A1   16 A1   17 A1   18 A1    6 B1    6 B2   19 A1   20 A1                 
 -0.301  -0.301  -0.289  -0.288  -0.268  -0.268  -0.236  -0.232
  7 B1    7 B2   21 A1   22 A1    8 B1    8 B2    1 A2   23 A1                 
 -0.206  -0.198  -0.198  -0.194  -0.194  -0.188  -0.165  -0.151
 24 A1    9 B1    9 B2   10 B2   10 B1    2 A2   25 A1   11 B1                 
 -0.151
 11 B2                                                                         
 -- Virtual --                   
  0.249   0.253   0.253   0.306   0.337   0.384   0.385   0.385
  3 A2   12 B1   12 B2   26 A1   27 A1   28 A1   13 B1   13 B2                 
  0.388   0.408   0.424   0.439   0.439   0.463   0.463   0.466
 29 A1    4 A2   30 A1   14 B1   14 B2   15 B1   15 B2   31 A1                 
  0.469   0.473   0.473   0.483   0.490   0.540   0.549   0.549
  5 A2   16 B2   16 B1   32 A1   33 A1    6 A2   17 B1   17 B2                 
  0.588   0.592   0.630   0.642   0.642   0.671   0.697   0.697
 34 A1   35 A1   36 A1   18 B1   18 B2   37 A1   19 B1   19 B2                 
  0.710   0.735   0.736   0.736   0.742   0.754   0.783   0.790
 38 A1   39 A1   20 B1   20 B2    7 A2   40 A1   41 A1   21 B1                 
  0.790   0.791   0.798   0.810   0.810   0.821   0.834   0.864
 21 B2    8 A2   42 A1   22 B1   22 B2   43 A1   44 A1   45 A1                 
  0.893   0.893   0.913   0.913   0.925   0.925   0.925   0.925
 23 B1   23 B2   24 B1   24 B2   46 A1   47 A1   25 B2   25 B1                 
  0.925   0.956   0.961   0.964   0.964   0.970   0.970   0.997
  9 A2   10 A2   48 A1   26 B1   26 B2   27 B1   27 B2   11 A2                 
  1.018   1.018   1.044   1.064   1.118   1.139   1.139   1.142
 28 B1   28 B2   12 A2   49 A1   50 A1   29 B1   29 B2   51 A1                 
  1.161   1.161   1.163   1.181   1.189   1.214   1.216   1.216
 30 B1   30 B2   52 A1   13 A2   53 A1   14 A2   31 B2   31 B1                 
  1.221   1.251   1.290   1.327   1.327   1.383   1.405   1.410
 54 A1   55 A1   56 A1   32 B1   32 B2   15 A2   57 A1   58 A1                 
  1.432   1.472   1.472   1.489   1.545   1.637   1.640   1.640
 59 A1   33 B1   33 B2   60 A1   61 A1   16 A2   34 B2   34 B1                 
  1.648   1.650   1.667   1.667   1.712   1.718   1.718   1.720
 62 A1   17 A2   35 B1   35 B2   63 A1   36 B1   36 B2   64 A1                 
  1.720   1.745   1.751   1.754   1.763   1.764   1.764   1.779
 65 A1   18 A2   19 A2   66 A1   67 A1   37 B1   37 B2   38 B1                 
  1.779   1.809   1.809   1.844   1.853   1.886   1.909   1.911
 38 B2   39 B1   39 B2   68 A1   69 A1   20 A2   70 A1   40 B1                 
  1.911   1.975   2.022   2.022   2.025   2.034   2.050   2.060
 40 B2   71 A1   41 B2   41 B1   72 A1   21 A2   73 A1   22 A2                 
  2.064   2.064   2.068   2.095   2.095   2.099   2.124   2.134
 42 B1   42 B2   74 A1   43 B1   43 B2   75 A1   76 A1   44 B2                 
  2.134   2.207   2.207   2.273   2.296   2.300   2.300   2.364
 44 B1   45 B1   45 B2   77 A1   23 A2   46 B1   46 B2   24 A2                 
  2.458   2.478   2.505   2.505   2.531   2.547   2.547   2.549
 78 A1   79 A1   47 B1   47 B2   80 A1   48 B1   48 B2   81 A1                 
  2.694   2.699   2.713   2.713   2.719   2.751   2.833   2.833
 82 A1   25 A2   49 B1   49 B2   83 A1   84 A1   50 B2   50 B1                 
  2.856   2.877   2.877   2.918   2.949   2.949   2.963   2.995
 85 A1   51 B1   51 B2   86 A1   52 B1   52 B2   87 A1   88 A1                 
  2.998   3.021   3.021   3.027   3.050   3.068   3.072   3.072
 26 A2   53 B2   53 B1   89 A1   27 A2   90 A1   54 B1   54 B2                 
  3.150   3.150   3.212   3.234   3.237   3.237   3.241   3.257
 55 B2   55 B1   28 A2   91 A1   56 B1   56 B2   29 A2   57 B2                 
  3.257   3.285   3.302   3.308   3.315   3.315   3.331   3.331
 57 B1   92 A1   93 A1   30 A2   58 B2   58 B1   59 B1   59 B2                 
  3.345   3.350   3.392   3.402   3.410   3.419   3.419   3.467
 31 A2   94 A1   95 A1   96 A1   32 A2   60 B2   60 B1   97 A1                 
  3.475   3.546   3.548   3.548   3.602   3.602   3.625   3.637
 33 A2   34 A2   61 B2   61 B1   62 B1   62 B2   98 A1   35 A2                 
  3.651   3.651   3.662   3.662   3.667   3.683   3.695   3.702
 63 B2   63 B1   64 B1   64 B2   99 A1   36 A2   37 A2  100 A1                 
  3.722   3.786   3.799   3.814   3.814   3.814   3.818   3.840
101 A1  102 A1  103 A1  104 A1   65 B1   65 B2   38 A2   66 B1                 
  3.840   3.863   3.922   3.922   3.936   3.946   3.946   3.993
 66 B2  105 A1   67 B1   67 B2  106 A1   68 B1   68 B2   39 A2                 
  4.008   4.008   4.010   4.024   4.037   4.043   4.054   4.054
 69 B1   69 B2  107 A1  108 A1  109 A1  110 A1   70 B2   70 B1                 
  4.085   4.098   4.098   4.142   4.183   4.219   4.219   4.254
 40 A2   71 B1   71 B2  111 A1  112 A1   72 B1   72 B2  113 A1                 
  4.346   4.444   4.444   4.518   4.597   4.598   4.598   4.599
114 A1   73 B1   73 B2   41 A2  115 A1   74 B1   74 B2   42 A2                 
  4.599   4.599   4.599   4.601   4.641   4.644   4.649   4.649
 75 B2   75 B1   43 A2  116 A1  117 A1  118 A1   76 B1   76 B2                 
  4.816   4.865   4.865   4.977   5.025   5.025   5.098   5.099
119 A1   77 B1   77 B2  120 A1   78 B1   78 B2   44 A2   45 A2                 
  5.113   5.113   5.125   5.125   5.128   5.144   5.167   5.232
 79 B1   79 B2   80 B2   80 B1  121 A1   46 A2  122 A1  123 A1                 
  5.234   5.266   5.268   5.268   5.270   5.270   5.270   5.278
 47 A2   48 A2   81 B2   81 B1   49 A2   82 B1   82 B2  124 A1                 
  5.286   5.317   5.325   5.521   5.539   5.539   5.568   5.596
125 A1   50 A2  126 A1  127 A1   83 B1   83 B2  128 A1  129 A1                 
  5.602   5.602   5.610   5.620   5.622   5.636   5.636   5.687
 84 B2   84 B1   51 A2   52 A2  130 A1   85 B1   85 B2   86 B2                 
  5.687   6.093   6.140   6.140   6.145   6.145   6.149   6.157
 86 B1   53 A2   87 B2   87 B1   88 B2   88 B1  131 A1  132 A1                 
  6.165   6.181   6.187   6.187   6.225   6.225   6.231   6.249
133 A1  134 A1   89 B1   89 B2   90 B1   90 B2   54 A2  135 A1                 
  6.482   6.482   6.506   6.506   6.539   6.605  24.022  24.022
 91 B1   91 B2  136 A1  137 A1  138 A1  139 A1   92 B1   92 B2                 
 24.102  24.254  24.437  33.166  33.612  33.612  33.630  33.726
140 A1  141 A1  142 A1  143 A1   93 B1   93 B2  144 A1  145 A1                 
 33.771
146 A1                                                                         

 Occupation and symmetry of molecular orbitals

 Point group: C2v (4 irreducible representations).

                           A1   A2   B1   B2    All 
 ----------------------------------------------------
 All molecular orbitals:
  - Alpha                  146  54   93   93    386 
  - Beta                   146  54   93   93    386 
 ----------------------------------------------------
 Alpha orbitals:
  - Frozen occupied        12   0    4    4     20  
  - Active occupied        13   2    7    7     29  
  - Active virtual         121  52   82   82    337 
  - Frozen virtual         0    0    0    0     0   
 ----------------------------------------------------
 Beta orbitals:
  - Frozen occupied        12   0    4    4     20  
  - Active occupied        13   2    7    7     29  
  - Active virtual         121  52   82   82    337 
  - Frozen virtual         0    0    0    0     0   
 ----------------------------------------------------

 Import integrals:   CPU 0.00 s  wall 0.00 s

      Cholesky decomposition of two-electron integrals.
      with threshold: 1.0000000000e-03

      Initial pre-allocated memory: 32 (GB)
 ------------------------------------------------------------------------------
    Rank   Residual
 ------------------------------------------------------------------------------
       1  6.86103137016418
      13  0.83872080503280
      60  0.22919714813557
     197  0.05714951188041
     653  0.01434783818034
    1162  0.00357550806212
    1467  0.00098903156728
 ------------------------------------------------------------------------------
      The final rank of CD vector is 1467
      The final allocated memory: 32 (GB)
 Cholesky decomposition time:   CPU 1014.23 s  wall 90.44 s
 Import integrals:   CPU 1310.23 s  wall 116.24 s

 Computing CCSD intermediates for later calculations in double precision
 Finished.

 MP2 amplitudes:   CPU 375.14 s  wall 42.53 s

        Solving for EOMEA-CCSD/MP2 A1 transitions.

Running a double precision version
      CD-EOMEA-CCSD/MP2 right amplitudes will be solved using Davidson.
        Amplitudes will be solved using standard  algorithm.
     Hard-coded thresholds: 
     LinDepThresh=1.00e-15  NormThresh=1.00e-06  ReorthogonThresh=1.00e-02

      Roots     MaxVec    MaxIter   Precond   Conv      Shift    
      15        120       250       1         1.00e-05  0.00e+00  
 ------------------------------------------------------------------------------
      Iter ConvRoots NVecs ResNorm^2 Current eigenvalues (eV)
 ------------------------------------------------------------------------------
      0    0      15    1.16e-01   8.4534   10.6580   10.7835   11.9817   12.1350   13.1620   14.3884   14.5802   16.2142   16.5610   17.4213   18.4845   19.5206   20.2423   20.6908   
      1    0      30    1.21e-01   8.1327   8.9364   10.3253   10.3832   11.3283   12.5266   12.7325   13.0567   15.7362   15.8273   16.6332   17.8910   18.8005   19.5315   20.0701   
      2    0      45    3.65e-03   6.8255   7.7407   8.6214   9.9356   10.8673   11.1543   11.2756   12.2034   15.0454   15.0590   15.8055   17.0651   17.9472   18.6756   19.3157   
      3    0      60    3.32e-04   6.8164   7.7348   8.6096   9.9251   10.8441   11.1112   11.2253   12.1852   15.0160   15.0293   15.7687   17.0273   17.9091   18.6317   19.2637   
Found complex roots...
      4    2      75    3.68e-04   6.8097   7.7339*  8.6053   9.9232*  10.8405   11.1034   11.2175   12.1820   15.0088   15.0216   15.7572   17.0152   17.8953   18.6124   19.1747   
      5    7      88    9.37e-04   6.8086*  7.7337*  8.6042*  9.9230*  10.8400*  11.1007   11.2162*  12.1817*  15.0074   15.0203   15.7540   17.0104   17.8882   18.5342   18.5886   
      6    10     96    1.09e-03   6.8087*  7.7338*  8.6043*  9.9230*  10.8400*  11.1008*  11.2162*  12.1818*  15.0076*  15.0200*  15.7536   17.0085   17.8744   18.1563   18.4937   
      7    10     101   1.76e-03   6.8087*  7.7337*  8.6044*  9.9230*  10.8400*  11.1009*  11.2162*  12.1818*  15.0075*  15.0199*  15.7532   17.0069   17.5114   17.9110   17.9511   
      8    11     106   2.14e-03   6.8086*  7.7338*  8.6044*  9.9231*  10.8400*  11.1009*  11.2162*  12.1818*  15.0074*  15.0199*  15.7527*  17.0034   17.1174   17.5116   17.5876   
      9    11     110   1.21e-03   6.8086*  7.7337*  8.6044*  9.9231*  10.8400*  11.1009*  11.2162*  12.1818*  15.0074*  15.0198*  15.7526*  16.9199   16.9510   17.0084   17.3442   
      10   11     114   9.83e-04   6.8086*  7.7338*  8.6044*  9.9230*  10.8400*  11.1009*  11.2162*  12.1818*  15.0074*  15.0198*  15.7525*  16.6513   16.8156   16.9982   17.1867   
      11   11     118   6.69e-04   6.8086*  7.7338*  8.6044*  9.9231*  10.8400*  11.1009*  11.2162*  12.1818*  15.0074*  15.0197*  15.7523*  16.4232   16.7625   16.9884   16.9944   
      12   11     120   6.83e-04   6.8086*  7.7338*  8.6044*  9.9231*  10.8400*  11.1009*  11.2162*  12.1818*  15.0074*  15.0197*  15.7521*  16.2121   16.7336   16.9731   16.9942   
      13   11     19    2.01e-04   6.8086*  7.7338*  8.6044*  9.9231*  10.8400*  11.1009*  11.2162*  12.1818*  15.0074*  15.0197*  15.7521*  16.1139   16.7221   16.8927   16.9928   
      14   11     23    3.66e-04   6.8087*  7.7338*  8.6044*  9.9231*  10.8400*  11.1009*  11.2162*  12.1818*  15.0074*  15.0197*  15.7521*  16.0262   16.7120   16.8111   16.9912   
      15   11     27    2.11e-04   6.8086*  7.7338*  8.6044*  9.9231*  10.8400*  11.1009*  11.2162*  12.1818*  15.0074*  15.0196*  15.7517*  15.9591   16.7034   16.7341   16.9910   
      16   11     31    1.75e-04   6.8086*  7.7338*  8.6044*  9.9231*  10.8400*  11.1009*  11.2162*  12.1818*  15.0074*  15.0198*  15.7515*  15.9257   16.6895   16.6985   16.9906   
      17   11     35    1.01e-04   6.8086*  7.7338*  8.6044*  9.9231*  10.8400*  11.1009*  11.2162*  12.1818*  15.0074*  15.0197*  15.7515*  15.9063   16.6546   16.6984   16.9894   
      18   11     39    7.00e-05   6.8086*  7.7338*  8.6044*  9.9231*  10.8400*  11.1009*  11.2162*  12.1818*  15.0074*  15.0197*  15.7515*  15.8958   16.6354   16.6921   16.9881   
      19   11     43    6.38e-05   6.8086*  7.7337*  8.6044*  9.9231*  10.8400*  11.1009*  11.2162*  12.1818*  15.0074*  15.0196*  15.7514*  15.8918   16.6247   16.6849   16.9858   
      20   11     47    3.72e-04   6.8086*  7.7337*  8.6044*  9.9231*  10.8400*  11.1009*  11.2162*  12.1818*  15.0074*  15.0197*  15.7513*  15.8910   16.6191   16.6762   16.9118   
      21   11     51    4.18e-04   6.8086*  7.7337*  8.6044*  9.9231*  10.8400*  11.1008*  11.2162*  12.1818*  15.0074*  15.0196*  15.7513*  15.8907   16.6149   16.6454   16.7523   
      22   11     55    6.79e-04   6.8086*  7.7337*  8.6044*  9.9231*  10.8400*  11.1009*  11.2162*  12.1818*  15.0074*  15.0196*  15.7513*  15.8902   16.4906   16.6077   16.6445   
      23   12     59    3.46e-04   6.8087*  7.7337*  8.6044*  9.9231*  10.8400*  11.1010*  11.2162*  12.1818*  15.0074*  15.0196*  15.7513*  15.8899*  16.2955   16.5592   16.6171   
      24   12     62    2.39e-04   6.8087*  7.7337*  8.6044*  9.9231*  10.8400*  11.1010*  11.2162*  12.1818*  15.0074*  15.0196*  15.7513*  15.8899*  16.2027   16.5095   16.6152   
      25   12     65    1.88e-04   6.8087*  7.7337*  8.6044*  9.9231*  10.8400*  11.1010*  11.2162*  12.1818*  15.0074*  15.0196*  15.7513*  15.8899*  16.1936   16.4705   16.6145   
      26   13     68    7.77e-05   6.8087*  7.7337*  8.6044*  9.9231*  10.8400*  11.1010*  11.2162*  12.1818*  15.0074*  15.0196*  15.7513*  15.8898*  16.1545   16.4515   16.6143*  
      27   13     70    4.04e-05   6.8087*  7.7337*  8.6044*  9.9231*  10.8400*  11.1010*  11.2162*  12.1818*  15.0074*  15.0196*  15.7513*  15.8898*  16.1335   16.4443   16.6143*  
      28   13     72    1.87e-05   6.8087*  7.7338*  8.6044*  9.9231*  10.8400*  11.1010*  11.2162*  12.1817*  15.0074*  15.0196*  15.7513*  15.8898*  16.1231   16.4411   16.6142*  
      29   13     74    1.28e-05   6.8087*  7.7338*  8.6045*  9.9231*  10.8400*  11.1009*  11.2162*  12.1817*  15.0074*  15.0196*  15.7513*  15.8898*  16.1169   16.4394   16.6142*  
      30   13     76    1.13e-05   6.8087*  7.7338*  8.6044*  9.9231*  10.8400*  11.1009*  11.2162*  12.1817*  15.0074*  15.0196*  15.7513*  15.8898*  16.1123   16.4385   16.6143*  
      31   14     78    1.03e-05   6.8087*  7.7338*  8.6044*  9.9231*  10.8400*  11.1009*  11.2162*  12.1818*  15.0074*  15.0196*  15.7513*  15.8898*  16.1083   16.4381*  16.6142*  
      32   14     79    6.30e-06   6.8087*  7.7338*  8.6044*  9.9231*  10.8400*  11.1009*  11.2162*  12.1817*  15.0074*  15.0196*  15.7513*  15.8898*  16.1056   16.4381*  16.6142*  
      33   14     80    4.34e-06   6.8087*  7.7338*  8.6045*  9.9231*  10.8400*  11.1009*  11.2162*  12.1818*  15.0074*  15.0196*  15.7513*  15.8898*  16.1043   16.4381*  16.6142*  
      34   14     81    2.99e-06   6.8087*  7.7338*  8.6045*  9.9231*  10.8400*  11.1009*  11.2162*  12.1818*  15.0074*  15.0196*  15.7513*  15.8898*  16.1037   16.4381*  16.6142*  
      35   15     82    2.53e-06   6.8087*  7.7338*  8.6045*  9.9231*  10.8400*  11.1009*  11.2162*  12.1818*  15.0074*  15.0196*  15.7513*  15.8898*  16.1035*  16.4381*  16.6142*  

     Davidson procedure converged

 EOMEA transition 1/A1
 Total energy = -1561.41185377 a.u.  Excitation energy = 6.8087 eV.
 R1^2 = 0.9320  R2^2 = 0.0680  Res^2 = 3.60e-06
 Conv-d = yes

 Amplitude    Transitions between orbitals
 -0.9571       infty       ->    27 (A1) B                  
  0.1211       infty       ->    30 (A1) B                  
 -0.0176       infty       ->    44 (A1) B                  
 -0.0131       infty       ->    40 (A1) B                  

              Summary of significant orbitals:

               Number  Type             Irrep      Energy
               54      Vir  Beta       27 (A1)      0.3369
               60      Vir  Beta       30 (A1)      0.4241
               87      Vir  Beta       40 (A1)      0.7540
               96      Vir  Beta       44 (A1)      0.8337


 EOMEA transition 2/A1
 Total energy = -1561.37785684 a.u.  Excitation energy = 7.7338 eV.
 R1^2 = 0.9763  R2^2 = 0.0237  Res^2 = 2.37e-06
 Conv-d = yes

 Amplitude    Transitions between orbitals
 -0.9713       infty       ->    26 (A1) B                  
  0.1337       infty       ->    28 (A1) B                  
  0.0770       infty       ->    29 (A1) B                  
  0.0682       infty       ->    33 (A1) B                  

              Summary of significant orbitals:

               Number  Type             Irrep      Energy
               53      Vir  Beta       26 (A1)      0.3060
               55      Vir  Beta       28 (A1)      0.3837
               58      Vir  Beta       29 (A1)      0.3878
               70      Vir  Beta       33 (A1)      0.4901


 EOMEA transition 3/A1
 Total energy = -1561.34585960 a.u.  Excitation energy = 8.6045 eV.
 R1^2 = 0.9342  R2^2 = 0.0658  Res^2 = 1.92e-06
 Conv-d = yes

 Amplitude    Transitions between orbitals
  0.8909       infty       ->    28 (A1) B                  
  0.3371       infty       ->    29 (A1) B                  
  0.1500       infty       ->    26 (A1) B                  
  0.0349       infty       ->    33 (A1) B                  

              Summary of significant orbitals:

               Number  Type             Irrep      Energy
               53      Vir  Beta       26 (A1)      0.3060
               55      Vir  Beta       28 (A1)      0.3837
               58      Vir  Beta       29 (A1)      0.3878
               70      Vir  Beta       33 (A1)      0.4901


 EOMEA transition 4/A1
 Total energy = -1561.29739921 a.u.  Excitation energy = 9.9231 eV.
 R1^2 = 0.9745  R2^2 = 0.0255  Res^2 = 3.30e-06
 Conv-d = yes

 Amplitude    Transitions between orbitals
  0.9040       infty       ->    29 (A1) B                  
 -0.3539       infty       ->    28 (A1) B                  
  0.1572       infty       ->    31 (A1) B                  
 -0.0583       infty       ->    35 (A1) B                  

              Summary of significant orbitals:

               Number  Type             Irrep      Energy
               55      Vir  Beta       28 (A1)      0.3837
               58      Vir  Beta       29 (A1)      0.3878
               65      Vir  Beta       31 (A1)      0.4659
               75      Vir  Beta       35 (A1)      0.5917


 EOMEA transition 5/A1
 Total energy = -1561.26370576 a.u.  Excitation energy = 10.8400 eV.
 R1^2 = 0.9575  R2^2 = 0.0425  Res^2 = 1.71e-06
 Conv-d = yes

 Amplitude    Transitions between orbitals
  0.8605       infty       ->    30 (A1) B                  
 -0.4485       infty       ->    32 (A1) B                  
  0.1067       infty       ->    27 (A1) B                  
 -0.0421       infty       ->    34 (A1) B                  

              Summary of significant orbitals:

               Number  Type             Irrep      Energy
               54      Vir  Beta       27 (A1)      0.3369
               60      Vir  Beta       30 (A1)      0.4241
               69      Vir  Beta       32 (A1)      0.4833
               74      Vir  Beta       34 (A1)      0.5879


 EOMEA transition 6/A1
 Total energy = -1561.25411571 a.u.  Excitation energy = 11.1009 eV.
 R1^2 = 0.9290  R2^2 = 0.0710  Res^2 = 1.33e-06
 Conv-d = yes

 Amplitude    Transitions between orbitals
  0.8004       infty       ->    31 (A1) B                  
  0.4918       infty       ->    33 (A1) B                  
 -0.1688       infty       ->    29 (A1) B                  
  0.0727       infty       ->    26 (A1) B                  

              Summary of significant orbitals:

               Number  Type             Irrep      Energy
               53      Vir  Beta       26 (A1)      0.3060
               58      Vir  Beta       29 (A1)      0.3878
               65      Vir  Beta       31 (A1)      0.4659
               70      Vir  Beta       33 (A1)      0.4901


 EOMEA transition 7/A1
 Total energy = -1561.24988088 a.u.  Excitation energy = 11.2162 eV.
 R1^2 = 0.9337  R2^2 = 0.0663  Res^2 = 4.47e-06
 Conv-d = yes

 Amplitude    Transitions between orbitals
  0.8474       infty       ->    32 (A1) B                  
  0.4517       infty       ->    30 (A1) B                  
  0.0711       infty       ->    27 (A1) B                  
 -0.0579       infty       ->    46 (A1) B                  

              Summary of significant orbitals:

               Number  Type             Irrep      Energy
               54      Vir  Beta       27 (A1)      0.3369
               60      Vir  Beta       30 (A1)      0.4241
               69      Vir  Beta       32 (A1)      0.4833
               102     Vir  Beta       46 (A1)      0.9246


 EOMEA transition 8/A1
 Total energy = -1561.21439627 a.u.  Excitation energy = 12.1818 eV.
 R1^2 = 0.9658  R2^2 = 0.0342  Res^2 = 1.11e-06
 Conv-d = yes

 Amplitude    Transitions between orbitals
 -0.8281       infty       ->    33 (A1) B                  
  0.5205       infty       ->    31 (A1) B                  
 -0.0431       infty       ->    29 (A1) B                  
  0.0426       infty       ->    28 (A1) B                  

              Summary of significant orbitals:

               Number  Type             Irrep      Energy
               55      Vir  Beta       28 (A1)      0.3837
               58      Vir  Beta       29 (A1)      0.3878
               65      Vir  Beta       31 (A1)      0.4659
               70      Vir  Beta       33 (A1)      0.4901


 EOMEA transition 9/A1
 Total energy = -1561.11055656 a.u.  Excitation energy = 15.0074 eV.
 R1^2 = 0.9554  R2^2 = 0.0446  Res^2 = 1.81e-06
 Conv-d = yes

 Amplitude    Transitions between orbitals
  0.9742       infty       ->    34 (A1) B                  
 -0.0434       infty       ->    32 (A1) B                  
  0.0350       infty       ->    30 (A1) B                  
 -0.0326       infty       ->    38 (A1) B                  

              Summary of significant orbitals:

               Number  Type             Irrep      Energy
               60      Vir  Beta       30 (A1)      0.4241
               69      Vir  Beta       32 (A1)      0.4833
               74      Vir  Beta       34 (A1)      0.5879
               82      Vir  Beta       38 (A1)      0.7103


 EOMEA transition 10/A1
 Total energy = -1561.11010807 a.u.  Excitation energy = 15.0196 eV.
 R1^2 = 0.9576  R2^2 = 0.0424  Res^2 = 2.91e-06
 Conv-d = yes

 Amplitude    Transitions between orbitals
 -0.9508       infty       ->    35 (A1) B                  
  0.1803       infty       ->    36 (A1) B                  
 -0.0777       infty       ->    31 (A1) B                  
 -0.0598       infty       ->    33 (A1) B                  

              Summary of significant orbitals:

               Number  Type             Irrep      Energy
               65      Vir  Beta       31 (A1)      0.4659
               70      Vir  Beta       33 (A1)      0.4901
               75      Vir  Beta       35 (A1)      0.5917
               76      Vir  Beta       36 (A1)      0.6303


 EOMEA transition 11/A1
 Total energy = -1561.08321658 a.u.  Excitation energy = 15.7513 eV.
 R1^2 = 0.9332  R2^2 = 0.0668  Res^2 = 7.51e-07
 Conv-d = yes

 Amplitude    Transitions between orbitals
 -0.9388       infty       ->    36 (A1) B                  
 -0.1947       infty       ->    35 (A1) B                  
  0.0560       infty       ->    33 (A1) B                  
 -0.0519       infty       ->    37 (A1) B                  

              Summary of significant orbitals:

               Number  Type             Irrep      Energy
               70      Vir  Beta       33 (A1)      0.4901
               75      Vir  Beta       35 (A1)      0.5917
               76      Vir  Beta       36 (A1)      0.6303
               79      Vir  Beta       37 (A1)      0.6710


 EOMEA transition 12/A1
 Total energy = -1561.07812773 a.u.  Excitation energy = 15.8898 eV.
 R1^2 = 0.0157  R2^2 = 0.9843  Res^2 = 2.03e-06
 Conv-d = yes

 Amplitude    Transitions between orbitals
  0.4546       7 (B2) A    ->    3 (A2) A      12 (B1) B    
 -0.4546       7 (B2) A    ->    12 (B1) B     3 (A2) A     
  0.4545       7 (B1) A    ->    3 (A2) A      12 (B2) B    
 -0.4545       7 (B1) A    ->    12 (B2) B     3 (A2) A     
  0.3218       7 (B2) A    ->    12 (B1) A     3 (A2) B     
 -0.3218       7 (B2) A    ->    3 (A2) B      12 (B1) A    
  0.3217       7 (B1) A    ->    12 (B2) A     3 (A2) B     
 -0.3217       7 (B1) A    ->    3 (A2) B      12 (B2) A    
  0.2152       9 (B2) A    ->    3 (A2) A      12 (B1) B    
 -0.2152       9 (B2) A    ->    12 (B1) B     3 (A2) A     
  0.2151       9 (B1) A    ->    3 (A2) A      12 (B2) B    
 -0.2151       9 (B1) A    ->    12 (B2) B     3 (A2) A     
  0.1549       9 (B1) A    ->    12 (B2) A     3 (A2) B     
 -0.1549       9 (B1) A    ->    3 (A2) B      12 (B2) A    
  0.1549       9 (B2) A    ->    12 (B1) A     3 (A2) B     
 -0.1549       9 (B2) A    ->    3 (A2) B      12 (B1) A    
  0.1328       7 (B2) B    ->    3 (A2) B      12 (B1) B    
 -0.1328       7 (B2) B    ->    12 (B1) B     3 (A2) B     
  0.1328       7 (B1) B    ->    3 (A2) B      12 (B2) B    
 -0.1328       7 (B1) B    ->    12 (B2) B     3 (A2) B     
 -0.1054       10 (B2) A   ->    3 (A2) A      12 (B1) B    
  0.1054       10 (B2) A   ->    12 (B1) B     3 (A2) A     
  0.1052       10 (B1) A   ->    3 (A2) A      12 (B2) B    
 -0.1052       10 (B1) A   ->    12 (B2) B     3 (A2) A     
  0.1033       7 (B2) A    ->    13 (B1) A     3 (A2) B     
 -0.1033       7 (B2) A    ->    3 (A2) B      13 (B1) A    
 -0.1033       7 (B1) A    ->    13 (B2) A     3 (A2) B     
  0.1033       7 (B1) A    ->    3 (A2) B      13 (B2) A    

              Summary of significant orbitals:

               Number  Type             Irrep      Energy
               33      Occ  Alpha       7 (B1)     -0.3009
               42      Occ  Alpha       9 (B1)     -0.1984
               45      Occ  Alpha      10 (B1)     -0.1944
               34      Occ  Alpha       7 (B2)     -0.3009
               43      Occ  Alpha       9 (B2)     -0.1984
               44      Occ  Alpha      10 (B2)     -0.1944
               33      Occ  Beta        7 (B1)     -0.3009
               34      Occ  Beta        7 (B2)     -0.3009
               50      Vir  Alpha       3 (A2)      0.2490
               51      Vir  Alpha      12 (B1)      0.2530
               56      Vir  Alpha      13 (B1)      0.3849
               52      Vir  Alpha      12 (B2)      0.2530
               57      Vir  Alpha      13 (B2)      0.3849
               50      Vir  Beta        3 (A2)      0.2490
               51      Vir  Beta       12 (B1)      0.2530
               52      Vir  Beta       12 (B2)      0.2530


 EOMEA transition 13/A1
 Total energy = -1561.07027612 a.u.  Excitation energy = 16.1035 eV.
 R1^2 = 0.0000  R2^2 = 1.0000  Res^2 = 4.69e-06
 Conv-d = yes

 Amplitude    Transitions between orbitals
  0.4103       7 (B1) A    ->    12 (B2) A     3 (A2) B     
 -0.4103       7 (B1) A    ->    3 (A2) B      12 (B2) A    
 -0.4099       7 (B2) A    ->    12 (B1) A     3 (A2) B     
  0.4099       7 (B2) A    ->    3 (A2) B      12 (B1) A    
  0.2690       7 (B2) B    ->    3 (A2) B      12 (B1) B    
 -0.2690       7 (B2) B    ->    12 (B1) B     3 (A2) B     
 -0.2687       7 (B1) B    ->    3 (A2) B      12 (B2) B    
  0.2687       7 (B1) B    ->    12 (B2) B     3 (A2) B     
  0.2048       9 (B1) A    ->    12 (B2) A     3 (A2) B     
 -0.2048       9 (B1) A    ->    3 (A2) B      12 (B2) A    
 -0.2042       9 (B2) A    ->    12 (B1) A     3 (A2) B     
  0.2042       9 (B2) A    ->    3 (A2) B      12 (B1) A    
 -0.1941       7 (B2) A    ->    13 (B1) A     3 (A2) B     
  0.1941       7 (B2) A    ->    3 (A2) B      13 (B1) A    
 -0.1939       7 (B1) A    ->    13 (B2) A     3 (A2) B     
  0.1939       7 (B1) A    ->    3 (A2) B      13 (B2) A    
  0.1417       7 (B1) A    ->    3 (A2) A      12 (B2) B    
 -0.1417       7 (B1) A    ->    12 (B2) B     3 (A2) A     
 -0.1409       7 (B2) A    ->    3 (A2) A      12 (B1) B    
  0.1409       7 (B2) A    ->    12 (B1) B     3 (A2) A     
 -0.1331       9 (B1) B    ->    3 (A2) B      12 (B2) B    
  0.1331       9 (B1) B    ->    12 (B2) B     3 (A2) B     
  0.1330       9 (B2) B    ->    3 (A2) B      12 (B1) B    
 -0.1330       9 (B2) B    ->    12 (B1) B     3 (A2) B     
 -0.1256       9 (B1) A    ->    13 (B2) A     3 (A2) B     
  0.1256       9 (B1) A    ->    3 (A2) B      13 (B2) A    
 -0.1253       9 (B2) A    ->    13 (B1) A     3 (A2) B     
  0.1253       9 (B2) A    ->    3 (A2) B      13 (B1) A    
  0.1061       7 (B1) B    ->    3 (A2) B      13 (B2) B    
 -0.1061       7 (B1) B    ->    13 (B2) B     3 (A2) B     
  0.1046       7 (B2) B    ->    3 (A2) B      13 (B1) B    
 -0.1046       7 (B2) B    ->    13 (B1) B     3 (A2) B     
 -0.1037       7 (B1) A    ->    12 (B2) A     5 (A2) B     
  0.1037       7 (B1) A    ->    5 (A2) B      12 (B2) A    
  0.1036       7 (B2) A    ->    12 (B1) A     5 (A2) B     
 -0.1036       7 (B2) A    ->    5 (A2) B      12 (B1) A    
  0.1011       7 (B2) A    ->    13 (B1) A     5 (A2) B     
 -0.1011       7 (B2) A    ->    5 (A2) B      13 (B1) A    
  0.1010       7 (B1) A    ->    13 (B2) A     5 (A2) B     
 -0.1010       7 (B1) A    ->    5 (A2) B      13 (B2) A    

              Summary of significant orbitals:

               Number  Type             Irrep      Energy
               33      Occ  Alpha       7 (B1)     -0.3009
               42      Occ  Alpha       9 (B1)     -0.1984
               34      Occ  Alpha       7 (B2)     -0.3009
               43      Occ  Alpha       9 (B2)     -0.1984
               33      Occ  Beta        7 (B1)     -0.3009
               42      Occ  Beta        9 (B1)     -0.1984
               34      Occ  Beta        7 (B2)     -0.3009
               43      Occ  Beta        9 (B2)     -0.1984
               50      Vir  Alpha       3 (A2)      0.2490
               51      Vir  Alpha      12 (B1)      0.2530
               56      Vir  Alpha      13 (B1)      0.3849
               52      Vir  Alpha      12 (B2)      0.2530
               57      Vir  Alpha      13 (B2)      0.3849
               50      Vir  Beta        3 (A2)      0.2490
               66      Vir  Beta        5 (A2)      0.4689
               51      Vir  Beta       12 (B1)      0.2530
               56      Vir  Beta       13 (B1)      0.3849
               52      Vir  Beta       12 (B2)      0.2530
               57      Vir  Beta       13 (B2)      0.3849


 EOMEA transition 14/A1
 Total energy = -1561.05797909 a.u.  Excitation energy = 16.4381 eV.
 R1^2 = 0.0014  R2^2 = 0.9986  Res^2 = 4.07e-06
 Conv-d = yes

 Amplitude    Transitions between orbitals
 -0.3570       7 (B1) B    ->    3 (A2) B      12 (B2) B    
  0.3570       7 (B1) B    ->    12 (B2) B     3 (A2) B     
 -0.3543       7 (B2) B    ->    3 (A2) B      12 (B1) B    
  0.3543       7 (B2) B    ->    12 (B1) B     3 (A2) B     
  0.2775       7 (B2) A    ->    13 (B1) A     3 (A2) B     
 -0.2775       7 (B2) A    ->    3 (A2) B      13 (B1) A    
 -0.2773       7 (B1) A    ->    13 (B2) A     3 (A2) B     
  0.2773       7 (B1) A    ->    3 (A2) B      13 (B2) A    
  0.1915       7 (B1) B    ->    3 (A2) B      13 (B2) B    
 -0.1915       7 (B1) B    ->    13 (B2) B     3 (A2) B     
 -0.1905       7 (B2) B    ->    3 (A2) B      13 (B1) B    
  0.1905       7 (B2) B    ->    13 (B1) B     3 (A2) B     
 -0.1833       7 (B1) A    ->    3 (A2) A      12 (B2) B    
  0.1833       7 (B1) A    ->    12 (B2) B     3 (A2) A     
 -0.1806       7 (B2) A    ->    3 (A2) A      12 (B1) B    
  0.1806       7 (B2) A    ->    12 (B1) B     3 (A2) A     
 -0.1796       9 (B1) B    ->    3 (A2) B      12 (B2) B    
  0.1796       9 (B1) B    ->    12 (B2) B     3 (A2) B     
 -0.1782       9 (B2) B    ->    3 (A2) B      12 (B1) B    
  0.1782       9 (B2) B    ->    12 (B1) B     3 (A2) B     
  0.1738       7 (B1) A    ->    12 (B2) A     3 (A2) B     
 -0.1738       7 (B1) A    ->    3 (A2) B      12 (B2) A    
  0.1737       7 (B2) A    ->    12 (B1) A     3 (A2) B     
 -0.1737       7 (B2) A    ->    3 (A2) B      12 (B1) A    
  0.1644       9 (B2) A    ->    13 (B1) A     3 (A2) B     
 -0.1644       9 (B2) A    ->    3 (A2) B      13 (B1) A    
 -0.1643       9 (B1) A    ->    13 (B2) A     3 (A2) B     
  0.1643       9 (B1) A    ->    3 (A2) B      13 (B2) A    
 -0.1267       7 (B2) A    ->    13 (B1) A     5 (A2) B     
  0.1267       7 (B2) A    ->    5 (A2) B      13 (B1) A    
  0.1266       7 (B1) A    ->    13 (B2) A     5 (A2) B     
 -0.1266       7 (B1) A    ->    5 (A2) B      13 (B2) A    
  0.1214       9 (B1) B    ->    3 (A2) B      13 (B2) B    
 -0.1214       9 (B1) B    ->    13 (B2) B     3 (A2) B     
 -0.1206       9 (B2) B    ->    3 (A2) B      13 (B1) B    
  0.1206       9 (B2) B    ->    13 (B1) B     3 (A2) B     

              Summary of significant orbitals:

               Number  Type             Irrep      Energy
               33      Occ  Alpha       7 (B1)     -0.3009
               42      Occ  Alpha       9 (B1)     -0.1984
               34      Occ  Alpha       7 (B2)     -0.3009
               43      Occ  Alpha       9 (B2)     -0.1984
               33      Occ  Beta        7 (B1)     -0.3009
               42      Occ  Beta        9 (B1)     -0.1984
               34      Occ  Beta        7 (B2)     -0.3009
               43      Occ  Beta        9 (B2)     -0.1984
               50      Vir  Alpha       3 (A2)      0.2490
               51      Vir  Alpha      12 (B1)      0.2530
               56      Vir  Alpha      13 (B1)      0.3849
               52      Vir  Alpha      12 (B2)      0.2530
               57      Vir  Alpha      13 (B2)      0.3849
               50      Vir  Beta        3 (A2)      0.2490
               66      Vir  Beta        5 (A2)      0.4689
               51      Vir  Beta       12 (B1)      0.2530
               56      Vir  Beta       13 (B1)      0.3849
               52      Vir  Beta       12 (B2)      0.2530
               57      Vir  Beta       13 (B2)      0.3849


 EOMEA transition 15/A1
 Total energy = -1561.05150500 a.u.  Excitation energy = 16.6142 eV.
 R1^2 = 0.0023  R2^2 = 0.9977  Res^2 = 1.90e-06
 Conv-d = yes

 Amplitude    Transitions between orbitals
 -0.4720       7 (B2) A    ->    26 (A1) A     12 (B2) B    
  0.4720       7 (B2) A    ->    12 (B2) B     26 (A1) A    
 -0.4717       7 (B1) A    ->    26 (A1) A     12 (B1) B    
  0.4717       7 (B1) A    ->    12 (B1) B     26 (A1) A    
 -0.2374       7 (B2) B    ->    26 (A1) B     12 (B2) B    
  0.2374       7 (B2) B    ->    12 (B2) B     26 (A1) B    
 -0.2373       7 (B1) B    ->    26 (A1) B     12 (B1) B    
  0.2373       7 (B1) B    ->    12 (B1) B     26 (A1) B    
 -0.2347       7 (B2) A    ->    12 (B2) A     26 (A1) B    
  0.2347       7 (B2) A    ->    26 (A1) B     12 (B2) A    
 -0.2345       7 (B1) A    ->    12 (B1) A     26 (A1) B    
  0.2345       7 (B1) A    ->    26 (A1) B     12 (B1) A    
 -0.2311       9 (B2) A    ->    26 (A1) A     12 (B2) B    
  0.2311       9 (B2) A    ->    12 (B2) B     26 (A1) A    
 -0.2310       9 (B1) A    ->    26 (A1) A     12 (B1) B    
  0.2310       9 (B1) A    ->    12 (B1) B     26 (A1) A    
  0.1394       10 (B2) A   ->    26 (A1) A     12 (B2) B    
 -0.1394       10 (B2) A   ->    12 (B2) B     26 (A1) A    
 -0.1393       10 (B1) A   ->    26 (A1) A     12 (B1) B    
  0.1393       10 (B1) A   ->    12 (B1) B     26 (A1) A    
 -0.1165       9 (B1) B    ->    26 (A1) B     12 (B1) B    
  0.1165       9 (B1) B    ->    12 (B1) B     26 (A1) B    
 -0.1165       9 (B2) B    ->    26 (A1) B     12 (B2) B    
  0.1165       9 (B2) B    ->    12 (B2) B     26 (A1) B    
 -0.1146       9 (B2) A    ->    12 (B2) A     26 (A1) B    
  0.1146       9 (B2) A    ->    26 (A1) B     12 (B2) A    
 -0.1145       9 (B1) A    ->    12 (B1) A     26 (A1) B    
  0.1145       9 (B1) A    ->    26 (A1) B     12 (B1) A    

              Summary of significant orbitals:

               Number  Type             Irrep      Energy
               33      Occ  Alpha       7 (B1)     -0.3009
               42      Occ  Alpha       9 (B1)     -0.1984
               45      Occ  Alpha      10 (B1)     -0.1944
               34      Occ  Alpha       7 (B2)     -0.3009
               43      Occ  Alpha       9 (B2)     -0.1984
               44      Occ  Alpha      10 (B2)     -0.1944
               33      Occ  Beta        7 (B1)     -0.3009
               42      Occ  Beta        9 (B1)     -0.1984
               34      Occ  Beta        7 (B2)     -0.3009
               43      Occ  Beta        9 (B2)     -0.1984
               53      Vir  Alpha      26 (A1)      0.3060
               51      Vir  Alpha      12 (B1)      0.2530
               52      Vir  Alpha      12 (B2)      0.2530
               53      Vir  Beta       26 (A1)      0.3060
               51      Vir  Beta       12 (B1)      0.2530
               52      Vir  Beta       12 (B2)      0.2530


Running a double precision version
      CD-EOMEA-CCSD/MP2 left amplitudes will be solved using Davidson.
        Amplitudes will be solved using MOM  algorithm.
     Hard-coded thresholds: 
     LinDepThresh=1.00e-15  NormThresh=1.00e-06  ReorthogonThresh=1.00e-02

      Roots     MaxVec    MaxIter   Precond   Conv      Shift    
      15        120       250       1         1.00e-05  0.00e+00  
 ------------------------------------------------------------------------------
      Iter ConvRoots NVecs ResNorm^2 Current eigenvalues (eV)
 ------------------------------------------------------------------------------
      0    0      15    2.07e-02   6.8087   7.7338   8.6045   9.9231   10.8400   11.1009   11.2162   12.1818   15.0074   15.0196   15.7513   15.8898   16.1035   16.4381   16.6142   
      1    0      30    1.06e-02   6.8088   7.7337   8.6043   9.9230   10.8401   11.1008   11.2163   12.1817   15.0073   15.0195   15.7513   15.8898   16.1034   16.4380   16.6142   
      2    0      45    4.13e-04   6.8087   7.7338   8.6043   9.9231   10.8400   11.1008   11.2163   12.1817   15.0073   15.0195   15.7513   15.8898   16.1034   16.4380   16.6142   
      3    1      60    6.48e-05   6.8088   7.7338   8.6043   9.9231   10.8400   11.1008   11.2163   12.1817   15.0073   15.0195   15.7513   15.8898   16.1034   16.4379   16.6142*  
      4    8      74    1.83e-05   6.8089*  7.7338*  8.6043*  9.9231*  10.8400*  11.1008   11.2163*  12.1817   15.0073   15.0195   15.7513*  15.8897   16.1033   16.4378   16.6142*  
      5    12     81    8.38e-06   6.8089*  7.7338*  8.6043*  9.9231*  10.8400*  11.1008*  11.2163*  12.1817*  15.0072*  15.0195*  15.7513*  15.8897   16.1033   16.4377   16.6142*  
      6    13     84    6.32e-06   6.8089*  7.7338*  8.6043*  9.9231*  10.8400*  11.1008*  11.2163*  12.1817*  15.0072*  15.0195*  15.7513*  15.8897*  16.1033   16.4377   16.6142*  
      7    15     86    3.83e-06   6.8089*  7.7338*  8.6043*  9.9231*  10.8400*  11.1008*  11.2163*  12.1817*  15.0072*  15.0195*  15.7513*  15.8897*  16.1033*  16.4376*  16.6142*  

     Davidson procedure converged

 EOMEA-CCSD/MP2 transition 1/A1
S^2 calculation will be performed in  double precision
 EOMEA-CCSD/MP2 transition 2/A1
S^2 calculation will be performed in  double precision
 EOMEA-CCSD/MP2 transition 3/A1
S^2 calculation will be performed in  double precision
 EOMEA-CCSD/MP2 transition 4/A1
S^2 calculation will be performed in  double precision
 EOMEA-CCSD/MP2 transition 5/A1
S^2 calculation will be performed in  double precision
 EOMEA-CCSD/MP2 transition 6/A1
S^2 calculation will be performed in  double precision
 EOMEA-CCSD/MP2 transition 7/A1
S^2 calculation will be performed in  double precision
 EOMEA-CCSD/MP2 transition 8/A1
S^2 calculation will be performed in  double precision
 EOMEA-CCSD/MP2 transition 9/A1
S^2 calculation will be performed in  double precision
 EOMEA-CCSD/MP2 transition 10/A1
S^2 calculation will be performed in  double precision
 EOMEA-CCSD/MP2 transition 11/A1
S^2 calculation will be performed in  double precision
 EOMEA-CCSD/MP2 transition 12/A1
S^2 calculation will be performed in  double precision
 EOMEA-CCSD/MP2 transition 13/A1
S^2 calculation will be performed in  double precision
 EOMEA-CCSD/MP2 transition 14/A1
S^2 calculation will be performed in  double precision
 EOMEA-CCSD/MP2 transition 15/A1
S^2 calculation will be performed in  double precision
 Excited state properties for  EOMEA-CCSD transition 1/A1
 Dipole moment (a.u.): 2.287363 (X 0.000000, Y 0.000000, Z 2.287363)
 R-squared (a.u.): 2113.122839 (XX 794.771574, YY 794.771103, ZZ 523.580161)
 Gauge origin (a.u.): (0.000000, 0.000000, 0.000000)
 Angular momentum (a.u.) against gauge origin: 
 (X 0.000000i, Y 0.000000i, Z 0.000000i)
 Traces of the OPDMs: Tr(AA) 49.000000, Tr(BB) 50.000000
 <S^2> = 0.750000

State OPDM analysis using libwa module will be excecuted
 Created directory /scratch/sven/qchem6434/plots
 NOs (alpha)
   Occupation of frontier NOs:
      0.9986   0.9986
   Number of electrons: 49.000000
 NOs (beta)
   Occupation of frontier NOs:
      0.9744   0.9994
   Number of electrons: 50.000000
 NOs (spin-traced)
   Occupation of frontier NOs:
      0.9715   1.9983
   Number of electrons: 99.000000
   Number of unpaired electrons: n_u =  0.81487, n_u,nl =  1.02602
   NO participation ratio (PR_NO):  0.698579
 
 Mulliken Population Analysis
  Atom      Charge (e)        Spin (e)
 -------------------------------------
  1 Cr       -0.044232        0.811341
  2  N       -0.135944       -0.057715
  3  N       -0.349283        0.000011
  4  C       -0.228580        0.000943
  5  C       -0.225386        0.083983
  6  N       -0.335146       -0.022619
  7  N       -0.335084       -0.022650
  8  C       -0.225364        0.083997
  9  C       -0.225386        0.083983
 10  N       -0.335146       -0.022619
 11  C       -0.225364        0.083997
 12  N       -0.335084       -0.022650
 -------------------------------------
  Sum:       -3.000000        1.000000
 
 Multipole moment analysis of the density matrix
   Molecular charge:                      -3.000000
   Number of electrons:                   99.000000
     Center of electronic charge [Ang]: [ -0.000000,  -0.000000,  -0.012226]
   Total nuclear charge:                  96.000000
     Center of nuclear charge [Ang]:    [  0.000000,  -0.000000,  -0.000000]
   Dipole moment [D]:                     5.813898
     Cartesian components [D]:          [  0.000000,   0.000000,   5.813898]
   RMS size of the density [Ang]:         2.444784
     Cartesian components [Ang]:        [  1.499356,   1.499355,   1.216895]
 

 Excited state properties for  EOMEA-CCSD transition 2/A1
 Dipole moment (a.u.): 0.325001 (X 0.000000, Y 0.000000, Z -0.325001)
 R-squared (a.u.): 2145.971578 (XX 800.616455, YY 800.613113, ZZ 544.742010)
 Gauge origin (a.u.): (0.000000, 0.000000, 0.000000)
 Angular momentum (a.u.) against gauge origin: 
 (X 0.000000i, Y 0.000000i, Z 0.000000i)
 Traces of the OPDMs: Tr(AA) 49.000000, Tr(BB) 50.000000
 <S^2> = 0.750000

State OPDM analysis using libwa module will be excecuted
 NOs (alpha)
   Occupation of frontier NOs:
      0.0014   0.9984
   Number of electrons: 49.000000
 NOs (beta)
   Occupation of frontier NOs:
      0.0099   0.9742
   Number of electrons: 50.000000
 NOs (spin-traced)
   Occupation of frontier NOs:
      0.9746   1.9972
   Number of electrons: 99.000000
   Number of unpaired electrons: n_u =  1.04168, n_u,nl =  0.99955
   NO participation ratio (PR_NO):  1.142049
 
 Mulliken Population Analysis
  Atom      Charge (e)        Spin (e)
 -------------------------------------
  1 Cr       -1.443621        2.031341
  2  N        0.107513       -0.187644
  3  N       -0.381486        0.018265
  4  C       -0.162382       -0.066242
  5  C        0.164623       -0.295065
  6  N       -0.444458        0.095917
  7  N       -0.444340        0.096011
  8  C        0.164164       -0.294723
  9  C        0.164623       -0.295065
 10  N       -0.444458        0.095917
 11  C        0.164164       -0.294723
 12  N       -0.444340        0.096011
 -------------------------------------
  Sum:       -3.000000        1.000000
 
 Multipole moment analysis of the density matrix
   Molecular charge:                      -3.000000
   Number of electrons:                   99.000000
     Center of electronic charge [Ang]: [  0.000000,  -0.000000,   0.001737]
   Total nuclear charge:                  96.000000
     Center of nuclear charge [Ang]:    [  0.000000,  -0.000000,  -0.000000]
   Dipole moment [D]:                     0.826071
     Cartesian components [D]:          [ -0.000000,   0.000000,  -0.826071]
   RMS size of the density [Ang]:         2.463743
     Cartesian components [Ang]:        [  1.504859,   1.504856,   1.241305]
 

 Excited state properties for  EOMEA-CCSD transition 3/A1
 Dipole moment (a.u.): 2.468087 (X 0.000000, Y 0.000000, Z 2.468087)
 R-squared (a.u.): 2117.903337 (XX 795.207986, YY 795.206943, ZZ 527.488408)
 Gauge origin (a.u.): (0.000000, 0.000000, 0.000000)
 Angular momentum (a.u.) against gauge origin: 
 (X 0.000000i, Y 0.000000i, Z 0.000000i)
 Traces of the OPDMs: Tr(AA) 49.000000, Tr(BB) 50.000000
 <S^2> = 0.750000

State OPDM analysis using libwa module will be excecuted
 NOs (alpha)
   Occupation of frontier NOs:
      0.0028   0.9971
   Number of electrons: 49.000000
 NOs (beta)
   Occupation of frontier NOs:
      0.0162   0.9461
   Number of electrons: 50.000000
 NOs (spin-traced)
   Occupation of frontier NOs:
      0.9475   1.9961
   Number of electrons: 99.000000
   Number of unpaired electrons: n_u =  1.02249, n_u,nl =  0.99793
   NO participation ratio (PR_NO):  1.163436
 
 Mulliken Population Analysis
  Atom      Charge (e)        Spin (e)
 -------------------------------------
  1 Cr        0.132690        0.518609
  2  N       -0.220659        0.082861
  3  N       -0.332114       -0.045421
  4  C       -0.304017        0.122109
  5  C       -0.197408        0.052688
  6  N       -0.371585        0.027753
  7  N       -0.371524        0.027776
  8  C       -0.197433        0.052703
  9  C       -0.197408        0.052688
 10  N       -0.371585        0.027753
 11  C       -0.197433        0.052703
 12  N       -0.371524        0.027776
 -------------------------------------
  Sum:       -3.000000        1.000000
 
 Multipole moment analysis of the density matrix
   Molecular charge:                      -3.000000
   Number of electrons:                   99.000000
     Center of electronic charge [Ang]: [ -0.000000,  -0.000000,  -0.013192]
   Total nuclear charge:                  96.000000
     Center of nuclear charge [Ang]:    [  0.000000,  -0.000000,  -0.000000]
   Dipole moment [D]:                     6.273251
     Cartesian components [D]:          [  0.000000,   0.000000,   6.273251]
   RMS size of the density [Ang]:         2.447543
     Cartesian components [Ang]:        [  1.499767,   1.499766,   1.221419]
 

 Excited state properties for  EOMEA-CCSD transition 4/A1
 Dipole moment (a.u.): 0.570079 (X 0.000000, Y 0.000000, Z 0.570079)
 R-squared (a.u.): 2144.907648 (XX 802.772518, YY 802.772121, ZZ 539.363009)
 Gauge origin (a.u.): (0.000000, 0.000000, 0.000000)
 Angular momentum (a.u.) against gauge origin: 
 (X 0.000000i, Y 0.000000i, Z 0.000000i)
 Traces of the OPDMs: Tr(AA) 49.000000, Tr(BB) 50.000000
 <S^2> = 0.750000

State OPDM analysis using libwa module will be excecuted
 NOs (alpha)
   Occupation of frontier NOs:
      0.0015   0.9983
   Number of electrons: 49.000000
 NOs (beta)
   Occupation of frontier NOs:
      0.0059   0.9711
   Number of electrons: 50.000000
 NOs (spin-traced)
   Occupation of frontier NOs:
      0.9715   1.9971
   Number of electrons: 99.000000
   Number of unpaired electrons: n_u =  1.05130, n_u,nl =  0.99911
   NO participation ratio (PR_NO):  1.170805
 
 Mulliken Population Analysis
  Atom      Charge (e)        Spin (e)
 -------------------------------------
  1 Cr       -1.017033        1.579327
  2  N        0.133797       -0.256469
  3  N       -0.231731       -0.134340
  4  C       -0.565193        0.345107
  5  C        0.049862       -0.176851
  6  N       -0.379826        0.043439
  7  N       -0.379607        0.043390
  8  C        0.049650       -0.176791
  9  C        0.049862       -0.176851
 10  N       -0.379826        0.043439
 11  C        0.049650       -0.176791
 12  N       -0.379607        0.043390
 -------------------------------------
  Sum:       -3.000000        1.000000
 
 Multipole moment analysis of the density matrix
   Molecular charge:                      -3.000000
   Number of electrons:                   99.000000
     Center of electronic charge [Ang]: [  0.000000,   0.000000,  -0.003047]
   Total nuclear charge:                  96.000000
     Center of nuclear charge [Ang]:    [  0.000000,  -0.000000,  -0.000000]
   Dipole moment [D]:                     1.448997
     Cartesian components [D]:          [ -0.000000,  -0.000000,   1.448997]
   RMS size of the density [Ang]:         2.463131
     Cartesian components [Ang]:        [  1.506884,   1.506883,   1.235159]
 

 Excited state properties for  EOMEA-CCSD transition 5/A1
 Dipole moment (a.u.): 1.132311 (X 0.000000, Y 0.000000, Z 1.132311)
 R-squared (a.u.): 2138.732877 (XX 802.465899, YY 802.469345, ZZ 533.797633)
 Gauge origin (a.u.): (0.000000, 0.000000, 0.000000)
 Angular momentum (a.u.) against gauge origin: 
 (X 0.000000i, Y 0.000000i, Z 0.000000i)
 Traces of the OPDMs: Tr(AA) 49.000000, Tr(BB) 50.000000
 <S^2> = 0.750000

State OPDM analysis using libwa module will be excecuted
 NOs (alpha)
   Occupation of frontier NOs:
      0.0036   0.9972
   Number of electrons: 49.000000
 NOs (beta)
   Occupation of frontier NOs:
      0.0112   0.9483
   Number of electrons: 50.000000
 NOs (spin-traced)
   Occupation of frontier NOs:
      0.9489   1.9956
   Number of electrons: 99.000000
   Number of unpaired electrons: n_u =  1.08444, n_u,nl =  0.99720
   NO participation ratio (PR_NO):  1.305199
 
 Mulliken Population Analysis
  Atom      Charge (e)        Spin (e)
 -------------------------------------
  1 Cr       -1.005111        1.501163
  2  N       -0.140254        0.018015
  3  N       -0.364155       -0.000676
  4  C       -0.217828        0.001181
  5  C        0.066567       -0.191946
  6  N       -0.384777        0.062047
  7  N       -0.384713        0.062060
  8  C        0.066597       -0.192003
  9  C        0.066567       -0.191946
 10  N       -0.384777        0.062047
 11  C        0.066597       -0.192003
 12  N       -0.384713        0.062060
 -------------------------------------
  Sum:       -3.000000        1.000000
 
 Multipole moment analysis of the density matrix
   Molecular charge:                      -3.000000
   Number of electrons:                   99.000000
     Center of electronic charge [Ang]: [  0.000000,   0.000000,  -0.006052]
   Total nuclear charge:                  96.000000
     Center of nuclear charge [Ang]:    [  0.000000,  -0.000000,  -0.000000]
   Dipole moment [D]:                     2.878047
     Cartesian components [D]:          [ -0.000000,  -0.000000,   2.878047]
   RMS size of the density [Ang]:         2.459577
     Cartesian components [Ang]:        [  1.506596,   1.506599,   1.228759]
 

 Excited state properties for  EOMEA-CCSD transition 6/A1
 Dipole moment (a.u.): 1.761647 (X 0.000000, Y 0.000000, Z 1.761647)
 R-squared (a.u.): 2126.005035 (XX 797.542185, YY 797.526916, ZZ 530.935933)
 Gauge origin (a.u.): (0.000000, 0.000000, 0.000000)
 Angular momentum (a.u.) against gauge origin: 
 (X 0.000000i, Y 0.000000i, Z 0.000000i)
 Traces of the OPDMs: Tr(AA) 49.000000, Tr(BB) 50.000000
 <S^2> = 0.750000

State OPDM analysis using libwa module will be excecuted
 NOs (alpha)
   Occupation of frontier NOs:
      0.0072   0.9955
   Number of electrons: 49.000000
 NOs (beta)
   Occupation of frontier NOs:
      0.0190   0.9234
   Number of electrons: 50.000000
 NOs (spin-traced)
   Occupation of frontier NOs:
      0.9242   1.9933
   Number of electrons: 99.000000
   Number of unpaired electrons: n_u =  1.12086, n_u,nl =  0.99425
   NO participation ratio (PR_NO):  1.468266
 
 Mulliken Population Analysis
  Atom      Charge (e)        Spin (e)
 -------------------------------------
  1 Cr        0.065282        0.451020
  2  N       -0.187983        0.067798
  3  N       -0.363142       -0.000847
  4  C       -0.059594       -0.150610
  5  C       -0.256073        0.135882
  6  N       -0.357650        0.022404
  7  N       -0.357437        0.022246
  8  C       -0.256123        0.135787
  9  C       -0.256073        0.135882
 10  N       -0.357650        0.022404
 11  C       -0.256123        0.135787
 12  N       -0.357437        0.022246
 -------------------------------------
  Sum:       -3.000000        1.000000
 
 Multipole moment analysis of the density matrix
   Molecular charge:                      -3.000000
   Number of electrons:                   99.000000
     Center of electronic charge [Ang]: [  0.000000,   0.000000,  -0.009416]
   Total nuclear charge:                  96.000000
     Center of nuclear charge [Ang]:    [  0.000000,  -0.000000,  -0.000000]
   Dipole moment [D]:                     4.477660
     Cartesian components [D]:          [ -0.000000,  -0.000000,   4.477660]
   RMS size of the density [Ang]:         2.452237
     Cartesian components [Ang]:        [  1.501967,   1.501953,   1.225439]
 

 Excited state properties for  EOMEA-CCSD transition 7/A1
 Dipole moment (a.u.): 1.923665 (X 0.000000, Y 0.000000, Z 1.923665)
 R-squared (a.u.): 2132.904085 (XX 802.474091, YY 802.483491, ZZ 527.946502)
 Gauge origin (a.u.): (0.000000, 0.000000, 0.000000)
 Angular momentum (a.u.) against gauge origin: 
 (X 0.000000i, Y 0.000000i, Z 0.000000i)
 Traces of the OPDMs: Tr(AA) 49.000000, Tr(BB) 50.000000
 <S^2> = 0.750000

State OPDM analysis using libwa module will be excecuted
 NOs (alpha)
   Occupation of frontier NOs:
      0.0080   0.9946
   Number of electrons: 49.000000
 NOs (beta)
   Occupation of frontier NOs:
      0.0148   0.9255
   Number of electrons: 50.000000
 NOs (spin-traced)
   Occupation of frontier NOs:
      0.9266   1.9918
   Number of electrons: 99.000000
   Number of unpaired electrons: n_u =  1.12735, n_u,nl =  0.99514
   NO participation ratio (PR_NO):  1.477797
 
 Mulliken Population Analysis
  Atom      Charge (e)        Spin (e)
 -------------------------------------
  1 Cr       -0.183655        0.627891
  2  N       -0.175855       -0.004771
  3  N       -0.366585       -0.004344
  4  C       -0.205246        0.010059
  5  C       -0.116736        0.023116
  6  N       -0.400346        0.069588
  7  N       -0.400374        0.069745
  8  C       -0.116873        0.023134
  9  C       -0.116736        0.023116
 10  N       -0.400346        0.069588
 11  C       -0.116873        0.023134
 12  N       -0.400374        0.069745
 -------------------------------------
  Sum:       -3.000000        1.000000
 
 Multipole moment analysis of the density matrix
   Molecular charge:                      -3.000000
   Number of electrons:                   99.000000
     Center of electronic charge [Ang]: [  0.000000,   0.000000,  -0.010282]
   Total nuclear charge:                  96.000000
     Center of nuclear charge [Ang]:    [  0.000000,  -0.000000,  -0.000000]
   Dipole moment [D]:                     4.889470
     Cartesian components [D]:          [ -0.000000,  -0.000000,   4.889470]
   RMS size of the density [Ang]:         2.456209
     Cartesian components [Ang]:        [  1.506604,   1.506613,   1.221977]
 

 Excited state properties for  EOMEA-CCSD transition 8/A1
 Dipole moment (a.u.): 5.288384 (X 0.000000, Y 0.000000, Z 5.288384)
 R-squared (a.u.): 2134.728540 (XX 797.349253, YY 797.349125, ZZ 540.030162)
 Gauge origin (a.u.): (0.000000, 0.000000, 0.000000)
 Angular momentum (a.u.) against gauge origin: 
 (X 0.000000i, Y 0.000000i, Z 0.000000i)
 Traces of the OPDMs: Tr(AA) 49.000000, Tr(BB) 50.000000
 <S^2> = 0.750000

State OPDM analysis using libwa module will be excecuted
 NOs (alpha)
   Occupation of frontier NOs:
      0.0018   0.9977
   Number of electrons: 49.000000
 NOs (beta)
   Occupation of frontier NOs:
      0.0062   0.9662
   Number of electrons: 50.000000
 NOs (spin-traced)
   Occupation of frontier NOs:
      0.9670   1.9960
   Number of electrons: 99.000000
   Number of unpaired electrons: n_u =  1.05588, n_u,nl =  0.99881
   NO participation ratio (PR_NO):  1.192036
 
 Mulliken Population Analysis
  Atom      Charge (e)        Spin (e)
 -------------------------------------
  1 Cr        0.496920       -0.027807
  2  N       -0.180457       -0.006818
  3  N        1.188643       -1.492146
  4  C       -2.126456        1.965702
  5  C       -0.311476        0.203871
  6  N       -0.283197       -0.063609
  7  N       -0.283393       -0.063373
  8  C       -0.311259        0.203645
  9  C       -0.311476        0.203871
 10  N       -0.283197       -0.063609
 11  C       -0.311259        0.203645
 12  N       -0.283393       -0.063373
 -------------------------------------
[...]
    99   -3.632615566241e-15
   100    1.256476903109e-16
   101   -8.225232797050e-15
   102    9.521813370846e-04
   103    4.366413364951e-15
   104   -6.126808960334e-16
   105    8.850504959966e-17
   106   -7.565954483654e-05
   107   -1.219728866797e-16
   108    2.340722750130e-14
   109    5.786427856048e-14
   110    5.560171645488e-14
   111   -3.126010487427e-13
   112    2.918086926795e-12
   113   -7.821850032469e-02
   114   -7.945833288483e-14
   115   -6.370067364569e-14
   116   -9.109714076295e-02
   117   -9.861172310308e-14
   118    1.060049876604e-12
   119   -2.072583081088e-01
   120    1.501614926695e-13
   121   -8.019918498194e-12
   122    7.659754408048e-15
   123   -6.455488387702e-03
   124   -1.092907955942e-14
   125   -1.123665026413e-15
   126   -1.231700920930e-16
   127   -1.053082767656e-12
   128    1.685679433132e-02
   129    9.538074938358e-14
   130    5.598004298310e-15
   131    3.445833353523e-15
   132    5.419152813750e-14
   133   -4.675750304486e-03
   134   -1.571950456816e-14
   135   -8.611311187137e-16
   136    3.237074680115e-16
   137    7.016719478770e-04
   138   -2.992577328817e-15
   139    9.682353881601e-03
   140    2.309388797922e-02
   141   -7.796145456882e-02
   142    5.504010034638e-01
   143    9.402308683580e-01
   144    5.375115424230e-02
   145   -3.397373833267e-13
   146    1.212328067484e-01
   147    2.197509705390e-01
   148   -5.315264643490e-13
   149    6.940537028075e-02
   150    2.521030395042e+00
   151   -3.215664293546e-13
   152    5.742049115665e-01
   153   -3.099835459592e-03
   154   -7.756199556581e-03
   155   -2.932812139896e-15
   156    2.013090992290e-03
   157    2.333056570253e-14
   158    3.440972582550e-04
   159   -1.090589539517e-02
   160   -2.074657745336e-14
   161   -7.118837326202e-03
   162    9.841577558326e-15
   163   -3.700828825303e-04
   164   -1.406313462465e-03
   165    2.153315736800e-15
   166   -5.560026007806e-04
   167    4.107019093680e-15
   168    3.569569229899e-03
   169   -1.764790805676e-14
   170    9.578602591776e-03
   171    2.551431165916e-02
   172   -7.416666385716e-02
   173    1.824255977777e-01
   174   -3.095148455214e+00
   175   -3.973421288969e-02
   176    2.606757210533e-13
   177   -8.429230484721e-02
   178    3.532671852933e-02
   179    2.087047524954e-13
   180   -4.826928094355e-02
   181    6.911727134398e-01
   182    7.238086947295e-13
   183   -4.847431203904e-01
   184   -4.803388017707e-04
   185   -6.254689344528e-03
   186   -2.326662993182e-15
   187    1.974088531754e-03
   188    1.141149505137e-14
   189    2.285733135129e-02
   190    7.610424893192e-03
   191   -5.524218121281e-16
   192   -5.066538952321e-02
   193   -3.311045014553e-15
   194   -1.757124433868e-04
   195   -2.143628354680e-03
   196   -1.697805055280e-15
   197    2.915053262701e-04
   198   -8.069351486851e-16
   199    3.409339777958e-03
   200    4.471939826484e-15
   201    4.355327498323e-14
   202    1.275638327066e-13
   203   -5.364368278467e-13
   204    2.292588177405e-12
   205   -2.308442597233e-11
   206   -9.745884592070e-02
   207   -1.014704694645e-13
   208    3.354805955334e-14
   209   -6.918417100920e-02
   210    1.966586276963e-13
   211   -2.797651484256e-14
   212   -2.786504564328e-01
   213    5.705206936762e-12
   214   -7.921254933452e-13
   215   -1.163135535684e-14
   216    5.947565424377e-05
   217   -1.368129755163e-14
   218   -2.574404119015e-14
   219   -2.271112152005e-03
   220    1.829395429461e-13
   221   -2.265967836091e-03
   222    1.092970028634e-13
   223    3.040020898860e-13
   224   -7.662990147897e-03
   225    6.120436711624e-15
   226   -4.469091108849e-04
   227   -1.613862261145e-14
   228    7.824507911507e-15
   229    1.600403293570e-04
   230   -1.309914772287e-03
   231   -2.064842348719e-14
   232   -6.478721867729e-15
   233   -5.333608920732e-15
   234   -2.824854912974e-13
   235    4.407776715235e-12
   236    9.962699122710e-12
   237    6.778290717914e-02
   238    4.057804168633e-14
   239    1.635368103686e-13
   240    5.767401917150e-02
   241    7.294457701442e-13
   242   -9.918948088827e-14
   243    4.365465461116e-01
   244    1.776439482711e-11
   245   -1.840267399729e-12
   246   -1.205515914669e-14
   247   -1.545910050776e-03
   248   -3.317659621894e-14
   249   -5.784446521482e-14
   250   -5.663580946138e-03
   251    1.110642481958e-14
   252    1.859307817331e-02
   253    2.317522407399e-13
   254    1.634635270897e-13
   255   -2.856951964566e-02
   256   -7.859133804445e-15
   257    2.259036170424e-04
   258   -5.879234564008e-15
   259   -1.308206451661e-14
   260   -1.583995647255e-05
   261    3.742654823616e-03
   262   -1.327175908040e-14
   263   -9.682353881602e-03
   264   -2.309388797923e-02
   265    7.796145456926e-02
   266   -5.504010034655e-01
   267   -9.402308683462e-01
   268    5.375115424236e-02
   269   -4.012948742700e-13
   270   -1.212328067483e-01
   271    2.197509705409e-01
   272   -5.786704428622e-13
   273   -6.940537028063e-02
   274    2.521030395026e+00
   275   -6.127707797557e-13
   276   -5.742049115700e-01
   277    3.099835459607e-03
   278   -7.756199556541e-03
   279   -2.750735075755e-15
   280   -2.013090992255e-03
   281   -2.808977278261e-14
   282   -3.440972577858e-04
   283   -1.090589539604e-02
   284   -2.509297625033e-14
   285    7.118837324849e-03
   286   -3.450440040837e-14
   287    3.700828824854e-04
   288   -1.406313462524e-03
   289    1.060703923429e-15
   290    5.560026008381e-04
   291   -3.114996085285e-15
   292    3.569569229950e-03
   293   -1.263252157925e-14
   294   -9.578602591763e-03
   295   -2.551431165910e-02
   296    7.416666385650e-02
   297   -1.824255977725e-01
   298    3.095148455196e+00
   299   -3.973421288976e-02
   300    3.339692312575e-13
   301    8.429230484748e-02
   302    3.532671853075e-02
   303    2.504203391011e-13
   304    4.826928094378e-02
   305    6.911727134361e-01
   306    9.219222810836e-13
   307    4.847431203906e-01
   308    4.803388017620e-04
   309   -6.254689344515e-03
   310   -2.690927970284e-15
   311   -1.974088531737e-03
   312   -1.331681842740e-14
   313   -2.285733135137e-02
   314    7.610424893084e-03
   315   -4.879222648980e-16
   316    5.066538952336e-02
   317   -9.278637767515e-15
   318    1.757124433963e-04
   319   -2.143628354680e-03
   320   -7.422119251999e-16
   321   -2.915053262834e-04
   322    4.724913594633e-16
   323    3.409339777955e-03
   324    2.510913737427e-15
   325    3.513351930687e-14
   326    7.547735003053e-14
   327    2.432437931632e-13
   328   -2.780822853888e-12
   329    3.765888940748e-12
   330    6.778290717908e-02
   331   -1.033905203612e-13
   332    4.216983004652e-14
   333    5.767401917144e-02
   334    1.372618707064e-12
   335    2.074904884139e-13
   336    4.365465461114e-01
   337   -2.653458616025e-12
   338   -1.706388814428e-12
   339    2.021009680130e-14
   340   -1.545910050776e-03
   341    1.812261719001e-14
   342    3.291803390607e-15
   343    5.663580946134e-03
   344    2.232940375168e-13
   345    1.859307817331e-02
   346   -4.021160335371e-13
   347    7.013193686923e-13
   348    2.856951964566e-02
   349   -2.299165461191e-14
   350    2.259036170401e-04
   351   -4.150788518025e-14
   352   -3.078423445689e-14
   353    1.583995647279e-05
   354    3.742654823615e-03
   355   -3.788353056650e-14
   356   -1.158777833074e-14
   357   -1.809936994726e-14
   358   -2.329312517337e-13
   359    2.608261480061e-12
   360   -3.053125948674e-12
   361   -9.745884592064e-02
   362   -1.676156568685e-14
   363    6.581522233131e-14
   364   -6.918417100914e-02
   365    1.022527851135e-12
   366    7.372971353727e-14
   367   -2.786504564327e-01
   368   -4.772509427584e-13
   369    2.374875876466e-13
   370   -3.440245027876e-15
   371    5.947565424357e-05
   372    4.992861224458e-15
   373   -7.568707263541e-15
   374    2.271112152004e-03
   375   -9.736848880068e-14
   376   -2.265967836090e-03
   377   -1.939201739894e-14
   378   -1.781616753066e-13
   379    7.662990147899e-03
   380    3.359432205108e-15
   381   -4.469091108857e-04
   382   -5.771066127303e-15
   383    4.666140698193e-15
   384   -1.600403293568e-04
   385   -1.309914772287e-03
   386   -7.025086706070e-15
Sym=X
Ene= 0.463265
Spin=Alpha
Occup=0
     1    4.711347997478e-15
     2    1.042760404497e-13
     3    2.507670698240e-13
     4   -1.648598473455e-12
     5    3.326055767462e-11
     6   -6.962559292205e-12
     7   -2.448331274572e-14
     8   -4.359571902036e-03
     9    3.395974524048e-14
    10    8.261422009817e-14
    11    1.603208169101e-02
    12   -1.309385974331e-13
    13   -7.375199050379e-14
    14   -4.007755455942e-02
    15    2.782490635475e-13
    16    1.760705784729e-12
    17    1.276342906458e+00
    18    2.812239976582e-12
    19   -7.074550869902e-14
    20   -3.285498162051e-14
    21   -1.306467462725e-01
    22    1.410335871123e-13
    23   -1.540005224111e-13
    24   -1.326445390860e-14
    25    2.135937572103e-15
    26   -6.359539394572e-02
    27    1.291687745935e-13
    28   -9.621228053349e-14
    29    1.258894090510e-12
    30   -2.264009766879e-13
    31   -1.597874508241e-01
    32   -2.294447173697e-13
    33   -7.112894282436e-14
    34    2.916245107995e-12
    35   -6.101375914919e-13
    36   -1.154133897411e+00
    37    2.449757054395e-12
    38   -1.436793896648e-13
    39    5.140783317307e-14
    40    4.170028749661e-15
    41   -4.446725029649e-03
    42    5.348995396415e-15
    43   -1.579373744203e-15
    44    2.006097808030e-14
    45    4.730385109847e-03
    46    1.292137966018e-15
    47   -2.149601475916e-15
    48    8.003477354777e-14
    49    2.591663212505e-13
    50   -1.016611909653e-11
    51    6.941787744326e-14
    52    2.591222703079e-03
    53   -1.319827699500e-13
    54    2.908092129193e-14
    55   -8.091683871576e-02
    56    3.753712181891e-13
    57    4.402305817520e-13
    58    3.897063467150e-01
    59    3.723315914358e-12
    60    4.537717487473e-14
    61    4.504688317217e-15
    62    1.445440586068e-03
    63   -5.662720875674e-17
    64   -4.804883106161e-16
    65   -3.456783139793e-13
    66   -1.739983291837e-14
    67    5.310077954183e-05
    68    2.732393939586e-14
    69   -6.557948001529e-16
    70    1.875042439393e-14
    71    9.000971261801e-16
    72   -2.292650571159e-03
    73   -3.315479534640e-15
    74    6.331296210061e-16
    75    2.194764806037e-15
    76   -5.728158285407e-05
    77    2.796350823280e-14
    78    7.758205789185e-14
    79   -3.974782143520e-13
    80    2.717212051202e-12
    81   -7.424626711013e-12
    82   -2.403316820321e-14
    83    3.831900806022e-02
    84    2.020160472257e-14
    85   -7.967007248691e-15
    86    3.112811745798e-02
    87    9.875851548484e-13
    88    2.175614628231e-14
    89    1.355485726144e-01
    90   -1.385482401175e-12
    91    1.143126640424e-14
    92   -1.644102491445e-15
    93   -2.913800961972e-03
    94    5.724223404440e-16
    95   -1.230557484159e-16
    96    1.007263083045e-13
    97    1.752400926531e-14
    98    4.052109858929e-03
    99    4.094999649738e-15
   100    9.354328913626e-16
   101   -2.749945970500e-15
   102    2.253739685094e-15
   103    9.521813615443e-04
   104    8.264113521429e-16
   105    4.650047410479e-17
   106    2.182207524396e-16
   107    7.565954342369e-05
   108    1.672466525458e-14
   109    4.534911753996e-14
   110    5.474042477098e-14
   111   -5.495382552405e-13
   112    1.594847448108e-12
   113   -2.682839641091e-14
   114   -7.821850015306e-02
   115   -4.473329490567e-14
   116    9.697053408734e-16
   117   -9.109714061699e-02
   118    1.277020246559e-12
   119   -7.524751018139e-14
   120   -2.072583053418e-01
   121   -6.664725731878e-12
   122    9.566851034526e-15
   123   -3.707980323746e-15
   124   -6.455488368548e-03
   125    3.268792804991e-15
   126    2.975214998315e-16
   127   -1.013340145029e-12
   128    5.315336344829e-14
   129    1.685679488150e-02
   130   -1.262473574957e-14
   131    3.831544793402e-15
   132    6.353034160458e-14
   133   -8.335314644212e-15
   134   -4.675750394747e-03
   135    1.193328541361e-15
   136    2.105089070334e-16
   137    5.864641456876e-16
   138   -7.016719593609e-04
   139   -4.600871634765e-15
   140   -1.103587199110e-14
   141    2.160999752353e-14
   142    1.903102350188e-12
   143    5.951238145948e-12
   144    2.999352136557e-16
   145    6.778290501777e-02
   146    6.348948669859e-14
   147    1.290481291976e-13
   148    5.767401600508e-02
   149   -3.482081803615e-14
   150    1.186744306341e-11
   151    4.365465428380e-01
   152   -1.699027623778e-12
   153   -1.109611731535e-14
   154   -2.059438617329e-14
   155   -1.545910067981e-03
   156    4.537909214106e-14
   157   -5.663580813493e-03
   158    1.932514349660e-13
   159    2.047867008010e-13
   160    1.859307798861e-02
   161   -3.945708554724e-13
   162   -2.856951950945e-02
   163   -8.627658861091e-15
   164    5.830306129326e-15
   165    2.259036303501e-04
   166    1.349360387819e-14
   167   -1.583993516960e-05
   168   -1.303721713961e-14
   169   -3.742654904761e-03
   170    3.021867564020e-14
   171    9.066519118182e-14
   172   -4.381655645545e-13
   173    2.320425566239e-12
   174   -1.550655372336e-11
   175   -7.015070710876e-14
   176   -9.745884431292e-02
   177    4.446043414073e-14
   178   -2.049155243479e-13
   179   -6.918416987663e-02
   180    2.604470797558e-14
   181    3.703427633463e-12
   182   -2.786504514450e-01
   183   -3.237839006241e-13
   184   -8.829209166368e-15
   185   -5.985880617809e-15
   186    5.947563951515e-05
   187    1.986996177454e-14
   188   -2.271112075982e-03
   189    9.770465881327e-14
   190    5.444815198751e-14
   191   -2.265967844678e-03
   192   -1.525288447250e-13
   193   -7.662990115109e-03
   194    4.995954022990e-15
   195   -1.198628462135e-14
   196   -4.469091166586e-04
   197   -5.874343775918e-15
   198    1.600403262104e-04
   199    1.450935060812e-14
   200    1.309914789143e-03
   201    9.578602781781e-03
   202    2.551431215025e-02
   203   -7.416666507403e-02
   204    1.824255996642e-01
   205   -3.095148508185e+00
   206    2.347144475171e-13
   207   -3.973421314517e-02
   208   -8.429230445344e-02
   209    1.584448633358e-13
   210    3.532671975140e-02
   211   -4.826928055644e-02
   212    7.501764915643e-13
   213    6.911727273949e-01
   214   -4.847431221704e-01
   215   -4.803388318002e-04
   216   -1.726398412655e-15
   217   -6.254689360586e-03
   218   -1.974088594237e-03
   219    1.005193744962e-14
   220    2.285733190384e-02
   221   -1.059584748060e-15
   222    7.610425059018e-03
   223    5.066539044242e-02
   224    2.570177482842e-15
   225   -1.757124383745e-04
   226   -4.868257675129e-16
   227   -2.143628396150e-03
   228   -2.915053198271e-04
   229   -1.456878603653e-16
   230   -1.228206482076e-15
   231   -3.409339826446e-03
   232    9.682353801041e-03
   233    2.309388782006e-02
   234   -7.796145533584e-02
   235    5.504010169930e-01
   236    9.402308884823e-01
   237   -2.841641666033e-13
   238    5.375115409191e-02
   239    1.212328067029e-01
   240   -3.742869526140e-13
   241    2.197509736579e-01
   242    6.940536945814e-02
   243   -6.527606011058e-13
   244    2.521030435158e+00
   245    5.742049096183e-01
   246   -3.099835493536e-03
   247   -2.954936746358e-15
   248   -7.756199533465e-03
   249   -2.013091068389e-03
   250    1.940127441027e-14
   251    3.440972788862e-04
   252   -1.840256200260e-14
   253   -1.090589551652e-02
   254    7.118836879401e-03
   255    2.988757871969e-14
   256   -3.700828706768e-04
   257    2.322930947819e-15
   258   -1.406313505506e-03
   259    5.560026062970e-04
   260    2.302237367126e-15
   261    8.533829097379e-15
   262   -3.569569245397e-03
   263    3.472908648554e-14
   264    7.570545685026e-14
   265    2.966212226606e-13
   266   -3.049285989183e-12
   267   -3.437211452961e-13
   268   -9.828955581566e-14
   269    6.778290501769e-02
   270    6.615501129217e-14
   271    1.636881490676e-12
   272    5.767401600502e-02
   273    2.411598413912e-13
   274   -3.467937634109e-12
   275    4.365465428375e-01
   276   -1.100601136920e-12
   277    6.434805432876e-15
   278    1.680546592220e-14
   279   -1.545910067981e-03
   280    6.283688349399e-15
   281    5.663580813487e-03
   282    4.444438384510e-13
   283   -3.617516328301e-13
   284    1.859307798861e-02
   285   -9.782990222717e-13
   286    2.856951950945e-02
   287   -2.060975956320e-14
   288   -4.693229995045e-14
   289    2.259036303501e-04
   290    2.682324312863e-14
   291    1.583993517032e-05
   292    5.682176589288e-14
   293   -3.742654904760e-03
   294   -2.897474190035e-15
   295    1.081097796734e-16
   296   -2.422570234966e-13
   297    2.790583865061e-12
   298   -2.114740728452e-12
   299    1.817685355666e-14
   300   -9.745884431283e-02
   301    6.990573078085e-15
   302    1.251720783942e-12
   303   -6.918416987657e-02
   304    1.044479224112e-13
   305    1.889569501302e-13
   306   -2.786504514447e-01
   307    6.815598432852e-14
   308   -4.760837618502e-16
   309    3.998083708346e-15
   310    5.947563951467e-05
   311    3.813498182601e-15
   312    2.271112075979e-03
   313   -1.290090686968e-13
   314    2.186224224115e-14
   315   -2.265967844677e-03
   316    2.283179316792e-13
   317    7.662990115107e-03
   318    1.512131681150e-15
   319   -3.773678157899e-15
   320   -4.469091166585e-04
   321   -1.528065621585e-15
   322   -1.600403262103e-04
   323    5.064577704157e-15
   324    1.309914789143e-03
   325   -9.682353801054e-03
   326   -2.309388782010e-02
   327    7.796145533637e-02
   328   -5.504010169936e-01
   329   -9.402308884713e-01
   330   -3.643246474498e-13
   331    5.375115409197e-02
   332   -1.212328067028e-01
   333   -4.739290997678e-13
   334    2.197509736585e-01
   335   -6.940536945815e-02
   336   -9.426320604611e-13
   337    2.521030435143e+00
   338   -5.742049096210e-01
   339    3.099835493510e-03
   340   -2.625310777970e-15
   341   -7.756199533427e-03
   342    2.013091068318e-03
   343   -2.473493245891e-14
   344   -3.440972784286e-04
   345   -2.003304452189e-14
   346   -1.090589551709e-02
   347   -7.118836878342e-03
   348   -3.300245471531e-14
   349    3.700828706553e-04
   350    1.366538714945e-15
   351   -1.406313505533e-03
   352   -5.560026063224e-04
   353   -2.045747629320e-15
   354    7.448849242769e-15
   355   -3.569569245418e-03
   356   -9.578602781777e-03
   357   -2.551431215022e-02
   358    7.416666507362e-02
   359   -1.824255996604e-01
   360    3.095148508168e+00
   361    3.204956594305e-13
   362   -3.973421314520e-02
   363    8.429230445363e-02
   364    2.329659614498e-13
   365    3.532671975210e-02
   366    4.826928055662e-02
   367    9.756947311722e-13
   368    6.911727273912e-01
   369    4.847431221703e-01
   370    4.803388317913e-04
   371   -2.298698999485e-15
   372   -6.254689360577e-03
   373    1.974088594221e-03
   374   -1.294867032701e-14
   375   -2.285733190383e-02
   376   -2.367652963945e-17
   377    7.610425058964e-03
   378   -5.066539044239e-02
   379   -6.050221028724e-15
   380    1.757124383813e-04
   381    8.736031796696e-17
   382   -2.143628396136e-03
   383    2.915053198368e-04
   384   -2.222061896946e-18
   385   -1.125903801471e-15
   386   -3.409339826424e-03
[5D7F]

======= END OF MOLDEN-FORMATTED INPUT FILE =======


        *************************************************************
        *                                                           *
        *  Thank you very much for using Q-Chem.  Have a nice day.  *
        *                                                           *
        *************************************************************


