                  Welcome to Q-Chem
     A Quantum Leap Into The Future Of Chemistry


 Q-Chem 6.0 (devel), Q-Chem, Inc., Pleasanton, CA (2022)

 E. Epifanovsky,  A. T. B. Gilbert,  Xintian Feng,  Joonho Lee,  Yuezhi Mao,  
 N. Mardirossian,  P. Pokhilko,  A. White,  M. Wormit,  M. P. Coons,  
 A. L. Dempwolff,  Zhengting Gan,  D. Hait,  P. R. Horn,  L. D. Jacobson,  
 I. Kaliman,  J. Kussmann,  A. W. Lange,  Ka Un Lao,  D. S. Levine,  Jie Liu,  
 S. C. McKenzie,  A. F. Morrison,  K. Nanda,  F. Plasser,  D. R. Rehn,  
 M. L. Vidal,  Zhi-Qiang You,  Ying Zhu,  B. Alam,  B. Albrecht,  
 A. Aldossary,  E. Alguire,  J. H. Andersen,  V. Athavale,  D. Barton,  
 K. Begam,  A. Behn,  N. Bellonzi,  Y. A. Bernard,  E. J. Berquist,  
 H. Burton,  A. Carreras,  K. Carter-Fenk,  Romit Chakraborty,  
 Chandrima Chakravarty,  Junhan Chen,  A. D. Chien,  K. D. Closser,  
 V. Cofer-Shabica,  L. Cunha,  S. Dasgupta,  Jia Deng,  M. de Wergifosse,  
 M. Diedenhofen,  Hainam Do,  S. Ehlert,  Po-Tung Fang,  S. Fatehi,  
 Qingguo Feng,  T. Friedhoff,  B. Ganoe,  J. Gayvert,  Qinghui Ge,  
 G. Gidofalvi,  M. Goldey,  J. Gomes,  C. Gonzalez-Espinoza,  S. Gulania,  
 A. Gunina,  J. A. Gyamfi,  M. W. D. Hanson-Heine,  P. H. P. Harbach,  
 A. W. Hauser,  M. F. Herbst,  M. Hernandez Vera,  M. Hodecker,  
 Z. C. Holden,  S. Houck,  Xunkun Huang,  Kerwin Hui,  B. C. Huynh,  
 K. Ikeda,  M. Ivanov,  Hyunjun Ji,  Zuxin Jin,  Hanjie Jiang,  B. Kaduk,  
 S. Kaehler,  R. Kang,  K. Khistyaev,  Jaehoon Kim,  Yongbin Kim,  
 P. Klunzinger,  Z. Koczor-Benda,  Joong Hoon Koh,  D. Kosenkov,  
 Saikiran Kotaru,  L. Koulias,  T. Kowalczyk,  C. M. Krauter,  K. Kue,  
 A. Kunitsa,  T. Kus,  A. Landau,  K. V. Lawler,  D. Lefrancois,  S. Lehtola,  
 Rain Li,  Shaozhi Li,  Yi-Pei Li,  Jiashu Liang,  M. Liebenthal,  
 Hung-Hsuan Lin,  You-Sheng Lin,  Fenglai Liu,  Kuan-Yu Liu,  
 M. Loipersberger,  A. Luenser,  C. Malbon,  A. Manjanath,  P. Manohar,  
 E. Mansoor,  S. F. Manzer,  Shan-Ping Mao,  A. V. Marenich,  T. Markovich,  
 S. Mason,  F. Matz,  S. A. Maurer,  P. F. McLaughlin,  M. F. S. J. Menger,  
 J.-M. Mewes,  S. A. Mewes,  P. Morgante,  Mohammad Mostafanejad,  
 J. W. Mullinax,  K. J. Oosterbaan,  G. Paran,  V. Parravicini,  
 Alexander C. Paul,  Suranjan K. Paul,  F. Pavosevic,  Zheng Pei,  S. Prager,  
 E. I. Proynov,  E. Ramos,  B. Rana,  A. E. Rask,  A. Rettig,  R. M. Richard,  
 F. Rob,  E. Rossomme,  T. Scheele,  M. Scheurer,  M. Schneider,  
 P. E. Schneider,  N. Sergueev,  S. M. Sharada,  Hengyuan Shen,  
 W. Skomorowski,  D. W. Small,  C. J. Stein,  Yingli Su,  Yu-Chuan Su,  
 E. J. Sundstrom,  Zhen Tao,  J. Thirman,  Hung-Yi Tsai,  T. Tsuchimochi,  
 N. M. Tubman,  C. Utku,  S. P. Veccham,  O. Vydrov,  J. Wenzel,  
 Jonathan Wong,  J. Witte,  A. Yamada,  Chou-Hsun Yang,  Kun Yao,  
 S. Yeganeh,  S. R. Yost,  A. Zech,  F. Zeller,  Igor Ying Zhang,  
 Xing Zhang,  Yu Zhang,  D. Zuev,  A. Aspuru-Guzik,  A. T. Bell,  
 N. A. Besley,  K. B. Bravaya,  B. R. Brooks,  D. Casanova,  Jeng-Da Chai,  
 Hsing-Ta Chen,  S. Coriani,  C. J. Cramer,  A. E. DePrince, III,  
 R. A. DiStasio Jr.,  A. Dreuw,  B. D. Dunietz,  T. R. Furlani,  
 W. A. Goddard III,  S. Grimme,  S. Hammes-Schiffer,  T. Head-Gordon,  
 W. J. Hehre,  Chao-Ping Hsu,  T.-C. Jagau,  Yousung Jung,  A. Klamt,  
 Jing Kong,  D. S. Lambrecht,  Xiangyuan Li,  WanZhen Liang,  N. J. Mayhall,  
 C. W. McCurdy,  J. B. Neaton,  T. Neudecker,  C. Ochsenfeld,  
 J. A. Parkhill,  R. Peverati,  V. A. Rassolov,  Haisheng Ren,  Yihan Shao,  
 L. V. Slipchenko,  R. P. Steele,  J. E. Subotnik,  A. J. W. Thom,  
 A. Tkatchenko,  D. G. Truhlar,  T. Van Voorhis,  Fan Wang,  
 T. A. Wesolowski,  K. B. Whaley,  H. L. Woodcock III,  P. M. Zimmerman,  
 S. Faraji,  P. M. W. Gill,  M. Head-Gordon,  J. M. Herbert,  A. I. Krylov

 Contributors to earlier versions of Q-Chem not listed above: 
 R. D. Adamson,  B. Austin,  R. Baer,  J. Baker,  G. J. O. Beran,  
 K. Brandhorst,  S. T. Brown,  E. F. C. Byrd,  Arup K. Chakraborty,  
 G. K. L. Chan,  Chun-Min Chang,  Yunqing Chen,  C.-L. Cheng,  
 Siu Hung Chien,  D. M. Chipman,  D. L. Crittenden,  H. Dachsel,  
 R. J. Doerksen,  A. D. Dutoi,  R. G. Edgar,  J. Fosso-Tande,  
 L. Fusti-Molnar,  D. Ghosh,  A. Ghysels,  A. Golubeva-Zadorozhnaya,  
 J. Gonthier,  M. S. Gordon,  S. R. Gwaltney,  G. Hawkins,  J. E. Herr,  
 A. Heyden,  S. Hirata,  E. G. Hohenstein,  G. Kedziora,  F. J. Keil,  
 C. Kelley,  Jihan Kim,  R. A. King,  R. Z. Khaliullin,  P. P. Korambath,  
 W. Kurlancheek,  A. Laurent,  A. M. Lee,  M. S. Lee,  S. V. Levchenko,  
 Ching Yeh Lin,  D. Liotard,  E. Livshits,  R. C. Lochan,  I. Lotan,  
 L. A. Martinez-Martinez,  P. E. Maslen,  N. Nair,  D. P. O'Neill,  
 D. Neuhauser,  E. Neuscamman,  C. M. Oana,  R. Olivares-Amaya,  R. Olson,  
 T. M. Perrine,  B. Peters,  P. A. Pieniazek,  A. Prociuk,  Y. M. Rhee,  
 J. Ritchie,  M. A. Rohrdanz,  E. Rosta,  N. J. Russ,  H. F. Schaefer III,  
 M. W. Schmidt,  N. E. Schultz,  S. Sharma,  N. Shenvi,  C. D. Sherrill,  
 A. C. Simmonett,  A. Sodt,  T. Stein,  D. Stuck,  K. S. Thanthiriwatte,  
 V. Vanovschi,  L. Vogt,  Tao Wang,  A. Warshel,  M. A. Watson,  
 C. F. Williams,  Q. Wu,  X. Xu,  Jun Yang,  W. Zhang,  Yan Zhao

   Please cite Q-Chem as follows:
  "Software for the frontiers of quantum chemistry:
   An overview of developments in the Q-Chem 5 package"
   J. Chem. Phys. 155, 084801 (2021)
   https://doi.org/10.1063/5.0055522 (open access)

 Q-Chem 6.0.1 for Intel X86 EM64T Linux

 Parts of Q-Chem use Armadillo 9.900.5 (Nocturnal Misbehaviour).
 http://arma.sourceforge.net/

 Q-Chem begins on Thu Apr 18 18:22:07 2024  

 Host: atlas-304
0

     Scratch files written to ./qchem23577//
 Processing $rem in /scratch/abel/SOFTWARE/qchem/config/preferences:
 Processing $rem in /dipc/acebg/.qchemrc:

 Checking the input file for inconsistencies... 	...done.

--------------------------------------------------------------
User input:
--------------------------------------------------------------
$comment
 TD-DFT/TDA CALCULATION
$end

$molecule
 READ 2Tm_doublet.molecule
$end

$rem
!**REFERENCE***     
JOBTYPE            SP
EXCHANGE           GEN   !gen:specify in $xc_functional
CORRELATION        NONE
BASIS              cc-pVTZ  

!***SCF REFERENCE***
!INPUT_BOHR         TRUE
!SKIP_SCFMAN        FALSE
UNRESTRICTED        TRUE !rectricted-TDDFT not avail in doublets
!SCF_GUESS          core
!SCF_GUESS_MIX      FALSE
!SCF_GUESS_ALWAYS   FALSE
MAX_SCF_CYCLES      999
!SCF_CONVERGENCE    10
!SCF_ALGORITHM       DIIS_GDM !DIIS,DM,DIIS_DM,GDM,DIIS_GDM,GD

!SYMMETRY           TRUE !use of symmetry for calculating integrals
!SYM_IGNORE         FALSE !turn off using symmetry
!SYM_TOL            5 !tolerance for determining point group

!THRESH             14
!SCF_FINAL_PRINT    2 !0,1,2,3

!****CIS****
CIS_N_ROOTS        50
!CIS_CONVERGENCE   10
MAX_CIS_CYCLES     200
!CIS_SINGLETS      true
!CIS_TRIPLETS      true
CALC_SOC           2 !not available in doublets in TDDFT
STS_ANGMOM        true !orbit. ang. moment. between states
!RPA                FALSE !in default RPA=1 and TDA calc used as guess of TDDFT

!****MEMORY****
!MEM_TOTAL          80000        !Default 2000 MB
!MEM_STATIC         25000         !Default 64 MB

!**Molecular Properties and Analysis **
!POP_MULLIKEN       FALSE   !Run Mulliken population analysis
!LOWDIN_POPULATION  FALSE  !Run Löwdin population analysis
GUI                2
!STATE_ANALYSIS     TRUE
!MOLDEN_FORMAT      FALSE
!PRINT_ORBITALS     5
!CIS_MOMENTS        TRUE !TDA Excited-State Multipoles
$end

$xc_functional
!**50-50 functional**
X  HF    0.50
X  S     0.08
X  B     0.42
C  VWN   0.19
C  LYP   0.81
$end

--------------------------------------------------------------
 ----------------------------------------------------------------
             Standard Nuclear Orientation (Angstroms)
    I     Atom           X                Y                Z
 ----------------------------------------------------------------
    1      C       0.6243679838    -2.7362621432     0.0003164261
    2      C      -0.7015735948    -2.3361348215    -0.0001649656
    3      C      -1.0419824835    -0.9670971198    -0.0008439034
    4      C      -0.0000548132     0.0000772801    -0.0007831605
    5      C       1.3584588456    -0.4190204443    -0.0006995145
    6      C       1.6452104651    -1.8007803647     0.0005070396
    7      H       2.6803978057    -2.1201859378     0.0010792188
    8      C      -2.3824177811    -0.5244633738    -0.0001682759
    9      C      -2.6817315780     0.8273312149     0.0010471198
   10      C      -1.6726421175     1.7759152657     0.0004904235
   11      C      -0.3163469004     1.3862234269    -0.0005293069
   12      C       0.7367752863     2.3252776938    -0.0005747718
   13      C       2.0576065541     1.9084870347     0.0003141988
   14      C       2.3743006152     0.5606173675     0.0003067751
   15      H       0.8642366403    -3.7915666760     0.0017549180
   16      H      -1.4954579885    -3.0731591179    -0.0014156115
   17      H      -3.1763935341    -1.2613339838    -0.0004689351
   18      H      -3.7163564276     1.1467917750     0.0019081870
   19      H      -1.9134249087     2.8315998155     0.0005558156
   20      H       3.4093648619     0.2407464211     0.0016850583
   21      H       0.4965831230     3.3810858808    -0.0007420755
   22      H       2.8512275382     2.6449957256     0.0003349189
 ----------------------------------------------------------------
 Molecular Point Group                 C1    NOp =  1
 Largest Abelian Subgroup              C1    NOp =  1
 Nuclear Repulsion Energy =         700.08505759 hartrees
 There are       44 alpha and       43 beta electrons
 Requested basis set is cc-pVTZ
 There are 184 shells and 516 basis functions

 Total QAlloc Memory Limit   2000 MB
 Mega-Array Size       188 MB
 MEM_STATIC part       192 MB

 A cutoff of  1.0D-12 yielded  14231 shell pairs
 There are    110645 function pairs (    144456 Cartesian)
 Smallest overlap matrix eigenvalue = 1.54E-05

 Scale SEOQF with 1.000000e-01/1.000000e-01/1.000000e+00

 Standard Electronic Orientation quadrupole field applied
 Nucleus-field energy     =     0.0000000272 hartrees
 Guess from superposition of atomic densities
 Warning:  Energy on first SCF cycle will be non-variational
 SAD guess density has 87.000000 electrons

 -----------------------------------------------------------------------
  General SCF calculation program by
  Eric Jon Sundstrom, Paul Horn, Yuezhi Mao, Dmitri Zuev, Alec White,
  David Stuck, Shaama M.S., Shane Yost, Joonho Lee, David Small,
  Daniel Levine, Susi Lehtola, Hugh Burton, Evgeny Epifanovsky,
  Bang C. Huynh
 -----------------------------------------------------------------------
 Exchange:     0.5000 Hartree-Fock + 0.0800 Slater + 0.4200 B88
 Correlation:  0.1900 VWN5 + 0.8100 LYP
 Using SG-1 standard quadrature grid
 A unrestricted SCF calculation will be
 performed using DIIS
 SCF converges when DIIS error is below 1.0e-08
 ---------------------------------------
  Cycle       Energy         DIIS error
 ---------------------------------------
    1    -505.1142395171      1.25e-02  
    2    -500.4925836970      8.37e-04  
    3    -500.5628999526      5.51e-04  
    4    -500.6061375141      1.12e-04  
    5    -500.6084268579      7.83e-05  
    6    -500.6097571118      2.94e-05  
    7    -500.6105130680      2.03e-05  
    8    -500.6111375370      1.09e-05  
    9    -500.6112350460      3.28e-06  
   10    -500.6112436982      1.61e-06  
   11    -500.6112450035      5.66e-07  
   12    -500.6112451540      8.89e-08  
   13    -500.6112451568      6.25e-08  
   14    -500.6112451576      2.94e-08  
   15    -500.6112451578      5.64e-09  Convergence criterion met
 ---------------------------------------
 SCF time:   CPU 1695.77s  wall 1701.00s 
<S^2> =          0.926359270
 SCF   energy in the final basis set =     -500.6112451578
 Total energy in the final basis set =     -500.6112451578
 

 CIS/TDDFT memory preview:
 --------------------------
	NOV = NOa*NVa + NOb*NVb = 41107
	NRoots = 50, max iter = 200, max vectors = 10000
	Size of each subspace vector: 0.31 Mb
	Davidson algorithm may add up to 2 x NOV x NRoots (= 31.4 Mb) per iteration
	Max memory = 6272.4 Mb (worst case scenario)
	Currently available memory = 2000.0 Mb

	In case of problems:
	(a) increase memory (MEM_TOTAL = 6273 can hold 10000 subspace vectors), or
	(b) request fewer states (CIS_N_ROOTS = 15 will fit in current MEM_TOTAL), or
	(c) reduce MAX_CIS_SUBSPACE (= 3188 will fit in current MEM_TOTAL).
	Reducing MAX_CIS_SUBSPACE may hamper convergence.

 Direct TDDFT/TDA calculation will be performed
 Exchange:     0.5000 Hartree-Fock + 0.0800 Slater + 0.4200 B88
 Correlation:  0.1900 VWN5 + 0.8100 LYP
 Using SG-1 standard quadrature grid
 CIS energy converged when residual is below 10e- 6
 NRoots was altered as:50 -->51
 ---------------------------------------------------
 Iter    Rts Conv    Rts Left    Ttl Dev     Max Dev
 ---------------------------------------------------
   1         0          51      0.015101    0.001034
   2         0          51      0.003930    0.000149
   3         0          51      0.001935    0.000318
   4         0          51      0.001003    0.000456
   5        22          29      0.001230    0.000280
   6        35          16      0.000662    0.000188
   7        38          13      0.000390    0.000096
   8        40          11      0.000215    0.000071
   9        45           6      0.000128    0.000043
  10        46           5      0.000058    0.000022
  11        48           3      0.000028    0.000007
  12        49           2      0.000018    0.000002
  13        51           0      0.000015    0.000001    Roots Converged
 ---------------------------------------------------
 
 ---------------------------------------------------
         TDDFT/TDA Excitation Energies              
 ---------------------------------------------------

 Excited state   1: excitation energy (eV) =    3.3533
 Total energy for state  1:                  -500.48801305 au
    <S**2>     :  0.9256
    Trans. Mom.:  0.0814 X  -0.0342 Y  -0.0000 Z
    Strength   :     0.0006407828
    S(    1) --> V(    2) amplitude =  0.6745 alpha
    D(   42) --> S(    1) amplitude =  0.2729 beta
    D(   43) --> S(    1) amplitude =  0.6556 beta

 Excited state   2: excitation energy (eV) =    3.3541
 Total energy for state  2:                  -500.48798374 au
    <S**2>     :  0.9259
    Trans. Mom.: -0.0339 X  -0.0820 Y   0.0000 Z
    Strength   :     0.0006467505
    S(    1) --> V(    3) amplitude =  0.6739 alpha
    D(   42) --> S(    1) amplitude = -0.6556 beta
    D(   43) --> S(    1) amplitude =  0.2731 beta

 Excited state   3: excitation energy (eV) =    3.5696
 Total energy for state  3:                  -500.48006396 au
    <S**2>     :  0.9385
    Trans. Mom.: -0.0004 X  -0.0010 Y   0.0000 Z
    Strength   :     0.0000000986
    S(    1) --> V(    1) amplitude =  0.8647 alpha
    D(   41) --> S(    1) amplitude = -0.4568 beta

 Excited state   4: excitation energy (eV) =    3.8646
 Total energy for state  4:                  -500.46922409 au
    <S**2>     :  0.9888
    Trans. Mom.: -0.0006 X  -0.0016 Y   0.0001 Z
    Strength   :     0.0000002632
    S(    1) --> V(    1) amplitude =  0.4526 alpha
    D(   41) --> S(    1) amplitude =  0.8583 beta

 Excited state   5: excitation energy (eV) =    4.4133
 Total energy for state  5:                  -500.44905795 au
    <S**2>     :  0.9886
    Trans. Mom.:  0.9722 X  -1.2075 Y   0.0002 Z
    Strength   :     0.2598508982
    D(   43) --> V(    3) amplitude =  0.1742 alpha
    S(    1) --> V(    2) amplitude = -0.5678 alpha
    S(    1) --> V(    3) amplitude = -0.3690 alpha
    D(   42) --> V(    1) amplitude = -0.2479 beta
    D(   43) --> S(    1) amplitude =  0.6338 beta

 Excited state   6: excitation energy (eV) =    4.4136
 Total energy for state  6:                  -500.44904731 au
    <S**2>     :  0.9887
    Trans. Mom.:  1.2080 X   0.9708 Y  -0.0002 Z
    Strength   :     0.2597116926
    D(   43) --> V(    2) amplitude =  0.1746 alpha
    S(    1) --> V(    2) amplitude = -0.3688 alpha
    S(    1) --> V(    3) amplitude =  0.5675 alpha
    D(   42) --> S(    1) amplitude =  0.6338 beta
    D(   43) --> V(    1) amplitude =  0.2482 beta

 Excited state   7: excitation energy (eV) =    4.6260
 Total energy for state  7:                  -500.44124113 au
    <S**2>     :  2.8165
    Trans. Mom.: -0.0002 X  -0.0009 Y   0.0000 Z
    Strength   :     0.0000000916
    D(   41) --> V(    2) amplitude =  0.2132 alpha
    D(   41) --> V(    3) amplitude = -0.1565 alpha
    D(   42) --> V(    2) amplitude =  0.1565 alpha
    D(   42) --> V(    3) amplitude =  0.2139 alpha
    D(   43) --> V(    1) amplitude =  0.5591 alpha
    D(   41) --> V(    1) amplitude =  0.5648 beta
    D(   42) --> V(    3) amplitude =  0.2801 beta
    D(   43) --> V(    2) amplitude = -0.2799 beta

 Excited state   8: excitation energy (eV) =    4.9983
 Total energy for state  8:                  -500.42756063 au
    <S**2>     :  2.3953
    Trans. Mom.: -0.0005 X   0.0589 Y   0.0000 Z
    Strength   :     0.0004246718
    D(   41) --> V(    1) amplitude =  0.3179 alpha
    D(   41) --> V(    2) amplitude = -0.1645 alpha
    D(   42) --> V(    3) amplitude =  0.1632 alpha
    D(   43) --> V(    2) amplitude =  0.3935 alpha
    S(    1) --> V(   10) amplitude =  0.2680 alpha
    D(   40) --> S(    1) amplitude = -0.3477 beta
    D(   41) --> V(    2) amplitude =  0.2541 beta
    D(   41) --> V(    3) amplitude = -0.1928 beta
    D(   42) --> V(    1) amplitude = -0.3247 beta
    D(   42) --> V(    2) amplitude =  0.1859 beta
    D(   43) --> V(    1) amplitude = -0.3141 beta
    D(   43) --> V(    3) amplitude = -0.1882 beta

 Excited state   9: excitation energy (eV) =    4.9985
 Total energy for state  9:                  -500.42755434 au
    <S**2>     :  2.3959
    Trans. Mom.:  0.0597 X   0.0006 Y   0.0000 Z
    Strength   :     0.0004371899
    D(   41) --> V(    3) amplitude =  0.1567 alpha
    D(   42) --> V(    1) amplitude =  0.3281 alpha
    D(   42) --> V(    2) amplitude =  0.1597 alpha
    D(   43) --> V(    3) amplitude =  0.3939 alpha
    S(    1) --> V(   11) amplitude = -0.2677 alpha
    D(   39) --> S(    1) amplitude =  0.3474 beta
    D(   41) --> V(    2) amplitude =  0.1919 beta
    D(   41) --> V(    3) amplitude =  0.2516 beta
    D(   42) --> V(    1) amplitude =  0.3147 beta
    D(   42) --> V(    3) amplitude = -0.1875 beta
    D(   43) --> V(    1) amplitude = -0.3249 beta
    D(   43) --> V(    2) amplitude = -0.1888 beta

 Excited state  10: excitation energy (eV) =    5.5853
 Total energy for state 10:                  -500.40599094 au
    <S**2>     :  2.1852
    Trans. Mom.: -0.0450 X  -0.1498 Y   0.0000 Z
    Strength   :     0.0033499015
    D(   41) --> V(    2) amplitude = -0.1684 alpha
    D(   41) --> V(    3) amplitude =  0.2416 alpha
    D(   42) --> V(    2) amplitude =  0.2453 alpha
    D(   42) --> V(    3) amplitude =  0.1693 alpha
    D(   43) --> V(    2) amplitude = -0.4027 alpha
    S(    1) --> V(   10) amplitude =  0.2087 alpha
    D(   40) --> S(    1) amplitude = -0.3324 beta
    D(   42) --> V(    1) amplitude =  0.2217 beta
    D(   42) --> V(    2) amplitude =  0.2146 beta
    D(   42) --> V(    3) amplitude = -0.2272 beta
    D(   43) --> V(    1) amplitude =  0.4058 beta
    D(   43) --> V(    2) amplitude = -0.2297 beta
    D(   43) --> V(    3) amplitude = -0.2147 beta

 Excited state  11: excitation energy (eV) =    5.5867
 Total energy for state 11:                  -500.40593772 au
    <S**2>     :  2.1848
    Trans. Mom.:  0.1504 X  -0.0446 Y  -0.0001 Z
    Strength   :     0.0033688981
    D(   41) --> V(    2) amplitude = -0.2430 alpha
    D(   41) --> V(    3) amplitude = -0.1723 alpha
    D(   42) --> V(    2) amplitude = -0.1696 alpha
    D(   42) --> V(    3) amplitude =  0.2478 alpha
    D(   43) --> V(    3) amplitude =  0.4016 alpha
    S(    1) --> V(   11) amplitude =  0.2085 alpha
    D(   39) --> S(    1) amplitude = -0.3322 beta
    D(   42) --> V(    1) amplitude =  0.4052 beta
    D(   42) --> V(    2) amplitude =  0.2284 beta
    D(   42) --> V(    3) amplitude =  0.2166 beta
    D(   43) --> V(    1) amplitude = -0.2217 beta
    D(   43) --> V(    2) amplitude =  0.2131 beta
    D(   43) --> V(    3) amplitude = -0.2290 beta

 Excited state  12: excitation energy (eV) =    5.6120
 Total energy for state 12:                  -500.40500950 au
    <S**2>     :  0.9734
    Trans. Mom.:  0.0003 X  -0.0016 Y  -0.0000 Z
    Strength   :     0.0000003549
    S(    1) --> V(    4) amplitude =  0.9731 alpha

 Excited state  13: excitation energy (eV) =    5.7931
 Total energy for state 13:                  -500.39835291 au
    <S**2>     :  2.7811
    Trans. Mom.: -0.0011 X   0.0010 Y   0.0001 Z
    Strength   :     0.0000003280
    D(   41) --> V(    2) amplitude =  0.2859 alpha
    D(   41) --> V(    3) amplitude = -0.2089 alpha
    D(   42) --> V(    2) amplitude =  0.2087 alpha
    D(   42) --> V(    3) amplitude =  0.2839 alpha
    D(   43) --> V(    1) amplitude = -0.4064 alpha
    D(   41) --> V(    1) amplitude = -0.3647 beta
    D(   42) --> V(    3) amplitude =  0.4225 beta
    D(   43) --> V(    2) amplitude = -0.4225 beta

 Excited state  14: excitation energy (eV) =    6.0726
 Total energy for state 14:                  -500.38808275 au
    <S**2>     :  0.9926
    Trans. Mom.: -0.0021 X   0.0020 Y  -0.0001 Z
    Strength   :     0.0000012224
    D(   41) --> V(    4) amplitude =  0.1772 alpha
    S(    1) --> V(    5) amplitude =  0.9512 alpha

 Excited state  15: excitation energy (eV) =    6.0731
 Total energy for state 15:                  -500.38806388 au
    <S**2>     :  0.9926
    Trans. Mom.: -0.0063 X   0.0005 Y   0.0000 Z
    Strength   :     0.0000060268
    D(   42) --> V(    4) amplitude = -0.1772 alpha
    S(    1) --> V(    6) amplitude =  0.9516 alpha

 Excited state  16: excitation energy (eV) =    6.0958
 Total energy for state 16:                  -500.38723013 au
    <S**2>     :  2.5559
    Trans. Mom.: -0.9219 X  -0.2462 Y   0.0001 Z
    Strength   :     0.1359714034
    D(   42) --> V(    1) amplitude = -0.3177 alpha
    D(   43) --> V(    2) amplitude =  0.2783 alpha
    D(   43) --> V(    3) amplitude =  0.4261 alpha
    D(   41) --> V(    2) amplitude =  0.3717 beta
    D(   41) --> V(    3) amplitude =  0.2964 beta
    D(   42) --> S(    1) amplitude = -0.1504 beta
    D(   42) --> V(    1) amplitude = -0.2550 beta
    D(   43) --> V(    1) amplitude =  0.4440 beta

 Excited state  17: excitation energy (eV) =    6.0964
 Total energy for state 17:                  -500.38720624 au
    <S**2>     :  2.5553
    Trans. Mom.:  0.2457 X  -0.9224 Y   0.0000 Z
    Strength   :     0.1360876808
    D(   41) --> V(    1) amplitude = -0.3156 alpha
    D(   43) --> V(    2) amplitude =  0.4261 alpha
    D(   43) --> V(    3) amplitude = -0.2781 alpha
    D(   41) --> V(    2) amplitude =  0.2959 beta
    D(   41) --> V(    3) amplitude = -0.3717 beta
    D(   42) --> V(    1) amplitude =  0.4443 beta
    D(   43) --> S(    1) amplitude =  0.1504 beta
    D(   43) --> V(    1) amplitude =  0.2554 beta

 Excited state  18: excitation energy (eV) =    6.2166
 Total energy for state 18:                  -500.38278755 au
    <S**2>     :  0.9839
    Trans. Mom.:  0.0004 X   0.0006 Y  -0.0000 Z
    Strength   :     0.0000000815
    D(   38) --> S(    1) amplitude =  0.9639 beta

 Excited state  19: excitation energy (eV) =    6.2217
 Total energy for state 19:                  -500.38260214 au
    <S**2>     :  0.9841
    Trans. Mom.: -0.0032 X   0.0008 Y  -0.0001 Z
    Strength   :     0.0000016173
    D(   37) --> S(    1) amplitude =  0.9643 beta

 Excited state  20: excitation energy (eV) =    6.3422
 Total energy for state 20:                  -500.37817469 au
    <S**2>     :  2.3815
    Trans. Mom.: -0.0040 X  -0.0052 Y  -0.0000 Z
    Strength   :     0.0000065585
    D(   41) --> V(    3) amplitude = -0.1974 alpha
    D(   42) --> V(    2) amplitude =  0.2013 alpha
    D(   41) --> S(    1) amplitude = -0.1873 beta
    D(   42) --> V(    2) amplitude =  0.6344 beta
    D(   43) --> V(    3) amplitude =  0.6328 beta

 Excited state  21: excitation energy (eV) =    6.3708
 Total energy for state 21:                  -500.37712120 au
    <S**2>     :  1.4083
    Trans. Mom.:  0.0276 X   0.0347 Y   0.0000 Z
    Strength   :     0.0003070847
    D(   41) --> V(    1) amplitude =  0.3163 alpha
    D(   41) --> V(    3) amplitude = -0.1718 alpha
    D(   42) --> V(    1) amplitude =  0.4927 alpha
    D(   42) --> V(    2) amplitude = -0.1727 alpha
    D(   43) --> V(    2) amplitude = -0.3518 alpha
    D(   41) --> V(    2) amplitude =  0.4151 beta
    D(   42) --> V(    3) amplitude =  0.1911 beta
    D(   43) --> V(    1) amplitude =  0.2586 beta
    D(   43) --> V(    2) amplitude =  0.1899 beta

 Excited state  22: excitation energy (eV) =    6.3713
 Total energy for state 22:                  -500.37710495 au
    <S**2>     :  1.4085
    Trans. Mom.: -0.0341 X   0.0285 Y  -0.0001 Z
    Strength   :     0.0003079005
    D(   41) --> V(    1) amplitude =  0.4926 alpha
    D(   41) --> V(    2) amplitude =  0.1719 alpha
    D(   42) --> V(    1) amplitude = -0.3053 alpha
    D(   42) --> V(    3) amplitude = -0.1843 alpha
    D(   43) --> V(    3) amplitude =  0.3519 alpha
    D(   41) --> V(    3) amplitude = -0.4164 beta
    D(   42) --> V(    1) amplitude =  0.2589 beta
    D(   42) --> V(    2) amplitude = -0.1905 beta
    D(   43) --> V(    3) amplitude =  0.1897 beta

 Excited state  23: excitation energy (eV) =    6.4964
 Total energy for state 23:                  -500.37250835 au
    <S**2>     :  0.9004
    Trans. Mom.: -0.0049 X   0.0025 Y  -0.0000 Z
    Strength   :     0.0000048163
    D(   41) --> V(    2) amplitude = -0.2751 alpha
    D(   41) --> V(    3) amplitude =  0.2003 alpha
    D(   42) --> V(    2) amplitude = -0.2008 alpha
    D(   42) --> V(    3) amplitude = -0.2755 alpha
    D(   43) --> V(    1) amplitude = -0.5197 alpha
    D(   41) --> V(    1) amplitude =  0.5563 beta
    D(   42) --> V(    3) amplitude =  0.2746 beta
    D(   43) --> V(    2) amplitude = -0.2749 beta

 Excited state  24: excitation energy (eV) =    6.5311
 Total energy for state 24:                  -500.37123053 au
    <S**2>     :  1.1864
    Trans. Mom.: -0.0004 X  -0.0012 Y  -0.0000 Z
    Strength   :     0.0000002740
    D(   41) --> V(    2) amplitude = -0.3806 alpha
    D(   41) --> V(    3) amplitude = -0.5176 alpha
    D(   42) --> V(    2) amplitude =  0.5210 alpha
    D(   42) --> V(    3) amplitude = -0.3794 alpha
    D(   42) --> V(    2) amplitude = -0.2483 beta
    D(   43) --> V(    3) amplitude = -0.2500 beta

 Excited state  25: excitation energy (eV) =    6.6807
 Total energy for state 25:                  -500.36573225 au
    <S**2>     :  0.9967
    Trans. Mom.:  0.0000 X   0.0000 Y   0.0000 Z
    Strength   :     0.0000000004
    S(    1) --> V(    7) amplitude =  0.9551 alpha

 Excited state  26: excitation energy (eV) =    6.6820
 Total energy for state 26:                  -500.36568609 au
    <S**2>     :  0.9967
    Trans. Mom.: -0.0001 X  -0.0001 Y   0.0002 Z
    Strength   :     0.0000000109
    S(    1) --> V(    8) amplitude =  0.9550 alpha

 Excited state  27: excitation energy (eV) =    6.7972
 Total energy for state 27:                  -500.36145208 au
    <S**2>     :  1.5320
    Trans. Mom.:  0.1029 X  -0.1310 Y  -0.0001 Z
    Strength   :     0.0046207227
    D(   41) --> V(    1) amplitude =  0.2066 alpha
    S(    1) --> V(   10) amplitude = -0.1718 alpha
    D(   39) --> S(    1) amplitude =  0.4545 beta
    D(   40) --> S(    1) amplitude =  0.5233 beta
    D(   41) --> V(    3) amplitude = -0.2806 beta
    D(   42) --> V(    2) amplitude =  0.2949 beta
    D(   43) --> V(    3) amplitude = -0.2948 beta

 Excited state  28: excitation energy (eV) =    6.7973
 Total energy for state 28:                  -500.36144784 au
    <S**2>     :  1.5321
    Trans. Mom.:  0.1303 X   0.1038 Y  -0.0000 Z
    Strength   :     0.0046214500
    D(   42) --> V(    1) amplitude = -0.2082 alpha
    S(    1) --> V(   11) amplitude = -0.1719 alpha
    D(   39) --> S(    1) amplitude =  0.5236 beta
    D(   40) --> S(    1) amplitude = -0.4544 beta
    D(   41) --> V(    2) amplitude = -0.2817 beta
    D(   42) --> V(    3) amplitude =  0.2954 beta
    D(   43) --> V(    2) amplitude =  0.2948 beta

 Excited state  29: excitation energy (eV) =    7.2054
 Total energy for state 29:                  -500.34645152 au
    <S**2>     :  0.8900
    Trans. Mom.: -0.0061 X   0.0038 Y   0.0010 Z
    Strength   :     0.0000094236
    D(   41) --> V(    2) amplitude = -0.3261 alpha
    D(   41) --> V(    3) amplitude =  0.2367 alpha
    D(   42) --> V(    2) amplitude = -0.2397 alpha
    D(   42) --> V(    3) amplitude = -0.3239 alpha
    D(   43) --> V(    1) amplitude =  0.4421 alpha
    D(   41) --> V(    1) amplitude = -0.4238 beta
    D(   42) --> V(    3) amplitude =  0.3604 beta
    D(   43) --> V(    2) amplitude = -0.3630 beta

 Excited state  30: excitation energy (eV) =    7.2951
 Total energy for state 30:                  -500.34315474 au
    <S**2>     :  0.9657
    Trans. Mom.: -0.0005 X  -0.0019 Y   0.0010 Z
    Strength   :     0.0000008550
    S(    1) --> V(    9) amplitude =  0.9727 alpha

 Excited state  31: excitation energy (eV) =    7.3085
 Total energy for state 31:                  -500.34266188 au
    <S**2>     :  1.1766
    Trans. Mom.: -0.0031 X  -0.0022 Y  -0.1376 Z
    Strength   :     0.0033905931
    D(   36) --> S(    1) amplitude = -0.8926 beta
    D(   37) --> V(    2) amplitude =  0.1835 beta
    D(   38) --> V(    3) amplitude =  0.1860 beta

 Excited state  32: excitation energy (eV) =    7.3455
 Total energy for state 32:                  -500.34130132 au
    <S**2>     :  0.9828
    Trans. Mom.: -0.0145 X  -1.2606 Y   0.0004 Z
    Strength   :     0.2859996413
    D(   41) --> V(    2) amplitude =  0.3481 alpha
    D(   41) --> V(    3) amplitude = -0.2800 alpha
    D(   42) --> V(    2) amplitude = -0.2831 alpha
    D(   42) --> V(    3) amplitude = -0.3484 alpha
    S(    1) --> V(   10) amplitude = -0.1975 alpha
    D(   39) --> V(    1) amplitude = -0.1737 beta
    D(   40) --> S(    1) amplitude = -0.2010 beta
    D(   41) --> V(    2) amplitude = -0.1600 beta
    D(   42) --> V(    2) amplitude =  0.3738 beta
    D(   42) --> V(    3) amplitude = -0.2212 beta
    D(   43) --> V(    2) amplitude = -0.2214 beta
    D(   43) --> V(    3) amplitude = -0.3729 beta

 Excited state  33: excitation energy (eV) =    7.3460
 Total energy for state 33:                  -500.34128430 au
    <S**2>     :  0.9743
    Trans. Mom.:  1.2048 X   0.0046 Y  -0.0010 Z
    Strength   :     0.2612515813
    D(   41) --> V(    2) amplitude =  0.2906 alpha
    D(   41) --> V(    3) amplitude =  0.3568 alpha
    D(   42) --> V(    2) amplitude =  0.3547 alpha
    D(   42) --> V(    3) amplitude = -0.2951 alpha
    S(    1) --> V(   11) amplitude = -0.1687 alpha
    D(   39) --> S(    1) amplitude = -0.1887 beta
    D(   40) --> V(    1) amplitude =  0.1731 beta
    D(   42) --> V(    2) amplitude =  0.2232 beta
    D(   42) --> V(    3) amplitude =  0.3765 beta
    D(   43) --> V(    2) amplitude =  0.3742 beta
    D(   43) --> V(    3) amplitude = -0.2240 beta

 Excited state  34: excitation energy (eV) =    7.3663
 Total energy for state 34:                  -500.34053728 au
    <S**2>     :  1.1031
    Trans. Mom.: -0.4060 X   0.9364 Y   0.0004 Z
    Strength   :     0.1880127224
    D(   41) --> V(    1) amplitude = -0.3725 alpha
    D(   41) --> V(    2) amplitude =  0.2306 alpha
    D(   42) --> V(    3) amplitude = -0.2250 alpha
    S(    1) --> V(   10) amplitude =  0.6289 alpha
    S(    1) --> V(   11) amplitude =  0.1807 alpha
    D(   40) --> S(    1) amplitude =  0.2440 beta
    D(   41) --> V(    2) amplitude =  0.1837 beta
    D(   41) --> V(    3) amplitude = -0.3026 beta

 Excited state  35: excitation energy (eV) =    7.3667
 Total energy for state 35:                  -500.34052552 au
    <S**2>     :  1.1073
    Trans. Mom.: -0.9928 X  -0.3657 Y   0.0003 Z
    Strength   :     0.2020244004
    D(   41) --> V(    3) amplitude =  0.2225 alpha
    D(   42) --> V(    1) amplitude =  0.3828 alpha
    D(   42) --> V(    2) amplitude =  0.2191 alpha
    S(    1) --> V(   10) amplitude = -0.1750 alpha
    S(    1) --> V(   11) amplitude =  0.6345 alpha
    D(   39) --> S(    1) amplitude =  0.2511 beta
    D(   41) --> V(    2) amplitude = -0.3027 beta
    D(   41) --> V(    3) amplitude = -0.1930 beta

 Excited state  36: excitation energy (eV) =    7.5646
 Total energy for state 36:                  -500.33325116 au
    <S**2>     :  2.0945
    Trans. Mom.: -0.0047 X  -0.0069 Y  -0.0002 Z
    Strength   :     0.0000128985
    D(   37) --> V(    3) amplitude = -0.2516 alpha
    D(   38) --> V(    2) amplitude =  0.2508 alpha
    D(   41) --> V(   10) amplitude =  0.2278 alpha
    D(   42) --> V(   11) amplitude = -0.2284 alpha
    D(   33) --> S(    1) amplitude = -0.5552 beta
    D(   39) --> V(    2) amplitude = -0.1941 beta
    D(   39) --> V(    3) amplitude = -0.2876 beta
    D(   40) --> V(    2) amplitude =  0.2866 beta
    D(   40) --> V(    3) amplitude = -0.1936 beta
    D(   42) --> V(   11) amplitude = -0.2017 beta
    D(   43) --> V(   12) amplitude = -0.2018 beta

 Excited state  37: excitation energy (eV) =    7.5687
 Total energy for state 37:                  -500.33309909 au
    <S**2>     :  1.4643
    Trans. Mom.: -0.0040 X   0.0064 Y  -0.1855 Z
    Strength   :     0.0063932200
    D(   41) --> V(    7) amplitude =  0.1653 alpha
    D(   42) --> V(    8) amplitude =  0.1654 alpha
    D(   43) --> V(    4) amplitude = -0.3381 alpha
    S(    1) --> V(   12) amplitude =  0.8166 alpha
    D(   41) --> V(    4) amplitude = -0.2248 beta

 Excited state  38: excitation energy (eV) =    7.6115
 Total energy for state 38:                  -500.33152868 au
    <S**2>     :  0.9945
    Trans. Mom.:  2.6484 X   0.4048 Y   0.0003 Z
    Strength   :     1.3385315249
    D(   42) --> V(    1) amplitude = -0.3840 alpha
    D(   43) --> V(    2) amplitude = -0.1794 alpha
    D(   43) --> V(    3) amplitude = -0.3539 alpha
    S(    1) --> V(   11) amplitude =  0.4428 alpha
    D(   39) --> S(    1) amplitude =  0.2288 beta
    D(   40) --> V(    1) amplitude = -0.2085 beta
    D(   41) --> V(    2) amplitude =  0.2725 beta
    D(   41) --> V(    3) amplitude =  0.2704 beta
    D(   42) --> V(    1) amplitude =  0.2000 beta
    D(   43) --> V(    1) amplitude = -0.2741 beta

 Excited state  39: excitation energy (eV) =    7.6117
 Total energy for state 39:                  -500.33151919 au
    <S**2>     :  0.9945
    Trans. Mom.:  0.4061 X  -2.6506 Y  -0.0003 Z
    Strength   :     1.3409424120
    D(   41) --> V(    1) amplitude =  0.3888 alpha
    D(   43) --> V(    2) amplitude =  0.3547 alpha
    D(   43) --> V(    3) amplitude = -0.1792 alpha
    S(    1) --> V(   10) amplitude =  0.4412 alpha
    D(   39) --> V(    1) amplitude =  0.2094 beta
    D(   40) --> S(    1) amplitude =  0.2284 beta
    D(   41) --> V(    2) amplitude = -0.2705 beta
    D(   41) --> V(    3) amplitude =  0.2732 beta
    D(   42) --> V(    1) amplitude =  0.2744 beta
    D(   43) --> V(    1) amplitude =  0.2003 beta

 Excited state  40: excitation energy (eV) =    7.6412
 Total energy for state 40:                  -500.33043662 au
    <S**2>     :  1.4662
    Trans. Mom.: -0.0129 X   0.0170 Y   0.0005 Z
    Strength   :     0.0000854325
    D(   35) --> S(    1) amplitude =  0.8014 beta
    D(   37) --> V(    2) amplitude = -0.3103 beta
    D(   38) --> V(    1) amplitude =  0.1791 beta
    D(   38) --> V(    3) amplitude =  0.3109 beta

 Excited state  41: excitation energy (eV) =    7.6429
 Total energy for state 41:                  -500.33037456 au
    <S**2>     :  1.4686
    Trans. Mom.:  0.0145 X   0.0040 Y  -0.0002 Z
    Strength   :     0.0000421984
    D(   34) --> S(    1) amplitude =  0.8006 beta
    D(   37) --> V(    1) amplitude =  0.1805 beta
    D(   37) --> V(    3) amplitude = -0.3087 beta
    D(   38) --> V(    2) amplitude = -0.3121 beta

 Excited state  42: excitation energy (eV) =    7.6709
 Total energy for state 42:                  -500.32934367 au
    <S**2>     :  1.9764
    Trans. Mom.:  0.0024 X  -0.0004 Y  -0.0027 Z
    Strength   :     0.0000025456
    D(   41) --> V(    5) amplitude =  0.2682 beta
    D(   41) --> V(    6) amplitude =  0.2928 beta
    D(   43) --> V(    4) amplitude =  0.8344 beta

 Excited state  43: excitation energy (eV) =    7.6715
 Total energy for state 43:                  -500.32932099 au
    <S**2>     :  1.9769
    Trans. Mom.: -0.0102 X   0.0094 Y   0.0061 Z
    Strength   :     0.0000430638
    D(   41) --> V(    5) amplitude = -0.2944 beta
    D(   41) --> V(    6) amplitude =  0.2676 beta
    D(   42) --> V(    4) amplitude =  0.8345 beta

 Excited state  44: excitation energy (eV) =    7.7056
 Total energy for state 44:                  -500.32806898 au
    <S**2>     :  1.7617
    Trans. Mom.:  0.0021 X  -0.0044 Y  -0.2752 Z
    Strength   :     0.0142985708
    S(    1) --> V(   12) amplitude =  0.2864 alpha
    D(   41) --> V(    4) amplitude =  0.7397 beta
    D(   42) --> V(    5) amplitude = -0.2551 beta
    D(   42) --> V(    6) amplitude =  0.2750 beta
    D(   43) --> V(    5) amplitude =  0.2765 beta
    D(   43) --> V(    6) amplitude =  0.2479 beta

 Excited state  45: excitation energy (eV) =    7.7859
 Total energy for state 45:                  -500.32511722 au
    <S**2>     :  2.8111
    Trans. Mom.: -0.0217 X   0.0136 Y  -0.0002 Z
    Strength   :     0.0001255960
    D(   33) --> V(    1) amplitude =  0.2395 alpha
    D(   37) --> V(    2) amplitude =  0.3544 alpha
    D(   37) --> V(    3) amplitude = -0.1749 alpha
    D(   38) --> V(    2) amplitude =  0.1873 alpha
    D(   38) --> V(    3) amplitude =  0.3041 alpha
    D(   41) --> V(   11) amplitude =  0.2398 alpha
    D(   42) --> V(   10) amplitude =  0.2148 alpha
    D(   33) --> V(    1) amplitude = -0.2324 beta
    D(   39) --> V(    2) amplitude =  0.2890 beta
    D(   39) --> V(    3) amplitude = -0.1882 beta
    D(   40) --> V(    2) amplitude =  0.1742 beta
    D(   40) --> V(    3) amplitude =  0.2478 beta
    D(   42) --> V(   12) amplitude =  0.2752 beta
    D(   43) --> V(   11) amplitude = -0.2737 beta

 Excited state  46: excitation energy (eV) =    7.7898
 Total energy for state 46:                  -500.32497641 au
    <S**2>     :  2.5342
    Trans. Mom.: -0.0500 X  -0.1945 Y   0.0000 Z
    Strength   :     0.0076960610
    D(   37) --> V(    1) amplitude = -0.3513 alpha
    D(   37) --> V(    3) amplitude =  0.1636 alpha
    D(   38) --> V(    1) amplitude = -0.1659 alpha
    D(   38) --> V(    2) amplitude =  0.1890 alpha
    D(   41) --> V(    1) amplitude = -0.1671 alpha
    D(   43) --> V(   11) amplitude = -0.2794 alpha
    S(    1) --> V(   10) amplitude =  0.2698 alpha
    D(   39) --> V(    1) amplitude = -0.4338 beta
    D(   39) --> V(    3) amplitude =  0.1719 beta
    D(   40) --> V(    2) amplitude =  0.1864 beta
    D(   41) --> V(    2) amplitude = -0.2325 beta
    D(   41) --> V(   12) amplitude =  0.1749 beta

 Excited state  47: excitation energy (eV) =    7.7911
 Total energy for state 47:                  -500.32492888 au
    <S**2>     :  2.5390
    Trans. Mom.:  0.1902 X  -0.0474 Y  -0.0005 Z
    Strength   :     0.0073354356
    D(   37) --> V(    1) amplitude = -0.1585 alpha
    D(   38) --> V(    1) amplitude =  0.3362 alpha
    D(   38) --> V(    3) amplitude =  0.2289 alpha
    D(   42) --> V(    1) amplitude =  0.1593 alpha
    D(   43) --> V(   10) amplitude =  0.2774 alpha
    S(    1) --> V(   11) amplitude =  0.2678 alpha
    D(   40) --> V(    1) amplitude =  0.4308 beta
    D(   40) --> V(    3) amplitude =  0.2113 beta
    D(   41) --> V(    3) amplitude =  0.2302 beta
    D(   41) --> V(   11) amplitude =  0.1760 beta

 Excited state  48: excitation energy (eV) =    8.0197
 Total energy for state 48:                  -500.31652681 au
    <S**2>     :  2.6373
    Trans. Mom.:  0.0001 X  -0.0005 Y  -0.0002 Z
    Strength   :     0.0000000668
    D(   40) --> V(    1) amplitude =  0.6056 alpha
    D(   40) --> V(    3) amplitude =  0.1515 alpha
    D(   35) --> S(    1) amplitude = -0.2423 beta
    D(   38) --> V(    1) amplitude =  0.6429 beta

 Excited state  49: excitation energy (eV) =    8.0233
 Total energy for state 49:                  -500.31639451 au
    <S**2>     :  2.6291
    Trans. Mom.:  0.0005 X   0.0010 Y  -0.0001 Z
    Strength   :     0.0000002689
    D(   39) --> V(    1) amplitude = -0.6142 alpha
    D(   34) --> S(    1) amplitude =  0.2435 beta
    D(   37) --> V(    1) amplitude = -0.6386 beta

 Excited state  50: excitation energy (eV) =    8.0399
 Total energy for state 50:                  -500.31578258 au
    <S**2>     :  1.9822
    Trans. Mom.: -0.0004 X   0.0007 Y   0.0001 Z
    Strength   :     0.0000001331
    D(   39) --> V(    3) amplitude =  0.2263 alpha
    D(   40) --> V(    2) amplitude = -0.2452 alpha
    D(   32) --> S(    1) amplitude =  0.6135 beta
    D(   37) --> V(    2) amplitude =  0.2369 beta
    D(   37) --> V(    3) amplitude =  0.3998 beta
    D(   38) --> V(    2) amplitude = -0.3918 beta
    D(   38) --> V(    3) amplitude =  0.2317 beta

 Excited state  51: excitation energy (eV) =    8.0658
 Total energy for state 51:                  -500.31483256 au
    <S**2>     :  1.6110
    Trans. Mom.: -0.0009 X   0.0010 Y   0.1202 Z
    Strength   :     0.0028570199
    D(   43) --> V(    4) amplitude =  0.8850 alpha
    S(    1) --> V(   12) amplitude =  0.3695 alpha
 
 ---------------------------------------------------
  SETman timing summary (seconds)
  CPU time             18170.01s
  System time              0.00s
  Wall time            18295.20s



            *********SPIN-ORBIT COUPLING JOB USING WIGNER–ECKART THEOREM BEGINS HERE*********

 Calculating one electron integrals:  Completed calculation of one electron integrals!
 Calculating MF integrals:  Completed calculation of MF integrals!
 Calculating S^2 values of the spin-states: S^2 values computed!
 Computing transition densities and evaluating SOCME with Libwe: 

**************************************************
 State A: Root 0
 State B: Root 1


 Analysing Sz ans S^2 of the pair of states...
 Ket state:  Computed S^2 = 0.9263592697 will be treated as 0.7500000000 Sz = 0.5000000000
 Bra state:  Computed S^2 = 0.9255721343 will be treated as 0.7500000000 Sz = 0.5000000000
 Clebsh-Gordan coefficient: <0.500,0.500;1.000,0.000|0.500,0.500> = 0.577

_______________________________
 One-electron SO (cm-1)
 Reduced matrix elements:
 <S|| Hso(L-) ||S'> = (-0.006464,-0.001300)
 <S|| Hso(L0) ||S'> = (0.000000,-0.001270)
 <S|| Hso(L+) ||S'> = (-0.006464,0.001300)

 SOCC = 0.007684


 Actual matrix elements:
       |Sz=-0.50>           |Sz=0.50>
 <Sz=-0.50|(0.000000,0.000733)(-0.005278,0.001061)
 <Sz=0.50|(0.005278,0.001061)(0.000000,-0.000733)
_______________________________
 Mean-field SO (cm-1)
 Reduced matrix elements:
 <S|| Hso(L-) ||S'> = (-0.003795,-0.001048)
 <S|| Hso(L0) ||S'> = (0.000000,0.000019)
 <S|| Hso(L+) ||S'> = (-0.003788,0.001043)

 Singlet part of <S|| Hso(L0) ||S'> = (0.000000,0.000008) (excluded from all matrix elements)
 L-/L+ Averaged reduced matrix elements:
 <S|| Hso(L-) ||S'> = (-0.003792,-0.001045)
 <S|| Hso(L+) ||S'> = (-0.003792,0.001045)

 SOCC = 0.004541


 Actual matrix elements:
       |Sz=-0.50>           |Sz=0.50>
 <Sz=-0.50|(0.000000,-0.000011)(-0.003096,0.000853)
 <Sz=0.50|(0.003096,0.000853)(0.000000,0.000011)
_______________________________

**************************************************

**************************************************
 State A: Root 0
 State B: Root 2


 Analysing Sz ans S^2 of the pair of states...
 Ket state:  Computed S^2 = 0.926359 will be treated as 0.750000 Sz = 0.500000
 Bra state:  Computed S^2 = 0.925870 will be treated as 0.750000 Sz = 0.500000
 Clebsh-Gordan coefficient: <0.500,0.500;1.000,0.000|0.500,0.500> = 0.577

_______________________________
 One-electron SO (cm-1)
 Reduced matrix elements:
 <S|| Hso(L-) ||S'> = (0.000840,-0.000018)
 <S|| Hso(L0) ||S'> = (0.000000,-0.008416)
 <S|| Hso(L+) ||S'> = (0.000840,0.000018)

 SOCC = 0.006940


 Actual matrix elements:
       |Sz=-0.50>           |Sz=0.50>
 <Sz=-0.50|(0.000000,0.004859)(0.000686,0.000015)
 <Sz=0.50|(-0.000686,0.000015)(0.000000,-0.004859)
_______________________________
 Mean-field SO (cm-1)
 Reduced matrix elements:
 <S|| Hso(L-) ||S'> = (0.000215,0.000107)
 <S|| Hso(L0) ||S'> = (0.000000,0.000471)
 <S|| Hso(L+) ||S'> = (0.000216,-0.000111)

 Singlet part of <S|| Hso(L0) ||S'> = (-0.000000,-0.000094) (excluded from all matrix elements)
 L-/L+ Averaged reduced matrix elements:
 <S|| Hso(L-) ||S'> = (0.000215,0.000109)
 <S|| Hso(L+) ||S'> = (0.000215,-0.000109)

 SOCC = 0.000475


 Actual matrix elements:
       |Sz=-0.50>           |Sz=0.50>
 <Sz=-0.50|(0.000000,-0.000272)(0.000176,-0.000089)
 <Sz=0.50|(-0.000176,-0.000089)(0.000000,0.000272)
_______________________________

**************************************************

**************************************************
 State A: Root 0
 State B: Root 3


 Analysing Sz ans S^2 of the pair of states...
 Ket state:  Computed S^2 = 0.926359 will be treated as 0.750000 Sz = 0.500000
 Bra state:  Computed S^2 = 0.938454 will be treated as 0.750000 Sz = 0.500000
 Clebsh-Gordan coefficient: <0.500,0.500;1.000,0.000|0.500,0.500> = 0.577

_______________________________
 One-electron SO (cm-1)
 Reduced matrix elements:
 <S|| Hso(L-) ||S'> = (-0.000683,0.006075)
 <S|| Hso(L0) ||S'> = (0.000000,4.680839)
 <S|| Hso(L+) ||S'> = (-0.000683,-0.006075)

 SOCC = 3.821896


 Actual matrix elements:
       |Sz=-0.50>           |Sz=0.50>
 <Sz=-0.50|(0.000000,-2.702484)(-0.000557,-0.004960)
 <Sz=0.50|(0.000557,-0.004960)(0.000000,2.702484)
_______________________________
 Mean-field SO (cm-1)
 Reduced matrix elements:
 <S|| Hso(L-) ||S'> = (-0.000565,0.003320)
 <S|| Hso(L0) ||S'> = (0.000000,-0.181234)
 <S|| Hso(L+) ||S'> = (-0.000564,-0.003309)

 Singlet part of <S|| Hso(L0) ||S'> = (0.000000,0.030984) (excluded from all matrix elements)
 L-/L+ Averaged reduced matrix elements:
 <S|| Hso(L-) ||S'> = (-0.000564,0.003314)
 <S|| Hso(L+) ||S'> = (-0.000564,-0.003314)

 SOCC = 0.148028


 Actual matrix elements:
       |Sz=-0.50>           |Sz=0.50>
 <Sz=-0.50|(0.000000,0.104636)(-0.000461,-0.002706)
 <Sz=0.50|(0.000461,-0.002706)(0.000000,-0.104636)
_______________________________

**************************************************

**************************************************
 State A: Root 0
 State B: Root 4


 Analysing Sz ans S^2 of the pair of states...
 Ket state:  Computed S^2 = 0.926359 will be treated as 0.750000 Sz = 0.500000
 Bra state:  Computed S^2 = 0.988762 will be treated as 0.750000 Sz = 0.500000
 Clebsh-Gordan coefficient: <0.500,0.500;1.000,0.000|0.500,0.500> = 0.577

_______________________________
 One-electron SO (cm-1)
 Reduced matrix elements:
 <S|| Hso(L-) ||S'> = (-0.001311,0.005351)
 <S|| Hso(L0) ||S'> = (0.000000,-0.408512)
 <S|| Hso(L+) ||S'> = (-0.001311,-0.005351)

 SOCC = 0.333610


 Actual matrix elements:
       |Sz=-0.50>           |Sz=0.50>
 <Sz=-0.50|(0.000000,0.235855)(-0.001071,-0.004369)
 <Sz=0.50|(0.001071,-0.004369)(0.000000,-0.235855)
_______________________________
 Mean-field SO (cm-1)
 Reduced matrix elements:
 <S|| Hso(L-) ||S'> = (-0.000696,0.003300)
 <S|| Hso(L0) ||S'> = (0.000000,-0.220091)
 <S|| Hso(L+) ||S'> = (-0.000692,-0.003290)

 Singlet part of <S|| Hso(L0) ||S'> = (-0.000000,-0.001240) (excluded from all matrix elements)
 L-/L+ Averaged reduced matrix elements:
 <S|| Hso(L-) ||S'> = (-0.000694,0.003295)
 <S|| Hso(L+) ||S'> = (-0.000694,-0.003295)

 SOCC = 0.179746


 Actual matrix elements:
       |Sz=-0.50>           |Sz=0.50>
 <Sz=-0.50|(0.000000,0.127070)(-0.000567,-0.002690)
 <Sz=0.50|(0.000567,-0.002690)(0.000000,-0.127070)
_______________________________

**************************************************

**************************************************
 State A: Root 0
 State B: Root 5


 Analysing Sz ans S^2 of the pair of states...
 Ket state:  Computed S^2 = 0.926359 will be treated as 0.750000 Sz = 0.500000
 Bra state:  Computed S^2 = 0.988556 will be treated as 0.750000 Sz = 0.500000
 Clebsh-Gordan coefficient: <0.500,0.500;1.000,0.000|0.500,0.500> = 0.577

_______________________________
 One-electron SO (cm-1)
 Reduced matrix elements:
 <S|| Hso(L-) ||S'> = (0.002355,0.002912)
 <S|| Hso(L0) ||S'> = (0.000000,-0.000703)
 <S|| Hso(L+) ||S'> = (0.002355,-0.002912)

 SOCC = 0.004362


 Actual matrix elements:
       |Sz=-0.50>           |Sz=0.50>
 <Sz=-0.50|(0.000000,0.000406)(0.001923,-0.002377)
 <Sz=0.50|(-0.001923,-0.002377)(0.000000,-0.000406)
_______________________________
 Mean-field SO (cm-1)
 Reduced matrix elements:
 <S|| Hso(L-) ||S'> = (0.001431,0.001700)
 <S|| Hso(L0) ||S'> = (0.000000,0.000210)
 <S|| Hso(L+) ||S'> = (0.001424,-0.001693)

 Singlet part of <S|| Hso(L0) ||S'> = (0.000000,0.000004) (excluded from all matrix elements)
 L-/L+ Averaged reduced matrix elements:
 <S|| Hso(L-) ||S'> = (0.001428,0.001697)
 <S|| Hso(L+) ||S'> = (0.001428,-0.001697)

 SOCC = 0.002566


 Actual matrix elements:
       |Sz=-0.50>           |Sz=0.50>
 <Sz=-0.50|(0.000000,-0.000121)(0.001166,-0.001385)
 <Sz=0.50|(-0.001166,-0.001385)(0.000000,0.000121)
_______________________________

**************************************************

**************************************************
 State A: Root 0
 State B: Root 6


 Analysing Sz ans S^2 of the pair of states...
 Ket state:  Computed S^2 = 0.926359 will be treated as 0.750000 Sz = 0.500000
 Bra state:  Computed S^2 = 0.988708 will be treated as 0.750000 Sz = 0.500000
 Clebsh-Gordan coefficient: <0.500,0.500;1.000,0.000|0.500,0.500> = 0.577

_______________________________
 One-electron SO (cm-1)
 Reduced matrix elements:
 <S|| Hso(L-) ||S'> = (0.001179,0.000599)
 <S|| Hso(L0) ||S'> = (0.000000,0.002091)
 <S|| Hso(L+) ||S'> = (0.001179,-0.000599)

 SOCC = 0.002291


 Actual matrix elements:
       |Sz=-0.50>           |Sz=0.50>
 <Sz=-0.50|(0.000000,-0.001207)(0.000963,-0.000489)
 <Sz=0.50|(-0.000963,-0.000489)(0.000000,0.001207)
_______________________________
 Mean-field SO (cm-1)
 Reduced matrix elements:
 <S|| Hso(L-) ||S'> = (0.000775,0.000352)
 <S|| Hso(L0) ||S'> = (0.000000,-0.000196)
 <S|| Hso(L+) ||S'> = (0.000765,-0.000358)

 Singlet part of <S|| Hso(L0) ||S'> = (-0.000000,-0.000044) (excluded from all matrix elements)
 L-/L+ Averaged reduced matrix elements:
 <S|| Hso(L-) ||S'> = (0.000770,0.000355)
 <S|| Hso(L+) ||S'> = (0.000770,-0.000355)

 SOCC = 0.000993


 Actual matrix elements:
       |Sz=-0.50>           |Sz=0.50>
 <Sz=-0.50|(0.000000,0.000113)(0.000629,-0.000290)
 <Sz=0.50|(-0.000629,-0.000290)(0.000000,-0.000113)
_______________________________

**************************************************

**************************************************
 State A: Root 0
 State B: Root 7


 Analysing Sz ans S^2 of the pair of states...
 Ket state:  Computed S^2 = 0.926359 will be treated as 0.750000 Sz = 0.500000
WARNING! The deviation of S^2 from the correct value is large, indicating a significant spin contamination. The results may be unreliable
 Bra state:  Computed S^2 = 2.816501 will be treated as 3.750000 Sz = 0.500000
 Clebsh-Gordan coefficient: <0.500,0.500;1.000,0.000|1.500,0.500> = 0.816

_______________________________
 One-electron SO (cm-1)
 Reduced matrix elements:
 <S|| Hso(L-) ||S'> = (-0.003587,0.003480)
 <S|| Hso(L0) ||S'> = (0.000000,0.001187)
 <S|| Hso(L+) ||S'> = (-0.003587,-0.003480)

 SOCC = 0.008276


 Actual matrix elements:
       |Sz=-0.50>           |Sz=0.50>
 <Sz=-1.50|(-0.003587,-0.003480)(0.000000,0.000000)
 <Sz=-0.50|(0.000000,0.000969)(-0.002071,-0.002009)
 <Sz=0.50|(-0.002071,0.002009)(-0.000000,0.000969)
 <Sz=1.50|(0.000000,0.000000)(-0.003587,0.003480)
_______________________________
 Mean-field SO (cm-1)
 Reduced matrix elements:
 <S|| Hso(L-) ||S'> = (-0.002127,0.001364)
 <S|| Hso(L0) ||S'> = (0.000000,0.000048)
 <S|| Hso(L+) ||S'> = (-0.002142,-0.001360)

 Singlet part of <S|| Hso(L0) ||S'> = (-0.000000,-0.000002) (excluded from all matrix elements)
 L-/L+ Averaged reduced matrix elements:
 <S|| Hso(L-) ||S'> = (-0.002134,0.001362)
 <S|| Hso(L+) ||S'> = (-0.002134,-0.001362)

 SOCC = 0.004135


 Actual matrix elements:
       |Sz=-0.50>           |Sz=0.50>
 <Sz=-1.50|(-0.002134,-0.001362)(0.000000,0.000000)
 <Sz=-0.50|(0.000000,0.000039)(-0.001232,-0.000786)
 <Sz=0.50|(-0.001232,0.000786)(-0.000000,0.000039)
 <Sz=1.50|(0.000000,0.000000)(-0.002134,0.001362)
_______________________________

**************************************************

**************************************************
 State A: Root 0
 State B: Root 8


 Analysing Sz ans S^2 of the pair of states...
 Ket state:  Computed S^2 = 0.926359 will be treated as 0.750000 Sz = 0.500000
WARNING! The deviation of S^2 from the correct value is large, indicating a significant spin contamination. The results may be unreliable
 Bra state:  Computed S^2 = 2.395322 will be treated as 3.750000 Sz = 0.500000
 Clebsh-Gordan coefficient: <0.500,0.500;1.000,0.000|1.500,0.500> = 0.816

_______________________________
 One-electron SO (cm-1)
 Reduced matrix elements:
 <S|| Hso(L-) ||S'> = (0.002841,-0.000958)
 <S|| Hso(L0) ||S'> = (0.000000,0.001348)
 <S|| Hso(L+) ||S'> = (0.002841,0.000958)

 SOCC = 0.005138


 Actual matrix elements:
       |Sz=-0.50>           |Sz=0.50>
 <Sz=-1.50|(0.002841,0.000958)(0.000000,0.000000)
 <Sz=-0.50|(-0.000000,0.001100)(0.001640,0.000553)
 <Sz=0.50|(0.001640,-0.000553)(0.000000,0.001100)
 <Sz=1.50|(0.000000,0.000000)(0.002841,-0.000958)
_______________________________
 Mean-field SO (cm-1)
 Reduced matrix elements:
 <S|| Hso(L-) ||S'> = (0.001740,-0.001222)
 <S|| Hso(L0) ||S'> = (0.000000,0.000016)
 <S|| Hso(L+) ||S'> = (0.001748,0.001209)

 Singlet part of <S|| Hso(L0) ||S'> = (-0.000000,-0.000014) (excluded from all matrix elements)
 L-/L+ Averaged reduced matrix elements:
 <S|| Hso(L-) ||S'> = (0.001744,-0.001215)
 <S|| Hso(L+) ||S'> = (0.001744,0.001215)

 SOCC = 0.003471


 Actual matrix elements:
       |Sz=-0.50>           |Sz=0.50>
 <Sz=-1.50|(0.001744,0.001215)(0.000000,0.000000)
 <Sz=-0.50|(-0.000000,0.000013)(0.001007,0.000702)
 <Sz=0.50|(0.001007,-0.000702)(0.000000,0.000013)
 <Sz=1.50|(0.000000,0.000000)(0.001744,-0.001215)
_______________________________

**************************************************

**************************************************
 State A: Root 0
 State B: Root 9


 Analysing Sz ans S^2 of the pair of states...
 Ket state:  Computed S^2 = 0.926359 will be treated as 0.750000 Sz = 0.500000
WARNING! The deviation of S^2 from the correct value is large, indicating a significant spin contamination. The results may be unreliable
 Bra state:  Computed S^2 = 2.395859 will be treated as 3.750000 Sz = 0.500000
 Clebsh-Gordan coefficient: <0.500,0.500;1.000,0.000|1.500,0.500> = 0.816

_______________________________
 One-electron SO (cm-1)
 Reduced matrix elements:
 <S|| Hso(L-) ||S'> = (-0.002040,-0.002751)
 <S|| Hso(L0) ||S'> = (0.000000,0.001217)
 <S|| Hso(L+) ||S'> = (-0.002040,0.002751)

 SOCC = 0.005767


 Actual matrix elements:
       |Sz=-0.50>           |Sz=0.50>
 <Sz=-1.50|(-0.002040,0.002751)(0.000000,0.000000)
 <Sz=-0.50|(0.000000,0.000994)(-0.001178,0.001588)
 <Sz=0.50|(-0.001178,-0.001588)(-0.000000,0.000994)
 <Sz=1.50|(0.000000,0.000000)(-0.002040,-0.002751)
_______________________________
 Mean-field SO (cm-1)
 Reduced matrix elements:
 <S|| Hso(L-) ||S'> = (-0.001185,-0.001160)
 <S|| Hso(L0) ||S'> = (0.000000,-0.000005)
 <S|| Hso(L+) ||S'> = (-0.001191,0.001164)

 Singlet part of <S|| Hso(L0) ||S'> = (-0.000000,-0.000016) (excluded from all matrix elements)
 L-/L+ Averaged reduced matrix elements:
 <S|| Hso(L-) ||S'> = (-0.001188,-0.001162)
 <S|| Hso(L+) ||S'> = (-0.001188,0.001162)

 SOCC = 0.002714


 Actual matrix elements:
       |Sz=-0.50>           |Sz=0.50>
 <Sz=-1.50|(-0.001188,0.001162)(0.000000,0.000000)
 <Sz=-0.50|(0.000000,-0.000004)(-0.000686,0.000671)
 <Sz=0.50|(-0.000686,-0.000671)(-0.000000,-0.000004)
 <Sz=1.50|(0.000000,0.000000)(-0.001188,-0.001162)
_______________________________

**************************************************

**************************************************
 State A: Root 0
 State B: Root 10


 Analysing Sz ans S^2 of the pair of states...
 Ket state:  Computed S^2 = 0.926359 will be treated as 0.750000 Sz = 0.500000
WARNING! The deviation of S^2 from the correct value is large, indicating a significant spin contamination. The results may be unreliable
 Bra state:  Computed S^2 = 2.185235 will be treated as 3.750000 Sz = 0.500000
 Clebsh-Gordan coefficient: <0.500,0.500;1.000,0.000|1.500,0.500> = 0.816

_______________________________
 One-electron SO (cm-1)
 Reduced matrix elements:
 <S|| Hso(L-) ||S'> = (0.005390,-0.008710)
 <S|| Hso(L0) ||S'> = (0.000000,-0.000357)
 <S|| Hso(L+) ||S'> = (0.005390,0.008710)

 SOCC = 0.016731


 Actual matrix elements:
       |Sz=-0.50>           |Sz=0.50>
 <Sz=-1.50|(0.005390,0.008710)(0.000000,0.000000)
 <Sz=-0.50|(-0.000000,-0.000291)(0.003112,0.005029)
 <Sz=0.50|(0.003112,-0.005029)(0.000000,-0.000291)
 <Sz=1.50|(0.000000,0.000000)(0.005390,-0.008710)
_______________________________
 Mean-field SO (cm-1)
 Reduced matrix elements:
 <S|| Hso(L-) ||S'> = (0.003318,-0.005280)
 <S|| Hso(L0) ||S'> = (0.000000,-0.000049)
 <S|| Hso(L+) ||S'> = (0.003322,0.005274)

 Singlet part of <S|| Hso(L0) ||S'> = (0.000000,0.000046) (excluded from all matrix elements)
 L-/L+ Averaged reduced matrix elements:
 <S|| Hso(L-) ||S'> = (0.003320,-0.005277)
 <S|| Hso(L+) ||S'> = (0.003320,0.005277)

 SOCC = 0.010182


 Actual matrix elements:
       |Sz=-0.50>           |Sz=0.50>
 <Sz=-1.50|(0.003320,0.005277)(0.000000,0.000000)
 <Sz=-0.50|(-0.000000,-0.000040)(0.001917,0.003047)
 <Sz=0.50|(0.001917,-0.003047)(0.000000,-0.000040)
 <Sz=1.50|(0.000000,0.000000)(0.003320,-0.005277)
_______________________________

**************************************************

**************************************************
 State A: Root 0
 State B: Root 11


 Analysing Sz ans S^2 of the pair of states...
 Ket state:  Computed S^2 = 0.926359 will be treated as 0.750000 Sz = 0.500000
WARNING! The deviation of S^2 from the correct value is large, indicating a significant spin contamination. The results may be unreliable
 Bra state:  Computed S^2 = 2.184834 will be treated as 3.750000 Sz = 0.500000
 Clebsh-Gordan coefficient: <0.500,0.500;1.000,0.000|1.500,0.500> = 0.816

_______________________________
 One-electron SO (cm-1)
 Reduced matrix elements:
 <S|| Hso(L-) ||S'> = (-0.001897,-0.001873)
 <S|| Hso(L0) ||S'> = (0.000000,0.000542)
 <S|| Hso(L+) ||S'> = (-0.001897,0.001873)

 SOCC = 0.004399


 Actual matrix elements:
       |Sz=-0.50>           |Sz=0.50>
 <Sz=-1.50|(-0.001897,0.001873)(0.000000,0.000000)
 <Sz=-0.50|(0.000000,0.000443)(-0.001095,0.001082)
 <Sz=0.50|(-0.001095,-0.001082)(-0.000000,0.000443)
 <Sz=1.50|(0.000000,0.000000)(-0.001897,-0.001873)
_______________________________
 Mean-field SO (cm-1)
 Reduced matrix elements:
 <S|| Hso(L-) ||S'> = (-0.001903,-0.001317)
 <S|| Hso(L0) ||S'> = (0.000000,0.000035)
 <S|| Hso(L+) ||S'> = (-0.001896,0.001317)

 Singlet part of <S|| Hso(L0) ||S'> = (-0.000000,-0.000018) (excluded from all matrix elements)
 L-/L+ Averaged reduced matrix elements:
 <S|| Hso(L-) ||S'> = (-0.001899,-0.001317)
 <S|| Hso(L+) ||S'> = (-0.001899,0.001317)

 SOCC = 0.003774


 Actual matrix elements:
       |Sz=-0.50>           |Sz=0.50>
 <Sz=-1.50|(-0.001899,0.001317)(0.000000,0.000000)
 <Sz=-0.50|(0.000000,0.000028)(-0.001097,0.000760)
 <Sz=0.50|(-0.001097,-0.000760)(-0.000000,0.000028)
 <Sz=1.50|(0.000000,0.000000)(-0.001899,-0.001317)
_______________________________

**************************************************

**************************************************
 State A: Root 0
 State B: Root 12


 Analysing Sz ans S^2 of the pair of states...
 Ket state:  Computed S^2 = 0.926359 will be treated as 0.750000 Sz = 0.500000
 Bra state:  Computed S^2 = 0.973388 will be treated as 0.750000 Sz = 0.500000
 Clebsh-Gordan coefficient: <0.500,0.500;1.000,0.000|0.500,0.500> = 0.577

_______________________________
 One-electron SO (cm-1)
 Reduced matrix elements:
 <S|| Hso(L-) ||S'> = (0.007220,-0.004307)
 <S|| Hso(L0) ||S'> = (0.000000,-0.016579)
 <S|| Hso(L+) ||S'> = (0.007220,0.004307)

 SOCC = 0.016658


 Actual matrix elements:
       |Sz=-0.50>           |Sz=0.50>
 <Sz=-0.50|(0.000000,0.009572)(0.005895,0.003516)
 <Sz=0.50|(-0.005895,0.003516)(0.000000,-0.009572)
_______________________________
 Mean-field SO (cm-1)
 Reduced matrix elements:
 <S|| Hso(L-) ||S'> = (0.003816,-0.002080)
 <S|| Hso(L0) ||S'> = (0.000000,-0.008263)
 <S|| Hso(L+) ||S'> = (0.003793,0.002060)

 Singlet part of <S|| Hso(L0) ||S'> = (0.000000,0.000032) (excluded from all matrix elements)
 L-/L+ Averaged reduced matrix elements:
 <S|| Hso(L-) ||S'> = (0.003805,-0.002070)
 <S|| Hso(L+) ||S'> = (0.003805,0.002070)

 SOCC = 0.008398


 Actual matrix elements:
       |Sz=-0.50>           |Sz=0.50>
 <Sz=-0.50|(0.000000,0.004770)(0.003107,0.001690)
 <Sz=0.50|(-0.003107,0.001690)(0.000000,-0.004770)
_______________________________

**************************************************

**************************************************
 State A: Root 0
 State B: Root 13


 Analysing Sz ans S^2 of the pair of states...
 Ket state:  Computed S^2 = 0.926359 will be treated as 0.750000 Sz = 0.500000
WARNING! The deviation of S^2 from the correct value is large, indicating a significant spin contamination. The results may be unreliable
 Bra state:  Computed S^2 = 2.781094 will be treated as 3.750000 Sz = 0.500000
 Clebsh-Gordan coefficient: <0.500,0.500;1.000,0.000|1.500,0.500> = 0.816

_______________________________
 One-electron SO (cm-1)
 Reduced matrix elements:
 <S|| Hso(L-) ||S'> = (-0.005143,0.002529)
 <S|| Hso(L0) ||S'> = (0.000000,-0.000346)
 <S|| Hso(L+) ||S'> = (-0.005143,-0.002529)

 SOCC = 0.009368


 Actual matrix elements:
       |Sz=-0.50>           |Sz=0.50>
 <Sz=-1.50|(-0.005143,-0.002529)(0.000000,0.000000)
 <Sz=-0.50|(0.000000,-0.000282)(-0.002969,-0.001460)
 <Sz=0.50|(-0.002969,0.001460)(-0.000000,-0.000282)
 <Sz=1.50|(0.000000,0.000000)(-0.005143,0.002529)
_______________________________
 Mean-field SO (cm-1)
 Reduced matrix elements:
 <S|| Hso(L-) ||S'> = (-0.002846,0.001062)
 <S|| Hso(L0) ||S'> = (0.000000,-0.000031)
 <S|| Hso(L+) ||S'> = (-0.002853,-0.001067)

 Singlet part of <S|| Hso(L0) ||S'> = (-0.000000,-0.000007) (excluded from all matrix elements)
 L-/L+ Averaged reduced matrix elements:
 <S|| Hso(L-) ||S'> = (-0.002849,0.001064)
 <S|| Hso(L+) ||S'> = (-0.002849,-0.001064)

 SOCC = 0.004967


 Actual matrix elements:
       |Sz=-0.50>           |Sz=0.50>
 <Sz=-1.50|(-0.002849,-0.001064)(0.000000,0.000000)
 <Sz=-0.50|(0.000000,-0.000025)(-0.001645,-0.000614)
 <Sz=0.50|(-0.001645,0.000614)(-0.000000,-0.000025)
 <Sz=1.50|(0.000000,0.000000)(-0.002849,0.001064)
_______________________________

**************************************************

**************************************************
 State A: Root 0
 State B: Root 14


 Analysing Sz ans S^2 of the pair of states...
 Ket state:  Computed S^2 = 0.926359 will be treated as 0.750000 Sz = 0.500000
 Bra state:  Computed S^2 = 0.992645 will be treated as 0.750000 Sz = 0.500000
 Clebsh-Gordan coefficient: <0.500,0.500;1.000,0.000|0.500,0.500> = 0.577

_______________________________
 One-electron SO (cm-1)
 Reduced matrix elements:
 <S|| Hso(L-) ||S'> = (-0.082876,2.627742)
 <S|| Hso(L0) ||S'> = (0.000000,0.003718)
 <S|| Hso(L+) ||S'> = (-0.082876,-2.627742)

 SOCC = 3.035765


 Actual matrix elements:
       |Sz=-0.50>           |Sz=0.50>
 <Sz=-0.50|(0.000000,-0.002147)(-0.067668,-2.145542)
 <Sz=0.50|(0.067668,-2.145542)(0.000000,0.002147)
_______________________________
 Mean-field SO (cm-1)
 Reduced matrix elements:
 <S|| Hso(L-) ||S'> = (-0.043309,1.365773)
 <S|| Hso(L0) ||S'> = (0.000000,0.001580)
 <S|| Hso(L+) ||S'> = (-0.043085,-1.358375)

 Singlet part of <S|| Hso(L0) ||S'> = (-0.000000,-0.000001) (excluded from all matrix elements)
 L-/L+ Averaged reduced matrix elements:
 <S|| Hso(L-) ||S'> = (-0.043197,1.362074)
 <S|| Hso(L+) ||S'> = (-0.043197,-1.362074)

 SOCC = 1.573579


 Actual matrix elements:
       |Sz=-0.50>           |Sz=0.50>
 <Sz=-0.50|(0.000000,-0.000912)(-0.035270,-1.112129)
 <Sz=0.50|(0.035270,-1.112129)(0.000000,0.000912)
_______________________________

**************************************************

**************************************************
 State A: Root 0
 State B: Root 15


 Analysing Sz ans S^2 of the pair of states...
 Ket state:  Computed S^2 = 0.926359 will be treated as 0.750000 Sz = 0.500000
 Bra state:  Computed S^2 = 0.992646 will be treated as 0.750000 Sz = 0.500000
 Clebsh-Gordan coefficient: <0.500,0.500;1.000,0.000|0.500,0.500> = 0.577

_______________________________
 One-electron SO (cm-1)
 Reduced matrix elements:
 <S|| Hso(L-) ||S'> = (2.614030,0.082862)
 <S|| Hso(L0) ||S'> = (0.000000,-0.000939)
 <S|| Hso(L+) ||S'> = (2.614030,-0.082862)

 SOCC = 3.019938


 Actual matrix elements:
       |Sz=-0.50>           |Sz=0.50>
 <Sz=-0.50|(0.000000,0.000542)(2.134346,-0.067657)
 <Sz=0.50|(-2.134346,-0.067657)(0.000000,-0.000542)
_______________________________
 Mean-field SO (cm-1)
 Reduced matrix elements:
 <S|| Hso(L-) ||S'> = (1.358176,0.042888)
 <S|| Hso(L0) ||S'> = (0.000000,-0.000682)
 <S|| Hso(L+) ||S'> = (1.350889,-0.042677)

 Singlet part of <S|| Hso(L0) ||S'> = (-0.000000,-0.000006) (excluded from all matrix elements)
 L-/L+ Averaged reduced matrix elements:
 <S|| Hso(L-) ||S'> = (1.354532,0.042783)
 <S|| Hso(L+) ||S'> = (1.354532,-0.042783)

 SOCC = 1.564859


 Actual matrix elements:
       |Sz=-0.50>           |Sz=0.50>
 <Sz=-0.50|(0.000000,0.000394)(1.105971,-0.034932)
 <Sz=0.50|(-1.105971,-0.034932)(0.000000,-0.000394)
_______________________________

**************************************************

**************************************************
 State A: Root 0
 State B: Root 16


 Analysing Sz ans S^2 of the pair of states...
 Ket state:  Computed S^2 = 0.926359 will be treated as 0.750000 Sz = 0.500000
WARNING! The deviation of S^2 from the correct value is large, indicating a significant spin contamination. The results may be unreliable
 Bra state:  Computed S^2 = 2.555863 will be treated as 3.750000 Sz = 0.500000
 Clebsh-Gordan coefficient: <0.500,0.500;1.000,0.000|1.500,0.500> = 0.816

_______________________________
 One-electron SO (cm-1)
 Reduced matrix elements:
 <S|| Hso(L-) ||S'> = (-0.020868,-0.000668)
 <S|| Hso(L0) ||S'> = (0.000000,0.004214)
 <S|| Hso(L+) ||S'> = (-0.020868,0.000668)

 SOCC = 0.034440


 Actual matrix elements:
       |Sz=-0.50>           |Sz=0.50>
 <Sz=-1.50|(-0.020868,0.000668)(0.000000,0.000000)
 <Sz=-0.50|(0.000000,0.003440)(-0.012048,0.000386)
 <Sz=0.50|(-0.012048,-0.000386)(-0.000000,0.003440)
 <Sz=1.50|(0.000000,0.000000)(-0.020868,-0.000668)
_______________________________
 Mean-field SO (cm-1)
 Reduced matrix elements:
 <S|| Hso(L-) ||S'> = (-0.011513,-0.000109)
 <S|| Hso(L0) ||S'> = (0.000000,-0.000904)
 <S|| Hso(L+) ||S'> = (-0.011492,0.000088)

 Singlet part of <S|| Hso(L0) ||S'> = (0.000000,0.000082) (excluded from all matrix elements)
 L-/L+ Averaged reduced matrix elements:
 <S|| Hso(L-) ||S'> = (-0.011502,-0.000098)
 <S|| Hso(L+) ||S'> = (-0.011502,0.000098)

 SOCC = 0.018813


 Actual matrix elements:
       |Sz=-0.50>           |Sz=0.50>
 <Sz=-1.50|(-0.011502,0.000098)(0.000000,0.000000)
 <Sz=-0.50|(0.000000,-0.000738)(-0.006641,0.000057)
 <Sz=0.50|(-0.006641,-0.000057)(-0.000000,-0.000738)
 <Sz=1.50|(0.000000,0.000000)(-0.011502,-0.000098)
_______________________________

**************************************************

**************************************************
 State A: Root 0
 State B: Root 17


 Analysing Sz ans S^2 of the pair of states...
 Ket state:  Computed S^2 = 0.926359 will be treated as 0.750000 Sz = 0.500000
WARNING! The deviation of S^2 from the correct value is large, indicating a significant spin contamination. The results may be unreliable
 Bra state:  Computed S^2 = 2.555255 will be treated as 3.750000 Sz = 0.500000
 Clebsh-Gordan coefficient: <0.500,0.500;1.000,0.000|1.500,0.500> = 0.816

_______________________________
 One-electron SO (cm-1)
 Reduced matrix elements:
 <S|| Hso(L-) ||S'> = (0.011335,0.013022)
 <S|| Hso(L0) ||S'> = (0.000000,0.003061)
 <S|| Hso(L+) ||S'> = (0.011335,-0.013022)

 SOCC = 0.028413


 Actual matrix elements:
       |Sz=-0.50>           |Sz=0.50>
 <Sz=-1.50|(0.011335,-0.013022)(0.000000,0.000000)
 <Sz=-0.50|(-0.000000,0.002499)(0.006544,-0.007518)
 <Sz=0.50|(0.006544,0.007518)(0.000000,0.002499)
 <Sz=1.50|(0.000000,0.000000)(0.011335,0.013022)
_______________________________
 Mean-field SO (cm-1)
 Reduced matrix elements:
 <S|| Hso(L-) ||S'> = (0.006285,0.007229)
 <S|| Hso(L0) ||S'> = (0.000000,-0.000796)
 <S|| Hso(L+) ||S'> = (0.006276,-0.007221)

 Singlet part of <S|| Hso(L0) ||S'> = (0.000000,0.000063) (excluded from all matrix elements)
 L-/L+ Averaged reduced matrix elements:
 <S|| Hso(L-) ||S'> = (0.006281,0.007225)
 <S|| Hso(L+) ||S'> = (0.006281,-0.007225)

 SOCC = 0.015660


 Actual matrix elements:
       |Sz=-0.50>           |Sz=0.50>
 <Sz=-1.50|(0.006281,-0.007225)(0.000000,0.000000)
 <Sz=-0.50|(-0.000000,-0.000650)(0.003626,-0.004171)
 <Sz=0.50|(0.003626,0.004171)(0.000000,-0.000650)
 <Sz=1.50|(0.000000,0.000000)(0.006281,0.007225)
_______________________________

**************************************************

**************************************************
 State A: Root 0
 State B: Root 18


 Analysing Sz ans S^2 of the pair of states...
 Ket state:  Computed S^2 = 0.926359 will be treated as 0.750000 Sz = 0.500000
 Bra state:  Computed S^2 = 0.983933 will be treated as 0.750000 Sz = 0.500000
 Clebsh-Gordan coefficient: <0.500,0.500;1.000,0.000|0.500,0.500> = 0.577

_______________________________
 One-electron SO (cm-1)
 Reduced matrix elements:
 <S|| Hso(L-) ||S'> = (-0.142890,1.327421)
 <S|| Hso(L0) ||S'> = (0.000000,0.000712)
 <S|| Hso(L+) ||S'> = (-0.142890,-1.327421)

 SOCC = 1.541628


 Actual matrix elements:
       |Sz=-0.50>           |Sz=0.50>
 <Sz=-0.50|(0.000000,-0.000411)(-0.116669,-1.083834)
 <Sz=0.50|(0.116669,-1.083834)(0.000000,0.000411)
_______________________________
 Mean-field SO (cm-1)
 Reduced matrix elements:
 <S|| Hso(L-) ||S'> = (-0.081608,0.753149)
 <S|| Hso(L0) ||S'> = (0.000000,-0.000664)
 <S|| Hso(L+) ||S'> = (-0.082086,-0.757284)

 Singlet part of <S|| Hso(L0) ||S'> = (0.000000,0.000027) (excluded from all matrix elements)
 L-/L+ Averaged reduced matrix elements:
 <S|| Hso(L-) ||S'> = (-0.081847,0.755216)
 <S|| Hso(L+) ||S'> = (-0.081847,-0.755216)

 SOCC = 0.877155


 Actual matrix elements:
       |Sz=-0.50>           |Sz=0.50>
 <Sz=-0.50|(0.000000,0.000383)(-0.066828,-0.616632)
 <Sz=0.50|(0.066828,-0.616632)(0.000000,-0.000383)
_______________________________

**************************************************

**************************************************
 State A: Root 0
 State B: Root 19


 Analysing Sz ans S^2 of the pair of states...
 Ket state:  Computed S^2 = 0.926359 will be treated as 0.750000 Sz = 0.500000
 Bra state:  Computed S^2 = 0.984060 will be treated as 0.750000 Sz = 0.500000
 Clebsh-Gordan coefficient: <0.500,0.500;1.000,0.000|0.500,0.500> = 0.577

_______________________________
 One-electron SO (cm-1)
 Reduced matrix elements:
 <S|| Hso(L-) ||S'> = (1.331369,0.146031)
 <S|| Hso(L0) ||S'> = (0.000000,-0.008064)
 <S|| Hso(L+) ||S'> = (1.331369,-0.146031)

 SOCC = 1.546567


 Actual matrix elements:
       |Sz=-0.50>           |Sz=0.50>
 <Sz=-0.50|(0.000000,0.004656)(1.087058,-0.119234)
 <Sz=0.50|(-1.087058,-0.119234)(0.000000,-0.004656)
_______________________________
 Mean-field SO (cm-1)
 Reduced matrix elements:
 <S|| Hso(L-) ||S'> = (0.755997,0.083214)
 <S|| Hso(L0) ||S'> = (0.000000,-0.004622)
 <S|| Hso(L+) ||S'> = (0.760119,-0.083693)

 Singlet part of <S|| Hso(L0) ||S'> = (0.000000,0.000008) (excluded from all matrix elements)
 L-/L+ Averaged reduced matrix elements:
 <S|| Hso(L-) ||S'> = (0.758058,0.083454)
 <S|| Hso(L+) ||S'> = (0.758058,-0.083454)

 SOCC = 0.880626


 Actual matrix elements:
       |Sz=-0.50>           |Sz=0.50>
 <Sz=-0.50|(0.000000,0.002669)(0.618952,-0.068140)
 <Sz=0.50|(-0.618952,-0.068140)(0.000000,-0.002669)
_______________________________

**************************************************

**************************************************
 State A: Root 0
 State B: Root 20


 Analysing Sz ans S^2 of the pair of states...
 Ket state:  Computed S^2 = 0.926359 will be treated as 0.750000 Sz = 0.500000
WARNING! The deviation of S^2 from the correct value is large, indicating a significant spin contamination. The results may be unreliable
 Bra state:  Computed S^2 = 2.381536 will be treated as 3.750000 Sz = 0.500000
 Clebsh-Gordan coefficient: <0.500,0.500;1.000,0.000|1.500,0.500> = 0.816

_______________________________
 One-electron SO (cm-1)
 Reduced matrix elements:
 <S|| Hso(L-) ||S'> = (0.000711,0.001408)
 <S|| Hso(L0) ||S'> = (0.000000,-0.906038)
 <S|| Hso(L+) ||S'> = (0.000711,-0.001408)

 SOCC = 1.046205


 Actual matrix elements:
       |Sz=-0.50>           |Sz=0.50>
 <Sz=-1.50|(0.000711,-0.001408)(0.000000,0.000000)
 <Sz=-0.50|(-0.000000,-0.739777)(0.000411,-0.000813)
 <Sz=0.50|(0.000411,0.000813)(0.000000,-0.739777)
 <Sz=1.50|(0.000000,0.000000)(0.000711,0.001408)
_______________________________
 Mean-field SO (cm-1)
 Reduced matrix elements:
 <S|| Hso(L-) ||S'> = (0.000137,0.001062)
 <S|| Hso(L0) ||S'> = (0.000000,0.202938)
 <S|| Hso(L+) ||S'> = (0.000140,-0.001067)

 Singlet part of <S|| Hso(L0) ||S'> = (-0.000000,-0.025142) (excluded from all matrix elements)
 L-/L+ Averaged reduced matrix elements:
 <S|| Hso(L-) ||S'> = (0.000139,0.001064)
 <S|| Hso(L+) ||S'> = (0.000139,-0.001064)

 SOCC = 0.234340


 Actual matrix elements:
       |Sz=-0.50>           |Sz=0.50>
 <Sz=-1.50|(0.000139,-0.001064)(0.000000,0.000000)
 <Sz=-0.50|(-0.000000,0.165699)(0.000080,-0.000615)
 <Sz=0.50|(0.000080,0.000615)(0.000000,0.165699)
 <Sz=1.50|(0.000000,0.000000)(0.000139,0.001064)
_______________________________

**************************************************

**************************************************
 State A: Root 0
 State B: Root 21


 Analysing Sz ans S^2 of the pair of states...
 Ket state:  Computed S^2 = 0.926359 will be treated as 0.750000 Sz = 0.500000
WARNING! The deviation of S^2 from the correct value is large, indicating a significant spin contamination. The results may be unreliable
 Bra state:  Computed S^2 = 1.408306 will be treated as 0.750000 Sz = 0.500000
 Clebsh-Gordan coefficient: <0.500,0.500;1.000,0.000|0.500,0.500> = 0.577

_______________________________
 One-electron SO (cm-1)
 Reduced matrix elements:
 <S|| Hso(L-) ||S'> = (0.001215,-0.000244)
 <S|| Hso(L0) ||S'> = (0.000000,-0.014161)
 <S|| Hso(L+) ||S'> = (0.001215,0.000244)

 SOCC = 0.011650


 Actual matrix elements:
       |Sz=-0.50>           |Sz=0.50>
 <Sz=-0.50|(0.000000,0.008176)(0.000992,0.000199)
 <Sz=0.50|(-0.000992,0.000199)(0.000000,-0.008176)
_______________________________
 Mean-field SO (cm-1)
 Reduced matrix elements:
 <S|| Hso(L-) ||S'> = (0.000160,-0.000154)
 <S|| Hso(L0) ||S'> = (0.000000,0.004341)
 <S|| Hso(L+) ||S'> = (0.000162,0.000154)

 Singlet part of <S|| Hso(L0) ||S'> = (-0.000000,-0.000132) (excluded from all matrix elements)
 L-/L+ Averaged reduced matrix elements:
 <S|| Hso(L-) ||S'> = (0.000161,-0.000154)
 <S|| Hso(L+) ||S'> = (0.000161,0.000154)

 SOCC = 0.003554


 Actual matrix elements:
       |Sz=-0.50>           |Sz=0.50>
 <Sz=-0.50|(0.000000,-0.002506)(0.000132,0.000126)
 <Sz=0.50|(-0.000132,0.000126)(0.000000,0.002506)
_______________________________

**************************************************

**************************************************
 State A: Root 0
 State B: Root 22


 Analysing Sz ans S^2 of the pair of states...
 Ket state:  Computed S^2 = 0.926359 will be treated as 0.750000 Sz = 0.500000
WARNING! The deviation of S^2 from the correct value is large, indicating a significant spin contamination. The results may be unreliable
 Bra state:  Computed S^2 = 1.408520 will be treated as 0.750000 Sz = 0.500000
 Clebsh-Gordan coefficient: <0.500,0.500;1.000,0.000|0.500,0.500> = 0.577

_______________________________
 One-electron SO (cm-1)
 Reduced matrix elements:
 <S|| Hso(L-) ||S'> = (-0.009739,-0.000690)
 <S|| Hso(L0) ||S'> = (0.000000,0.000095)
 <S|| Hso(L+) ||S'> = (-0.009739,0.000690)

 SOCC = 0.011274


 Actual matrix elements:
       |Sz=-0.50>           |Sz=0.50>
 <Sz=-0.50|(0.000000,-0.000055)(-0.007952,0.000563)
 <Sz=0.50|(0.007952,0.000563)(0.000000,0.000055)
_______________________________
 Mean-field SO (cm-1)
 Reduced matrix elements:
 <S|| Hso(L-) ||S'> = (-0.004829,-0.000445)
 <S|| Hso(L0) ||S'> = (0.000000,0.000075)
 <S|| Hso(L+) ||S'> = (-0.004828,0.000433)

 Singlet part of <S|| Hso(L0) ||S'> = (0.000000,0.000016) (excluded from all matrix elements)
 L-/L+ Averaged reduced matrix elements:
 <S|| Hso(L-) ||S'> = (-0.004829,-0.000439)
 <S|| Hso(L+) ||S'> = (-0.004829,0.000439)

 SOCC = 0.005599


 Actual matrix elements:
       |Sz=-0.50>           |Sz=0.50>
 <Sz=-0.50|(0.000000,-0.000044)(-0.003942,0.000359)
 <Sz=0.50|(0.003942,0.000359)(0.000000,0.000044)
_______________________________

**************************************************

**************************************************
 State A: Root 0
 State B: Root 23


 Analysing Sz ans S^2 of the pair of states...
 Ket state:  Computed S^2 = 0.926359 will be treated as 0.750000 Sz = 0.500000
 Bra state:  Computed S^2 = 0.900372 will be treated as 0.750000 Sz = 0.500000
 Clebsh-Gordan coefficient: <0.500,0.500;1.000,0.000|0.500,0.500> = 0.577

_______________________________
 One-electron SO (cm-1)
 Reduced matrix elements:
 <S|| Hso(L-) ||S'> = (0.001235,-0.000520)
 <S|| Hso(L0) ||S'> = (0.000000,-0.000039)
 <S|| Hso(L+) ||S'> = (0.001235,0.000520)

 SOCC = 0.001548


 Actual matrix elements:
       |Sz=-0.50>           |Sz=0.50>
 <Sz=-0.50|(0.000000,0.000023)(0.001008,0.000425)
 <Sz=0.50|(-0.001008,0.000425)(0.000000,-0.000023)
_______________________________
 Mean-field SO (cm-1)
 Reduced matrix elements:
 <S|| Hso(L-) ||S'> = (0.000637,-0.000236)
 <S|| Hso(L0) ||S'> = (0.000000,0.000245)
 <S|| Hso(L+) ||S'> = (0.000637,0.000235)

 Singlet part of <S|| Hso(L0) ||S'> = (0.000000,0.000052) (excluded from all matrix elements)
 L-/L+ Averaged reduced matrix elements:
 <S|| Hso(L-) ||S'> = (0.000637,-0.000235)
 <S|| Hso(L+) ||S'> = (0.000637,0.000235)

 SOCC = 0.000809


 Actual matrix elements:
       |Sz=-0.50>           |Sz=0.50>
 <Sz=-0.50|(0.000000,-0.000141)(0.000520,0.000192)
 <Sz=0.50|(-0.000520,0.000192)(0.000000,0.000141)
_______________________________

**************************************************

**************************************************
 State A: Root 0
 State B: Root 24


 Analysing Sz ans S^2 of the pair of states...
 Ket state:  Computed S^2 = 0.926359 will be treated as 0.750000 Sz = 0.500000
[...]
   36   37  -0.000580   0.000530   0.000496   0.0009285378
   36   38   0.000131  -0.000730  -0.001151    0.001369337
   36   39   0.000717   0.000122  -0.000401   0.0008308905
   36   40   0.107366  -0.022770   0.000150      0.1097536
   36   41   0.022578   0.107152  -0.002836      0.1095419
   36   42   0.027156   0.032777   0.006713     0.04309114
   36   43  -0.032247   0.027125  -0.003250      0.0422635
   36   44  -0.000882   0.000257  -0.002740    0.002889935
   36   45  -0.000430   0.000289   2.173856       2.173856
   36   46  -0.000062  -0.000444   0.076312     0.07631373
   36   47   0.000231  -0.000118   0.253012      0.2530117
   36   48  -0.038995   0.005008   0.005155     0.03965153
   36   49   0.005155   0.039810  -0.003013     0.04025532
   36   50  -0.001793  -0.002326   0.001052    0.003119389
   36   51  -0.000094   0.000090  -0.000052   0.0001397234
   37   38  -0.011086   0.072826   0.003127     0.07373168
   37   39   0.072560   0.011074  -0.000750     0.07340395
   37   40  -0.000473  -0.000429  -0.001859    0.001965648
   37   41  -0.000037   0.000440  -0.002749    0.002783868
   37   42   0.000023   0.000126   0.002350    0.002353277
   37   43  -0.000202  -0.000331   0.000818   0.0009049071
   37   44   0.000168  -0.000026  -0.000126   0.0002112231
   37   45  -0.001610  -0.002712  -0.000002    0.003153377
   37   46   0.024014  -0.006322  -0.000262       0.024834
   37   47   0.006056   0.023758  -0.000658     0.02452681
   37   48   0.000059   0.000075   0.010860     0.01086062
   37   49   0.000076   0.000009  -0.018805     0.01880522
   37   50  -0.000023   0.000016  -0.414164      0.4141642
   37   51   0.000009   0.000027   0.000451   0.0004519453
   38   39   0.000235  -0.000044   1.386038       1.386038
   38   40   0.003693   0.003107  -0.010223     0.01130481
   38   41   0.003257  -0.003370  -0.000744    0.004745225
   38   42  -0.028309   0.010147   0.004041     0.03034258
   38   43   0.010295   0.029331  -0.005204     0.03151826
   38   44   0.005913  -0.035025   0.002640     0.03561904
   38   45  -0.000157  -0.000318  -0.008934    0.008941476
   38   46   0.000044   0.000045   0.154512      0.1545124
   38   47  -0.000003  -0.000025   0.064676     0.06467627
   38   48  -0.009030  -0.006774   0.001915     0.01144951
   38   49   0.006546  -0.008795  -0.001898     0.01112699
   38   50  -0.002482  -0.000077  -0.002166    0.003294757
   38   51   0.003149  -0.020896  -0.000234     0.02113332
   39   40  -0.003421   0.003656   0.005846     0.00769725
   39   41   0.003618   0.003129  -0.008072    0.009382528
   39   42  -0.010925  -0.028558   0.002560      0.0306835
   39   43  -0.027529   0.010589   0.005478     0.03000003
   39   44  -0.035913  -0.004937  -0.001064     0.03626602
   39   45  -0.000147  -0.000278   0.011073     0.01107717
   39   46  -0.000014  -0.000026   0.066045     0.06604541
   39   47  -0.000081  -0.000069  -0.153076      0.1530756
   39   48   0.006928  -0.009078   0.000484     0.01142981
   39   49   0.008924   0.006768  -0.002930     0.01157675
   39   50  -0.000423   0.001510  -0.001159    0.001950404
   39   51  -0.020864  -0.003172   0.000403     0.02110809
   40   41  -0.000452   0.000529  -0.010882     0.01090432
   40   42   0.000460   0.000163   0.017925     0.01793171
   40   43   0.000210  -0.000076   0.010341     0.01034343
   40   44   0.000281   0.000278   0.000442   0.0005927745
   40   45  -0.008247  -0.038103   0.008648     0.03993289
   40   46   0.003284  -0.003157   0.000712    0.004610481
   40   47  -0.002658  -0.008356   0.001689    0.008929614
   40   48  -0.000263  -0.000045   0.022063     0.02206466
   40   49   0.000171   0.000060  -0.279761      0.2797611
   40   50   0.000077  -0.000049   0.007446    0.007446876
   40   51   0.000135   0.000134  -0.000080   0.0002062552
   41   42   0.000090   0.000374  -0.011627     0.01163301
   41   43  -0.000141   0.000474   0.023423     0.02342784
   41   44  -0.000041  -0.000215   0.001170    0.001190087
   41   45   0.039238  -0.008443   0.012425     0.04201555
   41   46  -0.000464  -0.004424   0.001116    0.004585862
   41   47   0.000838   0.000794   0.003729    0.003903573
   41   48  -0.000428   0.000158  -0.277205       0.277205
   41   49  -0.000104   0.000010  -0.023388      0.0233878
   41   50  -0.000068   0.000103  -0.000475   0.0004910089
   41   51  -0.000034  -0.000108  -0.000351   0.0003688787
   42   43   0.000029   0.000017  -1.005098       1.005098
   42   44  -0.000079   0.000128  -0.019264     0.01926457
   42   45  -0.025986   0.020408  -0.002904     0.03316908
   42   46  -0.001283   0.009992  -0.001394     0.01017021
   42   47   0.006317   0.003052  -0.002755    0.007537432
   42   48  -0.000010   0.000029   0.145848      0.1458481
   42   49   0.000062  -0.000100   0.095797     0.09579693
   42   50   0.000000   0.000014  -0.001496    0.001496219
   42   51  -0.000001  -0.000009  -0.000942   0.0009421856
   43   44   0.000132   0.000122  -0.009806    0.009808037
   43   45  -0.021189  -0.024042  -0.006168     0.03263519
   43   46   0.008277  -0.000323   0.001217    0.008372404
   43   47  -0.002093  -0.012501  -0.000681     0.01269319
   43   48   0.000037  -0.000047   0.093593     0.09359276
   43   49   0.000026  -0.000017  -0.150477      0.1504774
   43   50   0.000006  -0.000023   0.012971     0.01297057
   43   51   0.000085   0.000095   0.000036   0.0001324174
   44   45  -0.001156  -0.002182  -0.000461    0.002511886
   44   46   0.013101  -0.003506   0.002089      0.0137219
   44   47   0.003157   0.012447   0.000524     0.01285214
   44   48  -0.000046  -0.000076   0.002963    0.002964686
   44   49   0.000051  -0.000044  -0.008203    0.008203231
   44   50   0.000020   0.000008  -0.081110     0.08110951
   44   51  -0.000046   0.000063   0.000096   0.0001236668
   45   46  -0.000104   0.000166   0.070664     0.07066418
   45   47   0.000084  -0.000231  -0.022094     0.02209586
   45   48  -0.001215  -0.005608   0.001625    0.005964058
   45   49   0.001740  -0.000437   0.001061    0.002084654
   45   50   0.000662  -0.000705   0.001839     0.00207799
   45   51   0.001125   0.001792  -0.000042    0.002116622
   46   47  -0.000085  -0.000025   0.619494       0.619494
   46   48  -0.025714   0.014218  -0.002395     0.02948013
   46   49  -0.014617  -0.025353   0.001150     0.02928781
   46   50   0.001615   0.007881   0.000211    0.008047702
   46   51  -0.017460   0.004594   0.000537      0.0180625
   47   48   0.014563   0.025082  -0.000234     0.02900373
   47   49  -0.025917   0.014652  -0.001814     0.02982675
   47   50  -0.004778   0.001619  -0.000033     0.00504495
   47   51  -0.004478  -0.017397   0.000410     0.01796879
   48   49   0.000173  -0.000076  -1.162792       1.162792
   48   50   0.000469  -0.000245   0.046544     0.04654663
   48   51  -0.000062  -0.000008   0.001542    0.001543382
   49   50   0.000050  -0.000295   0.030145     0.03014626
   49   51  -0.000012  -0.000036  -0.001513      0.0015138
   50   51   0.000004   0.000000  -0.067613     0.06761257
 --------------------------------------------------------------------------------

                    END OF TRANSITION MOMENT CALCULATION

 
 --------------------------------------------------------------
 
                    Orbital Energies (a.u.)
 --------------------------------------------------------------
 
 Alpha MOs
 -- Occupied --
-10.5915 -10.5902 -10.5902 -10.5899 -10.5860 -10.5860 -10.5859 -10.5859
-10.5859 -10.5859 -10.5812 -10.5812 -10.5812  -1.0167  -0.9522  -0.9521
 -0.8673  -0.8673  -0.8558  -0.7807  -0.7210  -0.7090  -0.7089  -0.6041
 -0.6041  -0.5906  -0.5905  -0.5535  -0.5064  -0.5064  -0.5000  -0.4803
 -0.4798  -0.4589  -0.4589  -0.4477  -0.4071  -0.4071  -0.3957  -0.3955
 -0.3129  -0.3129  -0.2965  -0.2104
 -- Virtual --
  0.0216   0.0232   0.0233   0.0709   0.0868   0.0868   0.1077   0.1077
  0.1254   0.1417   0.1417   0.1461   0.1689   0.1689   0.2425   0.2425
  0.2507   0.2629   0.2858   0.3094   0.3094   0.3095   0.3134   0.3135
  0.3169   0.3259   0.3335   0.3336   0.3434   0.3434   0.3638   0.3639
  0.3850   0.3850   0.3962   0.3996   0.3997   0.4144   0.4340   0.4410
  0.4434   0.4611   0.4614   0.4668   0.4668   0.4746   0.4747   0.4794
  0.4795   0.4873   0.4873   0.5000   0.5156   0.5156   0.5267   0.5270
  0.5271   0.5659   0.5660   0.5684   0.5960   0.5961   0.5978   0.5979
  0.6014   0.6376   0.6397   0.6553   0.6575   0.6576   0.6738   0.6958
  0.6960   0.7211   0.7211   0.7447   0.7517   0.7604   0.7606   0.7739
  0.7974   0.7974   0.8033   0.8064   0.8064   0.8450   0.8553   0.8554
  0.8756   0.8756   0.8903   0.9052   0.9052   0.9127   0.9162   0.9163
  0.9540   0.9542   0.9904   0.9962   0.9963   1.0055   1.0058   1.0061
  1.0070   1.0254   1.0512   1.0514   1.0519   1.0600   1.0600   1.0654
  1.0737   1.0738   1.0835   1.1071   1.1595   1.1596   1.1611   1.1612
  1.1990   1.2330   1.2331   1.2519   1.2520   1.2603   1.2801   1.2868
  1.3018   1.3019   1.3459   1.3461   1.3562   1.3563   1.3564   1.3565
  1.3618   1.3921   1.3922   1.3926   1.3927   1.3987   1.4319   1.4475
  1.4499   1.4525   1.4542   1.4543   1.4694   1.4695   1.5199   1.5273
  1.5616   1.5622   1.5624   1.5953   1.5953   1.5990   1.5991   1.6408
  1.6585   1.6587   1.7210   1.7575   1.7578   1.7579   1.8735   1.8738
  1.8763   1.8763   1.8926   1.9073   1.9942   1.9945   2.0198   2.0427
  2.0709   2.0714   2.0723   2.1243   2.1244   2.1393   2.1400   2.1955
  2.2201   2.2201   2.2657   2.2689   2.2693   2.2705   2.3188   2.3255
  2.3256   2.3716   2.3981   2.3981   2.4160   2.4162   2.4573   2.4574
  2.4697   2.5099   2.5100   2.5473   2.5584   2.5627   2.5627   2.5723
  2.5810   2.5811   2.5990   2.5991   2.6127   2.6433   2.6513   2.6618
  2.6630   2.6630   2.6701   2.6703   2.7150   2.7284   2.7286   2.7404
  2.7682   2.7682   2.7858   2.8029   2.8030   2.8158   2.8243   2.8243
  2.8410   2.8491   2.8492   2.8635   2.8869   2.9125   2.9126   2.9334
  2.9367   2.9369   2.9900   2.9902   2.9980   2.9981   2.9993   3.0000
  3.0399   3.0402   3.0483   3.0495   3.0497   3.0625   3.0649   3.0650
  3.0932   3.0933   3.0937   3.0937   3.1091   3.1139   3.1181   3.1182
  3.1482   3.1542   3.1659   3.1660   3.1741   3.1743   3.2127   3.2175
  3.2175   3.2191   3.2192   3.2327   3.2327   3.2699   3.2699   3.2732
  3.2838   3.2985   3.2986   3.3368   3.3487   3.3537   3.3539   3.3680
  3.3680   3.3692   3.3930   3.3930   3.3950   3.4292   3.4293   3.4307
  3.4354   3.4356   3.4553   3.4643   3.4646   3.4699   3.4701   3.5605
  3.5673   3.5691   3.5692   3.5740   3.5802   3.5802   3.6083   3.6193
  3.6196   3.6198   3.6211   3.6212   3.6555   3.6556   3.6868   3.6869
  3.7192   3.7193   3.7428   3.7575   3.8095   3.8096   3.8293   3.8433
  3.8468   3.8714   3.8716   3.8846   3.8847   3.8859   3.8878   3.9204
  3.9206   3.9217   3.9220   3.9689   3.9690   3.9733   3.9859   4.0068
  4.0071   4.0118   4.0119   4.0376   4.0541   4.0628   4.0631   4.0742
  4.1069   4.1071   4.1263   4.1305   4.1308   4.1478   4.1543   4.1545
  4.1960   4.1962   4.2060   4.2060   4.2469   4.2535   4.2536   4.2605
  4.2884   4.2953   4.3083   4.3084   4.3268   4.3271   4.3518   4.3605
  4.3607   4.3649   4.3714   4.4126   4.4219   4.4221   4.4305   4.4345
  4.4346   4.4736   4.4738   4.4812   4.4900   4.4902   4.5075   4.5077
  4.5648   4.6361   4.6366   4.6424   4.6425   4.6439   4.6790   4.6791
  4.6852   4.7504   4.7505   4.7677   4.7926   4.7976   4.8413   4.8417
  4.9222   4.9589   4.9590   4.9607   4.9626   4.9630   4.9835   5.0180
  5.0417   5.0419   5.1052   5.1055   5.1084   5.1200   5.1204   5.1391
  5.1692   5.1694   5.1910   5.2492   5.3295   5.3297   5.3700   5.3904
  5.3907   5.4479   5.4481   5.4814   5.4816   5.5820   5.6307   5.6311
  5.7302   5.7304   5.7378   5.7481   5.8735   5.8737   5.9655   5.9754
  6.1161   6.1163   6.1607   6.1618   6.1619   6.3195   6.4822   6.4826
  6.6949   6.6952   7.1887   8.3959  11.3190  11.3213  12.7016  13.1045
 13.1076  13.3091  14.0250  14.0273  14.2086  15.6650  15.9887  15.9899
 
 Beta MOs
 -- Occupied --
-10.5937 -10.5937 -10.5937 -10.5886 -10.5851 -10.5850 -10.5850 -10.5799
-10.5799 -10.5799 -10.5798 -10.5798 -10.5798  -1.0140  -0.9470  -0.9469
 -0.8612  -0.8612  -0.8548  -0.7616  -0.7199  -0.7065  -0.7064  -0.5994
 -0.5994  -0.5897  -0.5897  -0.5516  -0.5048  -0.5047  -0.4972  -0.4800
 -0.4709  -0.4572  -0.4571  -0.4450  -0.3946  -0.3944  -0.3895  -0.3894
 -0.2949  -0.2879  -0.2879
 -- Virtual --
 -0.0569   0.0231   0.0416   0.0416   0.0718   0.0874   0.0874   0.1084
  0.1084   0.1254   0.1477   0.1539   0.1540   0.1703   0.1703   0.2427
  0.2427   0.2502   0.2602   0.2876   0.3100   0.3109   0.3109   0.3170
  0.3171   0.3255   0.3325   0.3436   0.3437   0.3449   0.3449   0.3678
  0.3678   0.3930   0.3949   0.3950   0.3989   0.3989   0.4163   0.4430
  0.4450   0.4604   0.4606   0.4643   0.4678   0.4679   0.4767   0.4768
  0.4804   0.4805   0.4893   0.4894   0.5049   0.5162   0.5163   0.5274
  0.5317   0.5318   0.5682   0.5694   0.5694   0.5974   0.5975   0.5991
  0.5991   0.6035   0.6386   0.6427   0.6568   0.6582   0.6583   0.6742
  0.6969   0.6970   0.7270   0.7270   0.7451   0.7529   0.7618   0.7619
  0.7831   0.7984   0.7984   0.8083   0.8083   0.8094   0.8459   0.8545
  0.8546   0.8792   0.8792   0.8929   0.9084   0.9085   0.9162   0.9167
  0.9169   0.9547   0.9548   0.9904   1.0008   1.0009   1.0063   1.0072
  1.0075   1.0078   1.0259   1.0520   1.0522   1.0555   1.0626   1.0626
  1.0664   1.0749   1.0751   1.0840   1.1103   1.1599   1.1600   1.1626
  1.1627   1.2045   1.2393   1.2393   1.2519   1.2520   1.2621   1.2783
  1.2877   1.3031   1.3032   1.3468   1.3470   1.3568   1.3570   1.3576
  1.3577   1.3673   1.3923   1.3924   1.3978   1.3979   1.4058   1.4310
  1.4505   1.4535   1.4543   1.4576   1.4576   1.4708   1.4709   1.5223
  1.5304   1.5593   1.5636   1.5638   1.6009   1.6010   1.6013   1.6014
  1.6442   1.6617   1.6618   1.7236   1.7591   1.7591   1.7606   1.8762
  1.8765   1.8782   1.8783   1.8964   1.9074   1.9946   1.9949   2.0217
  2.0428   2.0714   2.0719   2.0784   2.1304   2.1304   2.1395   2.1403
  2.1949   2.2303   2.2303   2.2544   2.2693   2.2699   2.2914   2.3288
  2.3288   2.3319   2.3724   2.4010   2.4011   2.4189   2.4191   2.4597
  2.4598   2.4708   2.5092   2.5093   2.5501   2.5583   2.5655   2.5655
  2.5770   2.5830   2.5830   2.6044   2.6044   2.6129   2.6459   2.6559
  2.6647   2.6647   2.6686   2.6721   2.6723   2.7201   2.7334   2.7335
  2.7432   2.7725   2.7726   2.7922   2.8051   2.8052   2.8193   2.8276
  2.8276   2.8408   2.8553   2.8554   2.8620   2.8891   2.9108   2.9109
  2.9343   2.9410   2.9412   2.9889   2.9891   3.0015   3.0042   3.0042
  3.0060   3.0427   3.0430   3.0538   3.0539   3.0542   3.0689   3.0690
  3.0722   3.0965   3.0966   3.0978   3.0978   3.1105   3.1114   3.1219
  3.1219   3.1578   3.1586   3.1713   3.1714   3.1748   3.1749   3.2084
  3.2218   3.2220   3.2226   3.2226   3.2308   3.2309   3.2729   3.2737
  3.2737   3.2867   3.3001   3.3003   3.3407   3.3508   3.3535   3.3537
  3.3730   3.3730   3.3737   3.3968   3.3969   3.3976   3.4302   3.4347
  3.4349   3.4365   3.4366   3.4562   3.4666   3.4669   3.4731   3.4733
  3.5606   3.5694   3.5695   3.5722   3.5806   3.5834   3.5834   3.6100
  3.6208   3.6209   3.6211   3.6211   3.6256   3.6564   3.6565   3.6885
  3.6886   3.7213   3.7214   3.7447   3.7568   3.8105   3.8106   3.8299
  3.8438   3.8482   3.8728   3.8730   3.8845   3.8846   3.8879   3.8902
  3.9221   3.9224   3.9225   3.9227   3.9690   3.9691   3.9733   3.9866
  4.0099   4.0102   4.0134   4.0136   4.0383   4.0556   4.0651   4.0654
  4.0752   4.1085   4.1086   4.1299   4.1314   4.1317   4.1479   4.1560
  4.1562   4.1961   4.1963   4.2067   4.2068   4.2471   4.2550   4.2551
  4.2617   4.2906   4.2960   4.3125   4.3126   4.3272   4.3274   4.3533
  4.3609   4.3611   4.3659   4.3720   4.4124   4.4226   4.4228   4.4301
  4.4350   4.4350   4.4768   4.4770   4.4855   4.4915   4.4917   4.5076
  4.5078   4.5661   4.6395   4.6399   4.6427   4.6428   4.6456   4.6799
  4.6800   4.6860   4.7504   4.7505   4.7713   4.7955   4.7982   4.8429
  4.8433   4.9236   4.9597   4.9597   4.9605   4.9637   4.9640   4.9840
  5.0248   5.0476   5.0478   5.1064   5.1067   5.1090   5.1203   5.1207
  5.1395   5.1698   5.1700   5.1917   5.2496   5.3299   5.3301   5.3716
  5.3911   5.3915   5.4509   5.4510   5.4817   5.4820   5.5819   5.6312
  5.6316   5.7311   5.7313   5.7385   5.7483   5.8745   5.8746   5.9660
  5.9760   6.1162   6.1165   6.1620   6.1627   6.1628   6.3200   6.4825
  6.4830   6.6956   6.6958   7.1892   8.3963  11.3200  11.3223  12.6987
 13.1050  13.1082  13.3149  14.0271  14.0294  14.2118  15.6661  15.9906
 15.9917
 --------------------------------------------------------------
 
          Ground-State Mulliken Net Atomic Charges

     Atom                 Charge (a.u.)    Spin (a.u.)
  --------------------------------------------------------
      1 C                    -0.160693      -0.215401
      2 C                    -0.160952       0.353998
      3 C                     0.092389      -0.179389
      4 C                     0.077148       0.122499
      5 C                     0.091424      -0.179353
      6 C                    -0.160380       0.353632
      7 H                     0.118413      -0.014925
      8 C                    -0.160088       0.354759
      9 C                    -0.160629      -0.215770
     10 C                    -0.160372       0.355103
     11 C                     0.089849      -0.179602
     12 C                    -0.159947       0.354449
     13 C                    -0.160474      -0.215608
     14 C                    -0.159982       0.354002
     15 H                     0.127283       0.008773
     16 H                     0.118480      -0.014940
     17 H                     0.118654      -0.014964
     18 H                     0.126965       0.008796
     19 H                     0.118758      -0.014966
     20 H                     0.118494      -0.014945
     21 H                     0.118653      -0.014940
     22 H                     0.127006       0.008792
  --------------------------------------------------------
  Sum of atomic charges =    -0.000000
  Sum of spin   charges =     1.000000

 -----------------------------------------------------------------
                    Cartesian Multipole Moments
 -----------------------------------------------------------------
    Charge (ESU x 10^10)
                -0.0000
    Dipole Moment (Debye)
         X       0.0001      Y      -0.0001      Z       0.0014
       Tot       0.0014
    Quadrupole Moments (Debye-Ang)
        XX     -65.6588     XY       0.0018     YY     -65.6432
        XZ       0.0056     YZ      -0.0011     ZZ     -81.4283
    Octopole Moments (Debye-Ang^2)
       XXX       0.4602    XXY      -0.5531    XYY      -0.4579
       YYY       0.5437    XXZ       0.0293    XYZ      -0.0187
       YYZ       0.0083    XZZ      -0.0005    YZZ       0.0014
       ZZZ       0.0007
    Hexadecapole Moments (Debye-Ang^3)
      XXXX   -1208.5070   XXXY      -0.0192   XXYY    -402.7968
      XYYY       0.0528   YYYY   -1208.1003   XXXZ       0.0327
      XXYZ       0.0263   XYYZ       0.0411   YYYZ      -0.0574
      XXZZ    -266.6957   XYZZ       0.0002   YYZZ    -266.6549
      XZZZ       0.0071   YZZZ      -0.0011   ZZZZ     -94.1474
 -----------------------------------------------------------------
 Total job time:  33149.04s(wall), 32978.29s(cpu) 
 Fri Apr 19 03:34:37 2024

        *************************************************************
        *                                                           *
        *  Thank you very much for using Q-Chem.  Have a nice day.  *
        *                                                           *
        *************************************************************


