                  Welcome to Q-Chem
     A Quantum Leap Into The Future Of Chemistry


 Q-Chem 6.0 (devel), Q-Chem, Inc., Pleasanton, CA (2022)

 E. Epifanovsky,  A. T. B. Gilbert,  Xintian Feng,  Joonho Lee,  Yuezhi Mao,  
 N. Mardirossian,  P. Pokhilko,  A. White,  M. Wormit,  M. P. Coons,  
 A. L. Dempwolff,  Zhengting Gan,  D. Hait,  P. R. Horn,  L. D. Jacobson,  
 I. Kaliman,  J. Kussmann,  A. W. Lange,  Ka Un Lao,  D. S. Levine,  Jie Liu,  
 S. C. McKenzie,  A. F. Morrison,  K. Nanda,  F. Plasser,  D. R. Rehn,  
 M. L. Vidal,  Zhi-Qiang You,  Ying Zhu,  B. Alam,  B. Albrecht,  
 A. Aldossary,  E. Alguire,  J. H. Andersen,  V. Athavale,  D. Barton,  
 K. Begam,  A. Behn,  N. Bellonzi,  Y. A. Bernard,  E. J. Berquist,  
 H. Burton,  A. Carreras,  K. Carter-Fenk,  Romit Chakraborty,  
 Chandrima Chakravarty,  Junhan Chen,  A. D. Chien,  K. D. Closser,  
 V. Cofer-Shabica,  L. Cunha,  S. Dasgupta,  Jia Deng,  M. de Wergifosse,  
 M. Diedenhofen,  Hainam Do,  S. Ehlert,  Po-Tung Fang,  S. Fatehi,  
 Qingguo Feng,  T. Friedhoff,  B. Ganoe,  J. Gayvert,  Qinghui Ge,  
 G. Gidofalvi,  M. Goldey,  J. Gomes,  C. Gonzalez-Espinoza,  S. Gulania,  
 A. Gunina,  J. A. Gyamfi,  M. W. D. Hanson-Heine,  P. H. P. Harbach,  
 A. W. Hauser,  M. F. Herbst,  M. Hernandez Vera,  M. Hodecker,  
 Z. C. Holden,  S. Houck,  Xunkun Huang,  Kerwin Hui,  B. C. Huynh,  
 K. Ikeda,  M. Ivanov,  Hyunjun Ji,  Zuxin Jin,  Hanjie Jiang,  B. Kaduk,  
 S. Kaehler,  R. Kang,  K. Khistyaev,  Jaehoon Kim,  Yongbin Kim,  
 P. Klunzinger,  Z. Koczor-Benda,  Joong Hoon Koh,  D. Kosenkov,  
 Saikiran Kotaru,  L. Koulias,  T. Kowalczyk,  C. M. Krauter,  K. Kue,  
 A. Kunitsa,  T. Kus,  A. Landau,  K. V. Lawler,  D. Lefrancois,  S. Lehtola,  
 Rain Li,  Shaozhi Li,  Yi-Pei Li,  Jiashu Liang,  M. Liebenthal,  
 Hung-Hsuan Lin,  You-Sheng Lin,  Fenglai Liu,  Kuan-Yu Liu,  
 M. Loipersberger,  A. Luenser,  C. Malbon,  A. Manjanath,  P. Manohar,  
 E. Mansoor,  S. F. Manzer,  Shan-Ping Mao,  A. V. Marenich,  T. Markovich,  
 S. Mason,  F. Matz,  S. A. Maurer,  P. F. McLaughlin,  M. F. S. J. Menger,  
 J.-M. Mewes,  S. A. Mewes,  P. Morgante,  Mohammad Mostafanejad,  
 J. W. Mullinax,  K. J. Oosterbaan,  G. Paran,  V. Parravicini,  
 Alexander C. Paul,  Suranjan K. Paul,  F. Pavosevic,  Zheng Pei,  S. Prager,  
 E. I. Proynov,  E. Ramos,  B. Rana,  A. E. Rask,  A. Rettig,  R. M. Richard,  
 F. Rob,  E. Rossomme,  T. Scheele,  M. Scheurer,  M. Schneider,  
 P. E. Schneider,  N. Sergueev,  S. M. Sharada,  Hengyuan Shen,  
 W. Skomorowski,  D. W. Small,  C. J. Stein,  Yingli Su,  Yu-Chuan Su,  
 E. J. Sundstrom,  Zhen Tao,  J. Thirman,  Hung-Yi Tsai,  T. Tsuchimochi,  
 N. M. Tubman,  C. Utku,  S. P. Veccham,  O. Vydrov,  J. Wenzel,  
 Jonathan Wong,  J. Witte,  A. Yamada,  Chou-Hsun Yang,  Kun Yao,  
 S. Yeganeh,  S. R. Yost,  A. Zech,  F. Zeller,  Igor Ying Zhang,  
 Xing Zhang,  Yu Zhang,  D. Zuev,  A. Aspuru-Guzik,  A. T. Bell,  
 N. A. Besley,  K. B. Bravaya,  B. R. Brooks,  D. Casanova,  Jeng-Da Chai,  
 Hsing-Ta Chen,  S. Coriani,  C. J. Cramer,  A. E. DePrince, III,  
 R. A. DiStasio Jr.,  A. Dreuw,  B. D. Dunietz,  T. R. Furlani,  
 W. A. Goddard III,  S. Grimme,  S. Hammes-Schiffer,  T. Head-Gordon,  
 W. J. Hehre,  Chao-Ping Hsu,  T.-C. Jagau,  Yousung Jung,  A. Klamt,  
 Jing Kong,  D. S. Lambrecht,  Xiangyuan Li,  WanZhen Liang,  N. J. Mayhall,  
 C. W. McCurdy,  J. B. Neaton,  T. Neudecker,  C. Ochsenfeld,  
 J. A. Parkhill,  R. Peverati,  V. A. Rassolov,  Haisheng Ren,  Yihan Shao,  
 L. V. Slipchenko,  R. P. Steele,  J. E. Subotnik,  A. J. W. Thom,  
 A. Tkatchenko,  D. G. Truhlar,  T. Van Voorhis,  Fan Wang,  
 T. A. Wesolowski,  K. B. Whaley,  H. L. Woodcock III,  P. M. Zimmerman,  
 S. Faraji,  P. M. W. Gill,  M. Head-Gordon,  J. M. Herbert,  A. I. Krylov

 Contributors to earlier versions of Q-Chem not listed above: 
 R. D. Adamson,  B. Austin,  R. Baer,  J. Baker,  G. J. O. Beran,  
 K. Brandhorst,  S. T. Brown,  E. F. C. Byrd,  Arup K. Chakraborty,  
 G. K. L. Chan,  Chun-Min Chang,  Yunqing Chen,  C.-L. Cheng,  
 Siu Hung Chien,  D. M. Chipman,  D. L. Crittenden,  H. Dachsel,  
 R. J. Doerksen,  A. D. Dutoi,  R. G. Edgar,  J. Fosso-Tande,  
 L. Fusti-Molnar,  D. Ghosh,  A. Ghysels,  A. Golubeva-Zadorozhnaya,  
 J. Gonthier,  M. S. Gordon,  S. R. Gwaltney,  G. Hawkins,  J. E. Herr,  
 A. Heyden,  S. Hirata,  E. G. Hohenstein,  G. Kedziora,  F. J. Keil,  
 C. Kelley,  Jihan Kim,  R. A. King,  R. Z. Khaliullin,  P. P. Korambath,  
 W. Kurlancheek,  A. Laurent,  A. M. Lee,  M. S. Lee,  S. V. Levchenko,  
 Ching Yeh Lin,  D. Liotard,  E. Livshits,  R. C. Lochan,  I. Lotan,  
 L. A. Martinez-Martinez,  P. E. Maslen,  N. Nair,  D. P. O'Neill,  
 D. Neuhauser,  E. Neuscamman,  C. M. Oana,  R. Olivares-Amaya,  R. Olson,  
 T. M. Perrine,  B. Peters,  P. A. Pieniazek,  A. Prociuk,  Y. M. Rhee,  
 J. Ritchie,  M. A. Rohrdanz,  E. Rosta,  N. J. Russ,  H. F. Schaefer III,  
 M. W. Schmidt,  N. E. Schultz,  S. Sharma,  N. Shenvi,  C. D. Sherrill,  
 A. C. Simmonett,  A. Sodt,  T. Stein,  D. Stuck,  K. S. Thanthiriwatte,  
 V. Vanovschi,  L. Vogt,  Tao Wang,  A. Warshel,  M. A. Watson,  
 C. F. Williams,  Q. Wu,  X. Xu,  Jun Yang,  W. Zhang,  Yan Zhao

   Please cite Q-Chem as follows:
  "Software for the frontiers of quantum chemistry:
   An overview of developments in the Q-Chem 5 package"
   J. Chem. Phys. 155, 084801 (2021)
   https://doi.org/10.1063/5.0055522 (open access)

 Q-Chem 6.0.1 for Intel X86 EM64T Linux

 Parts of Q-Chem use Armadillo 9.900.5 (Nocturnal Misbehaviour).
 http://arma.sourceforge.net/

 Q-Chem begins on Thu Dec 22 12:37:28 2022  

 Host: atlas-163
0

     Scratch files written to ./qchem179608//
 Processing $rem in /scratch/abel/SOFTWARE/qchem/config/preferences:
 Processing $rem in /dipc/acebg/.qchemrc:

 Checking the input file for inconsistencies... 	...done.

--------------------------------------------------------------
User input:
--------------------------------------------------------------
$comment
 RAS-SF CALCULATION
$end

$molecule
1 2    !charge and multiplicity
O1
H1 O1 oh
H2 O1 oh H1 hoh

oh = 0.997
hoh = 109.17
$end

$rem
!**CALCULATION TYPE***     
JOBTYPE            sp    
EXCHANGE           HF
CORRELATION        RASCI    !RASCI=Casanova; RASCI2=Zimmerman
BASIS              6-31G*

!***SCF REFERENCE***
SKIP_SCFMAN        FALSE
UNRESTRICTED       FALSE
!SCF_GUESS          core
!SCF_GUESS_MIX      FALSE
!SCF_GUESS_ALWAYS   FALSE
MAX_SCF_CYCLES     500
SCF_CONVERGENCE    8
!SCF_ALGORITHM      DIIS !DIIS,DM,DIIS_DM,GDM,DIIS_GDM,GD

SYMMETRY           TRUE !use of symmetry for calculating integrals
SYM_IGNORE         FALSE !turn off using symmetry
SYM_TOL            5 !tolerance for determining point group

!THRESH             14
SCF_FINAL_PRINT     1 !0,1,2,3

!****RAS-SF****
RAS_ROOTS          10       !number of RAS-CI roots to be computed
SET_ITER           100     !number of iterations in RASCI
RAS_ELEC           5       !number of electrons in RAS2
!RAS_ELEC_ALPHA            !spin-α electrons in RAS2 
!RAS_ELEC_BETA             !spin-β electrons in RAS2

RAS_ACT            5       !number of orbitals in RAS2 
RAS_ACT_ORB       [3,4,5,6,7]  !user-selected RAS2 orbitals
RAS_OCC            2       !number of orbitals in RAS1
N_FROZEN_CORE      0     !Number of frozen core orbitals
N_FROZEN_VIRTUAL   0      !Number of frozen virtual orbitals
RAS_NATORB         TRUE    !computation of the natural orbital occupancies
!RAS_NATORB_STATE  0      !Saves NO of i RAS computed state in .fchk ﬁle

RAS_DO_HOLE        TRUE   !presence of hole excitations in RAS-CI wave function
RAS_DO_PART        TRUE   !presence of particle excitations
RAS_AMPL_PRINT     10     !threshold (×10 2 ) for the CI amplitudes

RAS_GUESS_CS       0      !number of closed shell guess conﬁgurations
RAS_SPIN_MULT      0      !spin multiplicity: 0=any, 2n+1=defined 
RAS_SRDFT          FALSE  !short-range density functional RAS-CI
RAS_NFRAG          0     !fragments of excitation analysis in RASCI

RAS_PRINT          2      !level of information
RAS_NATORB         TRUE   !computation of the natural orbital occupancies
!RAS_NATORB_STATE  0      !Saves NO of i RAS computed state in .fchk ﬁle
RAS_FOD            TRUE

!****RAS-SOC****
CALC_SOC           TRUE   !calculate SOC for EOM-CC, RAS-CI, ADC, TDDFT/TDA and TDDFT
!RAS_SOC_2E        TRUE   !two-electron mean-ﬁeld contribution, default=true
RAS_SOC_SYM_DENS   TRUE   !averaging of α and β densities

!****MEMORY****
MEM_TOTAL          40000 !Default 2000 MB
MEM_STATIC         8000  !Default 64 MB

!**Molecular Properties and Analysis **                                                                                          
GUI                2
STATE_ANALYSIS     TRUE
MOLDEN_FORMAT      TRUE
PRINT_ORBITALS     20
$end                                           

--------------------------------------------------------------
 ----------------------------------------------------------------
             Standard Nuclear Orientation (Angstroms)
    I     Atom           X                Y                Z
 ----------------------------------------------------------------
    1      O       0.0000000000     0.0000000000     0.1155512138
    2      H      -0.8125311840    -0.0000000000    -0.4622048550
    3      H       0.8125311840    -0.0000000000    -0.4622048550
 ----------------------------------------------------------------
 Molecular Point Group                 C2v   NOp =  4
 Largest Abelian Subgroup              C2v   NOp =  4
 Nuclear Repulsion Energy =           8.81794733 hartrees
 There are        5 alpha and        4 beta electrons
 Requested basis set is 6-31G(d)
 There are 8 shells and 19 basis functions

 Total QAlloc Memory Limit  40000 MB
 Mega-Array Size      7821 MB
 MEM_STATIC part      8000 MB


                       Distance Matrix (Angstroms)
             O (  1)   H (  2)
   H (  2)  0.997000
   H (  3)  0.997000  1.625062
 
 A cutoff of  1.0D-12 yielded     36 shell pairs
 There are       217 function pairs
 Smallest overlap matrix eigenvalue = 2.38E-02

 Scale SEOQF with 1.000000e+00/1.000000e+00/1.000000e+00

 Standard Electronic Orientation quadrupole field applied
 Nucleus-field energy     =    -0.0000000001 hartrees
 Guess from superposition of atomic densities
 Warning:  Energy on first SCF cycle will be non-variational
 SAD guess density has 10.000000 electrons

 -----------------------------------------------------------------------
  General SCF calculation program by
  Eric Jon Sundstrom, Paul Horn, Yuezhi Mao, Dmitri Zuev, Alec White,
  David Stuck, Shaama M.S., Shane Yost, Joonho Lee, David Small,
  Daniel Levine, Susi Lehtola, Hugh Burton, Evgeny Epifanovsky,
  Bang C. Huynh
 -----------------------------------------------------------------------
 Hartree-Fock
 Orthonormalizing orbitals
 A restricted open-shell SCF calculation will be
 performed using GDM
 SCF converges when RMS gradient is below 1.0e-08
 ---------------------------------------
  Cycle       Energy        RMS Gradient
 ---------------------------------------
    1     -74.2691948871      6.73e-01   Descent step
    2     -74.5562073378      4.93e-01   Descent step
    3     -74.7293530982      2.93e-01   Descent step
    4     -74.9153077918      9.97e-01   Descent step
    5     -75.3064479986      5.08e-01   Descent step
    6     -75.4477759176      2.86e-01   Dog-leg BFGS step
    7     -75.5191217614      1.14e-01   Normal BFGS step
    8     -75.5352073758      1.78e-02   Normal BFGS step
    9     -75.5354838353      8.44e-03   Normal BFGS step
   10     -75.5354565269      8.71e-03  Line search: overstep
   11     -75.5355368363      2.61e-03   Normal BFGS step
   12     -75.5355453288      5.59e-04   Normal BFGS step
   13     -75.5355457390      2.34e-04   Normal BFGS step
   14     -75.5355457950      3.31e-05   Normal BFGS step
   15     -75.5355457968      5.72e-06   Normal BFGS step
   16     -75.5355457969      7.45e-07   Normal BFGS step
   17     -75.5355457969      1.93e-07   Normal BFGS step
   18     -75.5355457969      4.14e-08   Normal BFGS step
   19     -75.5355457969      9.08e-09  Convergence criterion met
The disked orbital energies are calculated using alpha and beta Focks
 ---------------------------------------
 Alpha HF Exchange    Energy =  -4.62436922405703
 Beta HF Exchange     Energy =  -3.96149277650596
 Nuclear Attraction   Energy =   0.00000000000000
 One-Electron (alpha) Energy = -62.37686281589144
 One-Electron (beta)  Energy = -55.08695170008265
 Total Coulomb        Energy =  41.69618339366075
 Final Alpha MO Eigenvalues
            1           2           3           4           5           6
    1 -21.1156225  -1.8456938  -1.1906402  -1.0075280  -1.1744382  -0.1333339
            7           8           9          10          11          12
    1  -0.0524749   0.5991337   0.6584251   0.6537525   0.7198777   0.9260458
           13          14          15          16          17          18
    1   0.9986477   1.5043975   1.5622418   1.5581771   2.1089268   2.3693906
           19
    1   3.4651336
 Final Beta MO Eigenvalues
            1           2           3           4           5           6
    1 -21.0778247  -1.7214569  -1.1503185  -0.9596490  -0.3491560  -0.1116560
            7           8           9          10          11          12
    1  -0.0300124   0.6493577   0.6963666   0.7701582   0.7388225   0.9439137
           13          14          15          16          17          18
    1   1.0239234   1.6167882   1.5790902   1.6483277   2.1289632   2.4336472
           19
    1   3.5093086
 SCF time:   CPU 0.85s  wall 3.00s 
<S^2> =          0.750000000
 SCF   energy in the final basis set =      -75.5355457969
 Total energy in the final basis set =      -75.5355457969
Setting RAS_srDFT_COR/EXC
  
     ##========================================##
     ||                                        ||
     ||              R A S M A N 2             ||
     ||________________________________________||
     ||                                        ||
     ||  Author:                               ||
     ||                                        ||
     ||        David Casanova (2010)           ||
     ||                                        ||
     ##========================================##
  
  ***************************************************
  *  RAS-CI Dimensions:                             *
  *                                                 *
  *  Active Elec.:   5 ( 3, 2)   Active Orb.:   5   *
  *  Doubly Occ. :   2           Doubly Vir.:  12   *
  *  Frozen Occ. :   0           Frozen Vir.:   0   *
  *                                                 *
  *  Total CI configurations:      2200             * 
  *    Active configurations:       100             * 
  *      Hole configurations:       300             * 
  *  Particle configurations:      1800             * 
  *                                                 *
  *   Requested states:       10                    *
  *  Spin multiplicity: Any multiplicity            *
  *                                                 *
  ***************************************************
-----------------------------------------
    Memory requirements of RASCI

 Each CI-vector requires      0.02 MiB 
 Max. subspace vectors           1000      

 Reduced Lists                0.00 MiB 
 Excitation Lists             0.00 MiB 
 Excitation Lists Sign        0.00 MiB 
 CI-space (Max)              24.59 MiB 
 Integrals                    0.14 MiB 
 Memory required (Max)       24.59 MiB 
 Memory available          7629.39 MiB 

    Disk requirements of RASCI

 Fock matrix                  0.01 MiB 
 2-electron integrals         0.16 MiB 
 CI-space                    33.57 MiB 
 Disk required               33.73 MiB 
-----------------------------------------
  
RAS1 HF-like energy:            -63.2765562438
 Computing integrals
 Computing J and K matrices
 Computing addressing
 Making amplitude guesses
 
Direct CI diagonalization
 ---------------------------------------------------
 Iter    Rts Conv    Rts Left    Ttl Dev     Max Dev
 ---------------------------------------------------
   1         0          10      0.082826    0.010078
   2         0          10      0.029811    0.004573
   3         0          10      0.025817    0.004183
   4         0          10      0.017535    0.002706
   5         0          10      0.010555    0.002811
   6         0          10      0.022450    0.012372
   7         0          10      0.018220    0.006744
   8         0          10      0.006934    0.002331
   9         0          10      0.006698    0.002495
  10         0          10      0.009075    0.003831
  11         0          10      0.010314    0.005280
  12         1           9      0.007694    0.003824
  13         2           8      0.006285    0.003013
  14         2           8      0.002911    0.001456
  15         3           7      0.002932    0.001891
  16         3           7      0.002838    0.001669
  17         4           6      0.002194    0.001236
  18         6           4      0.001346    0.000813
  19         6           4      0.001423    0.000919
  20         7           3      0.000904    0.000591
  21         8           2      0.000436    0.000322
  22         8           2      0.000720    0.000645
  23         7           3      0.006847    0.004136
  24         7           3      0.002703    0.002387
  25         7           3      0.002281    0.002061
  26         7           3      0.001077    0.000965
  27         7           3      0.000322    0.000288
  28         8           2      0.000248    0.000223
  29         8           2      0.000129    0.000114
  30         8           2      0.000056    0.000048
  31         8           2      0.000033    0.000027
  32         9           1      0.000018    0.000013
  33         9           1      0.000012    0.000008
  34         9           1      0.000007    0.000003
  35         9           1      0.000005    0.000001
  36         9           1      0.000005    0.000001
  37        10           0      0.000004    0.000001    Roots Converged
 ---------------------------------------------------
   
**************************************************
 RAS-CI total energy for state   1:    -75.647409493510
  Excitation energy (eV) =  0.000000000000
  State symmetry: B2    (C2v      )
  <S^2>      :  0.7500
  Dipole Moment:    0.0000 X     0.0000 Y     0.8555 Z
 NATURAL OCCUPATION NUMBERS (higher than 1.0E-05)
            1           2           3           4           5           6
    1   1.9999996   1.9982288   1.9885563   1.9814953   0.9987264   0.0162961
            7           8           9          10          11          12
    1   0.0090605   0.0020953   0.0017449   0.0015572   0.0008032   0.0003517
           13          14          15          16          17          18
    1   0.0003396   0.0003085   0.0002482   0.0001169   0.0000601   0.0000111
Natural Orbitals stored in FCHK

  Amplitudes : 
  
 | HOLE  | ALPHA | BETA  | PART  |    AMPLITUDE 
--------------------------------------------------
 |       | 11100 | 10100 |       |     9.8734233106519E-01
--------------------------------------------------
*** Contributions RASCI wfn    Active:  98.25
                                 Hole:   0.22
                                 Part:   1.53

      Mulliken population analysis 
 ---------------------------------------------------
   Atom    Charge (a.u.)   Spin (a.u.)  
 ---------------------------------------------------
   1  O   -0.140596        1.067925 
   2  H    0.570298       -0.033962 
   3  H    0.570298       -0.033962 
 ---------------------------------------------------
   Sum:    1.000000        1.000000 
 ---------------------------------------------------
 
  
 NATURAL OCCUPATION NUMBERS (higher than 1.0E-05)
            1           2           3           4           5           6
    1   1.9999996   1.9982288   1.9885563   1.9814953   0.9987264   0.0162961
            7           8           9          10          11          12
    1   0.0090605   0.0020953   0.0017449   0.0015572   0.0008032   0.0003517
           13          14          15          16          17          18
    1   0.0003396   0.0003085   0.0002482   0.0001169   0.0000601   0.0000111
  
*** Unpaired Electrons
 Yamaguchi Nd:         1.13
 Head-Gordon Nu:       1.06
 Head-Gordon Nu_nl:    1.00
  
**************************************************
 RAS-CI total energy for state   2:    -75.568467164370
  Excitation energy (eV) =  2.148130069339
  State symmetry: A1    (C2v      )
  <S^2>      :  0.7500
  Dipole Moment:    0.0000 X    -0.0000 Y     0.7274 Z
  Trans. Moment:    0.0000 X     0.1203 Y    -0.0000 Z
  Strength   :  0.000762
  Natural transition orbitals ( 1 -> 2 ):
   e-/hole pair  1 alpha:  ampl =  0.023770 (  0.1%)   [5 : 6]
   e-/hole pair  2 alpha:  ampl =  0.020758 (  0.0%)   [4 : 7]
   e-/hole pair  1 beta :  ampl =  0.992028 ( 98.4%)   [5 : 6]
   e-/hole pair  2 beta :  ampl =  0.005723 (  0.0%)   [4 : 7]
   Sum of square amplitudes: 0.99

 NATURAL OCCUPATION NUMBERS (higher than 1.0E-05)
            1           2           3           4           5           6
    1   1.9999997   1.9982189   1.9938078   1.9816120   0.9986315   0.0143334
            7           8           9          10          11          12
    1   0.0053544   0.0034980   0.0013987   0.0011344   0.0006637   0.0004293
           13          14          15          16          17          18
    1   0.0003483   0.0002776   0.0001194   0.0000869   0.0000541   0.0000315
Natural Orbitals stored in FCHK

  Amplitudes : 
  
 | HOLE  | ALPHA | BETA  | PART  |    AMPLITUDE 
--------------------------------------------------
 |       | 11100 | 11000 |       |     9.9183138954592E-01
--------------------------------------------------
*** Contributions RASCI wfn    Active:  98.83
                                 Hole:   0.19
                                 Part:   0.98

      Mulliken population analysis 
 ---------------------------------------------------
   Atom    Charge (a.u.)   Spin (a.u.)  
 ---------------------------------------------------
   1  O   -0.199348        0.955372 
   2  H    0.599674        0.022314 
   3  H    0.599674        0.022314 
 ---------------------------------------------------
   Sum:    1.000000        1.000000 
 ---------------------------------------------------
 
  
 NATURAL OCCUPATION NUMBERS (higher than 1.0E-05)
            1           2           3           4           5           6
    1   1.9999997   1.9982189   1.9938078   1.9816120   0.9986315   0.0143334
            7           8           9          10          11          12
    1   0.0053544   0.0034980   0.0013987   0.0011344   0.0006637   0.0004293
           13          14          15          16          17          18
    1   0.0003483   0.0002776   0.0001194   0.0000869   0.0000541   0.0000315
  
*** Unpaired Electrons
 Yamaguchi Nd:         1.11
 Head-Gordon Nu:       1.05
 Head-Gordon Nu_nl:    1.00
  
**************************************************
 RAS-CI total energy for state   3:    -75.395431906502
  Excitation energy (eV) =  6.856658998384
  State symmetry: B1    (C2v      )
  <S^2>      :  0.7500
  Dipole Moment:    0.0000 X    -0.0000 Y     1.0560 Z
  Trans. Moment:    0.0000 X    -0.0000 Y     0.0000 Z
  Strength   :  0.000000
  Natural transition orbitals ( 1 -> 3 ):
   e-/hole pair  1 alpha:  ampl =  0.046519 (  0.2%)   [5 : 6]
   e-/hole pair  2 alpha:  ampl =  0.028406 (  0.1%)   [4 : 7]
   e-/hole pair  1 beta :  ampl =  0.987163 ( 97.4%)   [5 : 6]
   e-/hole pair  2 beta :  ampl =  0.004862 (  0.0%)   [4 : 7]
   Sum of square amplitudes: 0.98

 NATURAL OCCUPATION NUMBERS (higher than 1.0E-05)
            1           2           3           4           5           6
    1   1.9999998   1.9976356   1.9910334   1.9873894   0.9993584   0.0104163
            7           8           9          10          11          12
    1   0.0077847   0.0024123   0.0013157   0.0007728   0.0007079   0.0004665
           13          14          15          16          17          18
    1   0.0002468   0.0001884   0.0000916   0.0000839   0.0000747   0.0000215
Natural Orbitals stored in FCHK

  Amplitudes : 
  
 | HOLE  | ALPHA | BETA  | PART  |    AMPLITUDE 
--------------------------------------------------
 |       | 11100 | 01100 |       |     9.8430577108931E-01
--------------------------------------------------
*** Contributions RASCI wfn    Active:  98.02
                                 Hole:   0.24
                                 Part:   1.74

      Mulliken population analysis 
 ---------------------------------------------------
   Atom    Charge (a.u.)   Spin (a.u.)  
 ---------------------------------------------------
   1  O   -0.338348        0.694093 
   2  H    0.669174        0.152954 
   3  H    0.669174        0.152954 
 ---------------------------------------------------
   Sum:    1.000000        1.000000 
 ---------------------------------------------------
 
  
 NATURAL OCCUPATION NUMBERS (higher than 1.0E-05)
            1           2           3           4           5           6
    1   1.9999998   1.9976356   1.9910334   1.9873894   0.9993584   0.0104163
            7           8           9          10          11          12
    1   0.0077847   0.0024123   0.0013157   0.0007728   0.0007079   0.0004665
           13          14          15          16          17          18
    1   0.0002468   0.0001884   0.0000916   0.0000839   0.0000747   0.0000215
  
*** Unpaired Electrons
 Yamaguchi Nd:         1.10
 Head-Gordon Nu:       1.05
 Head-Gordon Nu_nl:    1.00
  
**************************************************
 RAS-CI total energy for state   4:    -75.205345409577
  Excitation energy (eV) = 12.029175749153
  State symmetry: B2    (C2v      )
  <S^2>      :  3.7500
  Dipole Moment:   -0.0000 X     0.0000 Y    -0.2629 Z
  Trans. Moment:    0.0000 X    -0.0000 Y    -0.0000 Z
  Strength   :  0.000000
  Natural transition orbitals ( 1 -> 4 ):
   e-/hole pair  1 alpha:  ampl =  0.559756 ( 31.3%)   [5 : 6]
   e-/hole pair  2 alpha:  ampl =  0.066621 (  0.4%)   [4 : 7]
   e-/hole pair  1 beta :  ampl =  0.559756 ( 31.3%)   [5 : 6]
   e-/hole pair  2 beta :  ampl =  0.066621 (  0.4%)   [4 : 7]
   Sum of square amplitudes: 0.64

 NATURAL OCCUPATION NUMBERS (higher than 1.0E-05)
            1           2           3           4           5           6
    1   1.9999998   1.9990332   1.9718297   1.0133174   0.9985885   0.9830287
            7           8           9          10          11          12
    1   0.0271476   0.0024061   0.0012256   0.0012166   0.0008525   0.0004017
           13          14          15          16          17          18
    1   0.0003667   0.0002899   0.0001245   0.0001243   0.0000195   0.0000192
Natural Orbitals stored in FCHK

  Amplitudes : 
  
 | HOLE  | ALPHA | BETA  | PART  |    AMPLITUDE 
--------------------------------------------------
 |       | 11100 | 10010 |       |     5.5294717975689E-01
 |       | 11010 | 10100 |       |    -5.5294717975679E-01
 |       | 10110 | 11000 |       |     5.5294717975688E-01
--------------------------------------------------
*** Contributions RASCI wfn    Active:  94.07
                                 Hole:   0.33
                                 Part:   5.60

      Mulliken population analysis 
 ---------------------------------------------------
   Atom    Charge (a.u.)   Spin (a.u.)  
 ---------------------------------------------------
   1  O    0.622108        0.626767 
   2  H    0.188946        0.186617 
   3  H    0.188946        0.186617 
 ---------------------------------------------------
   Sum:    1.000000        1.000000 
 ---------------------------------------------------
 
  
 NATURAL OCCUPATION NUMBERS (higher than 1.0E-05)
            1           2           3           4           5           6
    1   1.9999998   1.9990332   1.9718297   1.0133174   0.9985885   0.9830287
            7           8           9          10          11          12
    1   0.0271476   0.0024061   0.0012256   0.0012166   0.0008525   0.0004017
           13          14          15          16          17          18
    1   0.0003667   0.0002899   0.0001245   0.0001243   0.0000195   0.0000192
  
*** Unpaired Electrons
 Yamaguchi Nd:         3.12
 Head-Gordon Nu:       3.03
 Head-Gordon Nu_nl:    3.01
  
**************************************************
 RAS-CI total energy for state   5:    -75.151792953750
  Excitation energy (eV) = 13.486412214072
  State symmetry: B2    (C2v      )
  <S^2>      :  0.7500
  Dipole Moment:   -0.0000 X     0.0000 Y    -0.2708 Z
  Trans. Moment:   -0.0000 X    -0.0000 Y    -0.4212 Z
  Strength   :  0.058619
  Natural transition orbitals ( 1 -> 5 ):
   e-/hole pair  1 alpha:  ampl =  0.317733 ( 10.1%)   [5 : 6]
   e-/hole pair  2 alpha:  ampl =  0.076120 (  0.6%)   [4 : 7]
   e-/hole pair  1 beta :  ampl =  0.783904 ( 61.5%)   [5 : 6]
   e-/hole pair  2 beta :  ampl =  0.038340 (  0.1%)   [4 : 7]
   Sum of square amplitudes: 0.72

 NATURAL OCCUPATION NUMBERS (higher than 1.0E-05)
            1           2           3           4           5           6
    1   1.9999999   1.9977763   1.9698332   1.0965213   0.9979416   0.8987777
            7           8           9          10          11          12
    1   0.0304619   0.0022688   0.0020553   0.0015485   0.0012250   0.0005107
           13          14          15          16          17          18
    1   0.0003157   0.0002747   0.0001635   0.0001352   0.0000930   0.0000896
Natural Orbitals stored in FCHK

  Amplitudes : 
  
 | HOLE  | ALPHA | BETA  | PART  |    AMPLITUDE 
--------------------------------------------------
 |       | 11100 | 10010 |       |     7.8054945029612E-01
 |       | 11010 | 10100 |       |     3.1774652665763E-01
 |       | 10110 | 11000 |       |    -4.6280292363855E-01
--------------------------------------------------
*** Contributions RASCI wfn    Active:  95.39
                                 Hole:   0.62
                                 Part:   3.99

      Mulliken population analysis 
 ---------------------------------------------------
   Atom    Charge (a.u.)   Spin (a.u.)  
 ---------------------------------------------------
   1  O    0.608503        1.344167 
   2  H    0.195748       -0.172083 
   3  H    0.195748       -0.172083 
 ---------------------------------------------------
   Sum:    1.000000        1.000000 
 ---------------------------------------------------
 
  
 NATURAL OCCUPATION NUMBERS (higher than 1.0E-05)
            1           2           3           4           5           6
    1   1.9999999   1.9977763   1.9698332   1.0965213   0.9979416   0.8987777
            7           8           9          10          11          12
    1   0.0304619   0.0022688   0.0020553   0.0015485   0.0012250   0.0005107
           13          14          15          16          17          18
    1   0.0003157   0.0002747   0.0001635   0.0001352   0.0000930   0.0000896
  
*** Unpaired Electrons
 Yamaguchi Nd:         3.12
 Head-Gordon Nu:       2.87
 Head-Gordon Nu_nl:    2.97
  
**************************************************
 RAS-CI total energy for state   6:    -75.139431958832
  Excitation energy (eV) = 13.822771999250
  State symmetry: A1    (C2v      )
  <S^2>      :  0.7500
  Dipole Moment:   -0.0000 X     0.0000 Y    -0.1219 Z
  Trans. Moment:   -0.0000 X     0.2044 Y    -0.0000 Z
  Strength   :  0.014150
  Natural transition orbitals ( 1 -> 6 ):
   e-/hole pair  1 alpha:  ampl =  0.931833 ( 86.8%)   [5 : 6]
   e-/hole pair  2 alpha:  ampl =  0.012104 (  0.0%)   [4 : 7]
   e-/hole pair  1 beta :  ampl =  0.122307 (  1.5%)   [5 : 6]
   e-/hole pair  2 beta :  ampl =  0.024171 (  0.1%)   [4 : 7]
   Sum of square amplitudes: 0.88

 NATURAL OCCUPATION NUMBERS (higher than 1.0E-05)
            1           2           3           4           5           6
    1   1.9999999   1.9840927   1.9757189   1.8730166   0.9789446   0.1605455
            7           8           9          10          11          12
    1   0.0193960   0.0026311   0.0014471   0.0013345   0.0007788   0.0006310
           13          14          15          16          17          18
    1   0.0004603   0.0004278   0.0003167   0.0001401   0.0000587   0.0000535
Natural Orbitals stored in FCHK

  Amplitudes : 
  
 | HOLE  | ALPHA | BETA  | PART  |    AMPLITUDE 
--------------------------------------------------
 |       | 11010 | 11000 |       |    -2.3374039984279E-01
 |       | 10110 | 10100 |       |     9.2656201130524E-01
 |   2   | 11100 | 11100 |       |    -1.2302610888422E-01
 |       | 10100 | 10100 |   9   |    -1.3164885185662E-01
--------------------------------------------------
*** Contributions RASCI wfn    Active:  93.41
                                 Hole:   1.78
                                 Part:   4.81

      Mulliken population analysis 
 ---------------------------------------------------
   Atom    Charge (a.u.)   Spin (a.u.)  
 ---------------------------------------------------
   1  O    0.617112       -0.113740 
   2  H    0.191444        0.556870 
   3  H    0.191444        0.556870 
 ---------------------------------------------------
   Sum:    1.000000        1.000000 
 ---------------------------------------------------
 
  
 NATURAL OCCUPATION NUMBERS (higher than 1.0E-05)
            1           2           3           4           5           6
    1   1.9999999   1.9840927   1.9757189   1.8730166   0.9789446   0.1605455
            7           8           9          10          11          12
    1   0.0193960   0.0026311   0.0014471   0.0013345   0.0007788   0.0006310
           13          14          15          16          17          18
    1   0.0004603   0.0004278   0.0003167   0.0001401   0.0000587   0.0000535
  
*** Unpaired Electrons
 Yamaguchi Nd:         1.67
 Head-Gordon Nu:       1.33
 Head-Gordon Nu_nl:    1.15
  
**************************************************
 RAS-CI total energy for state   7:    -75.135715510334
  Excitation energy (eV) = 13.923901708210
  State symmetry: A2    (C2v      )
  <S^2>      :  3.7500
  Dipole Moment:    0.0000 X     0.0000 Y    -0.1813 Z
  Trans. Moment:   -0.0000 X    -0.0000 Y    -0.0000 Z
  Strength   :  0.000000
  Natural transition orbitals ( 1 -> 7 ):
   e-/hole pair  1 alpha:  ampl =  0.537470 ( 28.9%)   [5 : 6]
   e-/hole pair  2 alpha:  ampl =  0.176217 (  3.1%)   [4 : 7]
   e-/hole pair  1 beta :  ampl =  0.537470 ( 28.9%)   [5 : 6]
   e-/hole pair  2 beta :  ampl =  0.176216 (  3.1%)   [4 : 7]
   Sum of square amplitudes: 0.64

 NATURAL OCCUPATION NUMBERS (higher than 1.0E-05)
            1           2           3           4           5           6
    1   1.9999994   1.9986626   1.8939690   1.0915264   0.9989070   0.9022245
            7           8           9          10          11          12
    1   0.1071355   0.0030765   0.0013934   0.0012733   0.0005654   0.0003840
           13          14          15          16          17          18
    1   0.0003267   0.0002011   0.0001259   0.0000926   0.0000703   0.0000644
Natural Orbitals stored in FCHK

  Amplitudes : 
  
 | HOLE  | ALPHA | BETA  | PART  |    AMPLITUDE 
--------------------------------------------------
 |       | 11100 | 10001 |       |     5.2890657992942E-01
 |       | 11100 | 00110 |       |     1.6881994909083E-01
 |       | 11001 | 10100 |       |    -5.2890656078599E-01
 |       | 10110 | 01100 |       |    -1.6881996342823E-01
 |       | 10101 | 11000 |       |     5.2890647287007E-01
 |       | 01110 | 10100 |       |     1.6881992514755E-01
--------------------------------------------------
*** Contributions RASCI wfn    Active:  93.04
                                 Hole:   0.43
                                 Part:   6.53

      Mulliken population analysis 
 ---------------------------------------------------
   Atom    Charge (a.u.)   Spin (a.u.)  
 ---------------------------------------------------
   1  O    0.513695        0.675158 
   2  H    0.243153        0.162421 
   3  H    0.243153        0.162421 
 ---------------------------------------------------
   Sum:    1.000000        1.000000 
 ---------------------------------------------------
 
  
 NATURAL OCCUPATION NUMBERS (higher than 1.0E-05)
            1           2           3           4           5           6
    1   1.9999994   1.9986626   1.8939690   1.0915264   0.9989070   0.9022245
            7           8           9          10          11          12
    1   0.1071355   0.0030765   0.0013934   0.0012733   0.0005654   0.0003840
           13          14          15          16          17          18
    1   0.0003267   0.0002011   0.0001259   0.0000926   0.0000703   0.0000644
  
*** Unpaired Electrons
 Yamaguchi Nd:         3.40
 Head-Gordon Nu:       3.03
 Head-Gordon Nu_nl:    3.05
  
**************************************************
 RAS-CI total energy for state   8:    -75.091623683487
  Excitation energy (eV) = 15.123701360605
  State symmetry: B2    (C2v      )
  <S^2>      :  0.7500
  Dipole Moment:   -0.0000 X     0.0000 Y    -0.1900 Z
  Trans. Moment:    0.0000 X    -0.0000 Y    -0.2779 Z
  Strength   :  0.028615
  Natural transition orbitals ( 1 -> 8 ):
   e-/hole pair  1 alpha:  ampl =  0.713701 ( 50.9%)   [5 : 6]
   e-/hole pair  2 alpha:  ampl =  0.020279 (  0.0%)   [4 : 7]
   e-/hole pair  1 beta :  ampl =  0.113921 (  1.3%)   [5 : 6]
   e-/hole pair  2 beta :  ampl =  0.090075 (  0.8%)   [4 : 7]
   Sum of square amplitudes: 0.53

 NATURAL OCCUPATION NUMBERS (higher than 1.0E-05)
            1           2           3           4           5           6
    1   1.9999999   1.9960952   1.9598653   1.0373176   0.9984747   0.9596939
            7           8           9          10          11          12
    1   0.0399335   0.0025500   0.0015150   0.0014162   0.0011548   0.0005754
           13          14          15          16          17          18
    1   0.0004310   0.0003878   0.0002229   0.0001568   0.0001224   0.0000782
Natural Orbitals stored in FCHK

  Amplitudes : 
  
 | HOLE  | ALPHA | BETA  | PART  |    AMPLITUDE 
--------------------------------------------------
 |       | 11100 | 00101 |       |    -1.0897204710333E-01
 |       | 11010 | 10100 |       |     7.1030853599356E-01
 |       | 10110 | 11000 |       |     6.2762916621888E-01
 |       | 10101 | 01100 |       |    -1.0327122474758E-01
--------------------------------------------------
*** Contributions RASCI wfn    Active:  94.21
                                 Hole:   1.17
                                 Part:   4.62

      Mulliken population analysis 
 ---------------------------------------------------
   Atom    Charge (a.u.)   Spin (a.u.)  
 ---------------------------------------------------
   1  O    0.601998       -0.073734 
   2  H    0.199001        0.536867 
   3  H    0.199001        0.536867 
 ---------------------------------------------------
   Sum:    1.000000        1.000000 
 ---------------------------------------------------
 
  
 NATURAL OCCUPATION NUMBERS (higher than 1.0E-05)
            1           2           3           4           5           6
    1   1.9999999   1.9960952   1.9598653   1.0373176   0.9984747   0.9596939
            7           8           9          10          11          12
    1   0.0399335   0.0025500   0.0015150   0.0014162   0.0011548   0.0005754
           13          14          15          16          17          18
    1   0.0004310   0.0003878   0.0002229   0.0001568   0.0001224   0.0000782
  
*** Unpaired Electrons
 Yamaguchi Nd:         3.18
 Head-Gordon Nu:       3.01
 Head-Gordon Nu_nl:    3.01
  
**************************************************
 RAS-CI total energy for state   9:    -75.084705943020
  Excitation energy (eV) = 15.311942656142
  State symmetry: A2    (C2v      )
  <S^2>      :  0.7500
  Dipole Moment:    0.0000 X     0.0000 Y    -0.1924 Z
  Trans. Moment:    0.4197 X    -0.0000 Y    -0.0000 Z
  Strength   :  0.066090
  Natural transition orbitals ( 1 -> 9 ):
   e-/hole pair  1 alpha:  ampl =  0.249176 (  6.2%)   [5 : 6]
   e-/hole pair  2 alpha:  ampl =  0.095130 (  0.9%)   [4 : 7]
   e-/hole pair  1 beta :  ampl =  0.770790 ( 59.4%)   [5 : 6]
   e-/hole pair  2 beta :  ampl =  0.021729 (  0.0%)   [4 : 7]
   Sum of square amplitudes: 0.67

 NATURAL OCCUPATION NUMBERS (higher than 1.0E-05)
            1           2           3           4           5           6
    1   1.9999997   1.9974696   1.9701779   1.0178014   0.9986393   0.9743617
            7           8           9          10          11          12
    1   0.0339316   0.0024493   0.0018250   0.0008130   0.0007110   0.0007079
           13          14          15          16          17          18
    1   0.0005424   0.0002766   0.0001388   0.0000704   0.0000422   0.0000402
Natural Orbitals stored in FCHK

  Amplitudes : 
  
 | HOLE  | ALPHA | BETA  | PART  |    AMPLITUDE 
--------------------------------------------------
 |       | 11100 | 10001 |       |     7.6582119012763E-01
 |       | 11001 | 10100 |       |     2.5083823293864E-01
 |       | 10110 | 01100 |       |     1.0073544907748E-01
 |       | 10101 | 11000 |       |    -5.1498265969136E-01
--------------------------------------------------
*** Contributions RASCI wfn    Active:  94.94
                                 Hole:   0.50
                                 Part:   4.56

      Mulliken population analysis 
 ---------------------------------------------------
   Atom    Charge (a.u.)   Spin (a.u.)  
 ---------------------------------------------------
   1  O    0.471263        1.244347 
   2  H    0.264368       -0.122174 
   3  H    0.264368       -0.122174 
 ---------------------------------------------------
   Sum:    1.000000        1.000000 
 ---------------------------------------------------
 
  
 NATURAL OCCUPATION NUMBERS (higher than 1.0E-05)
            1           2           3           4           5           6
    1   1.9999997   1.9974696   1.9701779   1.0178014   0.9986393   0.9743617
            7           8           9          10          11          12
    1   0.0339316   0.0024493   0.0018250   0.0008130   0.0007110   0.0007079
           13          14          15          16          17          18
    1   0.0005424   0.0002766   0.0001388   0.0000704   0.0000422   0.0000402
  
*** Unpaired Electrons
 Yamaguchi Nd:         3.14
 Head-Gordon Nu:       3.03
 Head-Gordon Nu_nl:    3.01
  
**************************************************
 RAS-CI total energy for state  10:    -75.060101810693
  Excitation energy (eV) = 15.981455160481
  State symmetry: A2    (C2v      )
  <S^2>      :  3.7500
  Dipole Moment:   -0.0000 X     0.0000 Y     0.0481 Z
  Trans. Moment:    0.0000 X     0.0000 Y     0.0000 Z
  Strength   :  0.000000
  Natural transition orbitals ( 1 -> 10 ):
   e-/hole pair  1 alpha:  ampl =  0.537542 ( 28.9%)   [5 : 6]
   e-/hole pair  2 alpha:  ampl =  0.177033 (  3.1%)   [4 : 7]
   e-/hole pair  1 beta :  ampl =  0.537542 ( 28.9%)   [5 : 6]
   e-/hole pair  2 beta :  ampl =  0.177033 (  3.1%)   [4 : 7]
   Sum of square amplitudes: 0.64

 NATURAL OCCUPATION NUMBERS (higher than 1.0E-05)
            1           2           3           4           5           6
    1   1.9999999   1.9984722   1.8922029   1.0990701   0.9992577   0.8951793
            7           8           9          10          11          12
    1   0.1087753   0.0018282   0.0014491   0.0011280   0.0009197   0.0004241
           13          14          15          16          17          18
    1   0.0004135   0.0002836   0.0002118   0.0001428   0.0001283   0.0001069
Natural Orbitals stored in FCHK

  Amplitudes : 
  
 | HOLE  | ALPHA | BETA  | PART  |    AMPLITUDE 
--------------------------------------------------
 |       | 11100 | 10001 |       |    -1.7126053148036E-01
 |       | 11100 | 00110 |       |     5.3062422864057E-01
 |       | 11001 | 10100 |       |     1.7126038074112E-01
 |       | 10110 | 01100 |       |    -5.3062406846232E-01
 |       | 10101 | 11000 |       |    -1.7126061258182E-01
 |       | 01110 | 10100 |       |     5.3062431988614E-01
--------------------------------------------------
*** Contributions RASCI wfn    Active:  93.93
                                 Hole:   0.89
                                 Part:   5.18

      Mulliken population analysis 
 ---------------------------------------------------
   Atom    Charge (a.u.)   Spin (a.u.)  
 ---------------------------------------------------
   1  O    0.486027        0.579875 
   2  H    0.256987        0.210063 
   3  H    0.256987        0.210063 
 ---------------------------------------------------
   Sum:    1.000000        1.000000 
 ---------------------------------------------------
 
  
 NATURAL OCCUPATION NUMBERS (higher than 1.0E-05)
            1           2           3           4           5           6
    1   1.9999999   1.9984722   1.8922029   1.0990701   0.9992577   0.8951793
            7           8           9          10          11          12
    1   0.1087753   0.0018282   0.0014491   0.0011280   0.0009197   0.0004241
           13          14          15          16          17          18
    1   0.0004135   0.0002836   0.0002118   0.0001428   0.0001283   0.0001069
  
*** Unpaired Electrons
 Yamaguchi Nd:         3.41
 Head-Gordon Nu:       3.02
 Head-Gordon Nu_nl:    3.04
  
--------------------------------------------------
 Interstate Transition Properties
--------------------------------------------------
State A: Root  1
State B: Root  2
  
Angular momentum components
< B | Lx | A > =    -0.959834306i
< B | Ly | A > =    -0.000000000i
< B | Lz | A > =    -0.000000000i
  
Norm of one-particle transition density matrix
||gamma^AB||_total       =  0.993031
||gamma^AB||_symmetrized =  0.703544
||gamma^AB||_anti-symm   =  0.700812
  
Spin-orbit couplings
 Using HF (reference) density for the 2-elec mean-field SOC contribution
KET: S',Sz' (Root   1) =  0.500 0.500
BRA: S ,Sz  (Root   2) =  0.500 0.500
Clebsh-Gordan coefficient: < 0.500, 0.500; 1.000, 0.000| 0.500, 0.500> = -0.577
 Computing 1e-SO integrals
 1e Reduced matrix elements (cm-1)
<S|| Hso(L-) ||S'> =     0.0000000000   119.1395441212
<S|| Hso(L0) ||S'> =     0.0000000000    -0.0000000000
<S|| Hso(L+) ||S'> =     0.0000000000  -119.1395441212
 1-elec SOC matrix (cm-1): < B(S,Sz) | Hso(1e) | A(S',Sz') >
                     |Sz'=-0.50>              |Sz'= 0.50>
 <Sz=-0.50|    0.000000   -0.000000i    -0.000000   97.277030i
 <Sz= 0.50|    0.000000   97.277030i     0.000000    0.000000i
1-elec SOCC =   137.570495739 cm-1
 Computing 2e-SOMF integrals
 Averagin spin alpha/beta reference densities
 2e-SOMF Reduced matrix elements (cm-1)
<S|| Hso(L-) ||S'> =    -0.0000000000   -44.8217162977
<S|| Hso(L0) ||S'> =     0.0000000000    -0.0000000000
<S|| Hso(L+) ||S'> =    -0.0000000000    44.8217162977
 2-elec mean-field SOC matrix (cm-1): < B(S,Sz) | Hso(2e-mf) | A(S',Sz') >
                     |Sz'=-0.50>              |Sz'= 0.50>
 <Sz=-0.50|    0.000000   -0.000000i     0.000000  -36.596778i
 <Sz= 0.50|   -0.000000  -36.596778i    -0.000000    0.000000i
 Total mean-field SOC matrix (cm-1): < B(S,Sz) | Hsomf | A(S',Sz') >
                     |Sz'=-0.50>              |Sz'= 0.50>
 <Sz=-0.50|    0.000000   -0.000000i    -0.000000   60.680252i
 <Sz= 0.50|    0.000000   60.680252i     0.000000    0.000000i
Mean-Field SOCC =    85.814835799 cm-1
   
**************************************************
State A: Root  1
State B: Root  3
  
Angular momentum components
< B | Lx | A > =    -0.000000000i
< B | Ly | A > =     0.000000000i
< B | Lz | A > =     0.957039803i
  
Norm of one-particle transition density matrix
||gamma^AB||_total       =  0.988754
||gamma^AB||_symmetrized =  0.701113
||gamma^AB||_anti-symm   =  0.697191
  
Spin-orbit couplings
 Using HF (reference) density for the 2-elec mean-field SOC contribution
KET: S',Sz' (Root   1) =  0.500 0.500
BRA: S ,Sz  (Root   3) =  0.500 0.500
Clebsh-Gordan coefficient: < 0.500, 0.500; 1.000, 0.000| 0.500, 0.500> = -0.577
 Reading 1e-SO integrals
 1e Reduced matrix elements (cm-1)
<S|| Hso(L-) ||S'> =    -0.0000000000     0.0000000000
<S|| Hso(L0) ||S'> =     0.0000000000   149.9679721791
<S|| Hso(L+) ||S'> =    -0.0000000000    -0.0000000000
 1-elec SOC matrix (cm-1): < B(S,Sz) | Hso(1e) | A(S',Sz') >
                     |Sz'=-0.50>              |Sz'= 0.50>
 <Sz=-0.50|    0.000000   86.584049i     0.000000    0.000000i
 <Sz= 0.50|   -0.000000    0.000000i    -0.000000  -86.584049i
1-elec SOCC =   122.448336533 cm-1
 Reading 2e-SOMF integrals
 2e-SOMF Reduced matrix elements (cm-1)
<S|| Hso(L-) ||S'> =     0.0000000000    -0.0000000000
<S|| Hso(L0) ||S'> =     0.0000000000   -54.2800607407
<S|| Hso(L+) ||S'> =     0.0000000000     0.0000000000
 2-elec mean-field SOC matrix (cm-1): < B(S,Sz) | Hso(2e-mf) | A(S',Sz') >
                     |Sz'=-0.50>              |Sz'= 0.50>
 <Sz=-0.50|    0.000000  -31.338608i    -0.000000   -0.000000i
 <Sz= 0.50|    0.000000   -0.000000i     0.000000   31.338608i
 Total mean-field SOC matrix (cm-1): < B(S,Sz) | Hsomf | A(S',Sz') >
                     |Sz'=-0.50>              |Sz'= 0.50>
 <Sz=-0.50|    0.000000   55.245441i     0.000000   -0.000000i
 <Sz= 0.50|   -0.000000    0.000000i    -0.000000  -55.245441i
Mean-Field SOCC =    78.128852526 cm-1
   
**************************************************
State A: Root  1
State B: Root  4
  
Angular momentum components
< B | Lx | A > =    -0.000000000i
< B | Ly | A > =    -0.000000000i
< B | Lz | A > =    -0.000000000i
  
Norm of one-particle transition density matrix
||gamma^AB||_total       =  0.797976
||gamma^AB||_symmetrized =  0.581233
||gamma^AB||_anti-symm   =  0.546749
  
Spin-orbit couplings
 Using HF (reference) density for the 2-elec mean-field SOC contribution
KET: S',Sz' (Root   1) =  0.500 0.500
BRA: S ,Sz  (Root   4) =  1.500 0.500
Clebsh-Gordan coefficient: < 0.500, 0.500; 1.000, 0.000| 1.500, 0.500> =  0.816
 Reading 1e-SO integrals
 1e Reduced matrix elements (cm-1)
<S|| Hso(L-) ||S'> =    -0.0000000000    -0.0000000000
<S|| Hso(L0) ||S'> =     0.0000000000     0.0000000000
<S|| Hso(L+) ||S'> =    -0.0000000000     0.0000000000
 1-elec SOC matrix (cm-1): < B(S,Sz) | Hso(1e) | A(S',Sz') >
                     |Sz'=-0.50>              |Sz'= 0.50>
 <Sz=-1.50|   -0.000000    0.000000i     0.000000    0.000000i
 <Sz=-0.50|    0.000000    0.000000i    -0.000000    0.000000i
 <Sz= 0.50|   -0.000000   -0.000000i    -0.000000    0.000000i
 <Sz= 1.50|    0.000000    0.000000i    -0.000000   -0.000000i
1-elec SOCC =     0.000000000 cm-1
 Reading 2e-SOMF integrals
 2e-SOMF Reduced matrix elements (cm-1)
<S|| Hso(L-) ||S'> =     0.0000000000     0.0000000000
<S|| Hso(L0) ||S'> =     0.0000000000    -0.0000000000
<S|| Hso(L+) ||S'> =     0.0000000000    -0.0000000000
 2-elec mean-field SOC matrix (cm-1): < B(S,Sz) | Hso(2e-mf) | A(S',Sz') >
                     |Sz'=-0.50>              |Sz'= 0.50>
 <Sz=-1.50|    0.000000   -0.000000i     0.000000    0.000000i
 <Sz=-0.50|   -0.000000   -0.000000i     0.000000   -0.000000i
 <Sz= 0.50|    0.000000    0.000000i     0.000000   -0.000000i
 <Sz= 1.50|    0.000000    0.000000i     0.000000    0.000000i
 Total mean-field SOC matrix (cm-1): < B(S,Sz) | Hsomf | A(S',Sz') >
                     |Sz'=-0.50>              |Sz'= 0.50>
 <Sz=-1.50|   -0.000000    0.000000i     0.000000    0.000000i
 <Sz=-0.50|    0.000000    0.000000i    -0.000000    0.000000i
 <Sz= 0.50|   -0.000000   -0.000000i    -0.000000    0.000000i
 <Sz= 1.50|    0.000000    0.000000i    -0.000000   -0.000000i
Mean-Field SOCC =     0.000000000 cm-1
   
**************************************************
State A: Root  1
State B: Root  5
  
Angular momentum components
< B | Lx | A > =    -0.000000000i
< B | Ly | A > =    -0.000000000i
< B | Lz | A > =    -0.000000000i
  
Norm of one-particle transition density matrix
||gamma^AB||_total       =  0.851375
||gamma^AB||_symmetrized =  0.597857
||gamma^AB||_anti-symm   =  0.606141
  
Spin-orbit couplings
 Using HF (reference) density for the 2-elec mean-field SOC contribution
KET: S',Sz' (Root   1) =  0.500 0.500
BRA: S ,Sz  (Root   5) =  0.500 0.500
Clebsh-Gordan coefficient: < 0.500, 0.500; 1.000, 0.000| 0.500, 0.500> = -0.577
 Reading 1e-SO integrals
 1e Reduced matrix elements (cm-1)
<S|| Hso(L-) ||S'> =     0.0000000000    -0.0000000000
<S|| Hso(L0) ||S'> =     0.0000000000     0.0000000000
<S|| Hso(L+) ||S'> =     0.0000000000     0.0000000000
 1-elec SOC matrix (cm-1): < B(S,Sz) | Hso(1e) | A(S',Sz') >
                     |Sz'=-0.50>              |Sz'= 0.50>
 <Sz=-0.50|    0.000000    0.000000i    -0.000000   -0.000000i
 <Sz= 0.50|    0.000000   -0.000000i     0.000000   -0.000000i
1-elec SOCC =     0.000000000 cm-1
 Reading 2e-SOMF integrals
 2e-SOMF Reduced matrix elements (cm-1)
<S|| Hso(L-) ||S'> =    -0.0000000000     0.0000000000
<S|| Hso(L0) ||S'> =     0.0000000000    -0.0000000000
<S|| Hso(L+) ||S'> =    -0.0000000000    -0.0000000000
 2-elec mean-field SOC matrix (cm-1): < B(S,Sz) | Hso(2e-mf) | A(S',Sz') >
                     |Sz'=-0.50>              |Sz'= 0.50>
 <Sz=-0.50|    0.000000   -0.000000i     0.000000    0.000000i
 <Sz= 0.50|   -0.000000    0.000000i    -0.000000    0.000000i
 Total mean-field SOC matrix (cm-1): < B(S,Sz) | Hsomf | A(S',Sz') >
                     |Sz'=-0.50>              |Sz'= 0.50>
 <Sz=-0.50|    0.000000    0.000000i    -0.000000   -0.000000i
 <Sz= 0.50|    0.000000   -0.000000i     0.000000   -0.000000i
Mean-Field SOCC =     0.000000000 cm-1
   
**************************************************
State A: Root  1
State B: Root  6
  
Angular momentum components
< B | Lx | A > =     0.145188539i
< B | Ly | A > =     0.000000000i
< B | Lz | A > =    -0.000000000i
  
Norm of one-particle transition density matrix
||gamma^AB||_total       =  0.940393
||gamma^AB||_symmetrized =  0.669272
||gamma^AB||_anti-symm   =  0.660617
  
Spin-orbit couplings
 Using HF (reference) density for the 2-elec mean-field SOC contribution
KET: S',Sz' (Root   1) =  0.500 0.500
BRA: S ,Sz  (Root   6) =  0.500 0.500
Clebsh-Gordan coefficient: < 0.500, 0.500; 1.000, 0.000| 0.500, 0.500> = -0.577
 Reading 1e-SO integrals
 1e Reduced matrix elements (cm-1)
<S|| Hso(L-) ||S'> =    -0.0000000000    56.2806207141
<S|| Hso(L0) ||S'> =     0.0000000000     0.0000000000
<S|| Hso(L+) ||S'> =    -0.0000000000   -56.2806207141
 1-elec SOC matrix (cm-1): < B(S,Sz) | Hso(1e) | A(S',Sz') >
                     |Sz'=-0.50>              |Sz'= 0.50>
 <Sz=-0.50|    0.000000    0.000000i     0.000000   45.952934i
 <Sz= 0.50|   -0.000000   45.952934i    -0.000000   -0.000000i
1-elec SOCC =    64.987263039 cm-1
 Reading 2e-SOMF integrals
 2e-SOMF Reduced matrix elements (cm-1)
<S|| Hso(L-) ||S'> =     0.0000000000   -19.4890114001
<S|| Hso(L0) ||S'> =     0.0000000000    -0.0000000000
<S|| Hso(L+) ||S'> =     0.0000000000    19.4890114001
 2-elec mean-field SOC matrix (cm-1): < B(S,Sz) | Hso(2e-mf) | A(S',Sz') >
                     |Sz'=-0.50>              |Sz'= 0.50>
 <Sz=-0.50|    0.000000   -0.000000i    -0.000000  -15.912711i
 <Sz= 0.50|    0.000000  -15.912711i     0.000000    0.000000i
 Total mean-field SOC matrix (cm-1): < B(S,Sz) | Hsomf | A(S',Sz') >
                     |Sz'=-0.50>              |Sz'= 0.50>
 <Sz=-0.50|    0.000000    0.000000i     0.000000   30.040223i
 <Sz= 0.50|   -0.000000   30.040223i    -0.000000   -0.000000i
Mean-Field SOCC =    42.483291083 cm-1
   
**************************************************
State A: Root  1
State B: Root  7
  
Angular momentum components
< B | Lx | A > =    -0.000000000i
< B | Ly | A > =    -0.000000075i
< B | Lz | A > =    -0.000000000i
  
Norm of one-particle transition density matrix
||gamma^AB||_total       =  0.801042
||gamma^AB||_symmetrized =  0.588306
||gamma^AB||_anti-symm   =  0.543658
  
Spin-orbit couplings
 Using HF (reference) density for the 2-elec mean-field SOC contribution
KET: S',Sz' (Root   1) =  0.500 0.500
BRA: S ,Sz  (Root   7) =  1.500 0.500
Clebsh-Gordan coefficient: < 0.500, 0.500; 1.000, 0.000| 1.500, 0.500> =  0.816
 Reading 1e-SO integrals
 1e Reduced matrix elements (cm-1)
<S|| Hso(L-) ||S'> =    49.5661148270     0.0000000000
<S|| Hso(L0) ||S'> =     0.0000000000     0.0000000000
<S|| Hso(L+) ||S'> =    49.5661148270    -0.0000000000
 1-elec SOC matrix (cm-1): < B(S,Sz) | Hso(1e) | A(S',Sz') >
                     |Sz'=-0.50>              |Sz'= 0.50>
 <Sz=-1.50|   49.566115   -0.000000i     0.000000    0.000000i
 <Sz=-0.50|   -0.000000    0.000000i    28.617010   -0.000000i
 <Sz= 0.50|   28.617010    0.000000i     0.000000    0.000000i
 <Sz= 1.50|    0.000000    0.000000i    49.566115    0.000000i
1-elec SOCC =    80.941126572 cm-1
 Reading 2e-SOMF integrals
 2e-SOMF Reduced matrix elements (cm-1)
<S|| Hso(L-) ||S'> =   -17.7507566302    -0.0000000000
<S|| Hso(L0) ||S'> =     0.0000000000    -0.0000000000
<S|| Hso(L+) ||S'> =   -17.7507566302     0.0000000000
 2-elec mean-field SOC matrix (cm-1): < B(S,Sz) | Hso(2e-mf) | A(S',Sz') >
                     |Sz'=-0.50>              |Sz'= 0.50>
 <Sz=-1.50|  -17.750757    0.000000i     0.000000    0.000000i
 <Sz=-0.50|    0.000000   -0.000000i   -10.248404    0.000000i
 <Sz= 0.50|  -10.248404   -0.000000i    -0.000000   -0.000000i
 <Sz= 1.50|    0.000000    0.000000i   -17.750757   -0.000000i
 Total mean-field SOC matrix (cm-1): < B(S,Sz) | Hsomf | A(S',Sz') >
                     |Sz'=-0.50>              |Sz'= 0.50>
 <Sz=-1.50|   31.815358   -0.000000i     0.000000    0.000000i
 <Sz=-0.50|   -0.000000    0.000000i    18.368606   -0.000000i
 <Sz= 0.50|   18.368606    0.000000i     0.000000    0.000000i
 <Sz= 1.50|    0.000000    0.000000i    31.815358    0.000000i
Mean-Field SOCC =    51.954262377 cm-1
   
**************************************************
State A: Root  1
State B: Root  8
  
Angular momentum components
< B | Lx | A > =    -0.000000000i
< B | Ly | A > =     0.000000000i
< B | Lz | A > =     0.000000000i
  
Norm of one-particle transition density matrix
||gamma^AB||_total       =  0.729425
||gamma^AB||_symmetrized =  0.518909
||gamma^AB||_anti-symm   =  0.512635
  
Spin-orbit couplings
 Using HF (reference) density for the 2-elec mean-field SOC contribution
KET: S',Sz' (Root   1) =  0.500 0.500
BRA: S ,Sz  (Root   8) =  0.500 0.500
Clebsh-Gordan coefficient: < 0.500, 0.500; 1.000, 0.000| 0.500, 0.500> = -0.577
 Reading 1e-SO integrals
 1e Reduced matrix elements (cm-1)
<S|| Hso(L-) ||S'> =    -0.0000000000    -0.0000000000
<S|| Hso(L0) ||S'> =     0.0000000000    -0.0000000000
<S|| Hso(L+) ||S'> =    -0.0000000000     0.0000000000
 1-elec SOC matrix (cm-1): < B(S,Sz) | Hso(1e) | A(S',Sz') >
                     |Sz'=-0.50>              |Sz'= 0.50>
 <Sz=-0.50|    0.000000   -0.000000i     0.000000   -0.000000i
 <Sz= 0.50|   -0.000000   -0.000000i    -0.000000    0.000000i
1-elec SOCC =     0.000000000 cm-1
 Reading 2e-SOMF integrals
 2e-SOMF Reduced matrix elements (cm-1)
<S|| Hso(L-) ||S'> =     0.0000000000     0.0000000000
<S|| Hso(L0) ||S'> =     0.0000000000     0.0000000000
<S|| Hso(L+) ||S'> =     0.0000000000    -0.0000000000
 2-elec mean-field SOC matrix (cm-1): < B(S,Sz) | Hso(2e-mf) | A(S',Sz') >
                     |Sz'=-0.50>              |Sz'= 0.50>
 <Sz=-0.50|    0.000000    0.000000i    -0.000000    0.000000i
 <Sz= 0.50|    0.000000    0.000000i     0.000000   -0.000000i
 Total mean-field SOC matrix (cm-1): < B(S,Sz) | Hsomf | A(S',Sz') >
                     |Sz'=-0.50>              |Sz'= 0.50>
 <Sz=-0.50|    0.000000   -0.000000i     0.000000   -0.000000i
 <Sz= 0.50|   -0.000000   -0.000000i    -0.000000    0.000000i
Mean-Field SOCC =     0.000000000 cm-1
   
**************************************************
State A: Root  1
State B: Root  9
  
Angular momentum components
< B | Lx | A > =     0.000000000i
< B | Ly | A > =     0.290860162i
< B | Lz | A > =    -0.000000000i
  
Norm of one-particle transition density matrix
||gamma^AB||_total       =  0.816914
||gamma^AB||_symmetrized =  0.574342
||gamma^AB||_anti-symm   =  0.580931
  
Spin-orbit couplings
 Using HF (reference) density for the 2-elec mean-field SOC contribution
KET: S',Sz' (Root   1) =  0.500 0.500
BRA: S ,Sz  (Root   9) =  0.500 0.500
Clebsh-Gordan coefficient: < 0.500, 0.500; 1.000, 0.000| 0.500, 0.500> = -0.577
 Reading 1e-SO integrals
 1e Reduced matrix elements (cm-1)
<S|| Hso(L-) ||S'> =   -39.7097243182    -0.0000000000
<S|| Hso(L0) ||S'> =     0.0000000000     0.0000000000
<S|| Hso(L+) ||S'> =   -39.7097243182     0.0000000000
 1-elec SOC matrix (cm-1): < B(S,Sz) | Hso(1e) | A(S',Sz') >
                     |Sz'=-0.50>              |Sz'= 0.50>
 <Sz=-0.50|    0.000000    0.000000i    32.422854   -0.000000i
 <Sz= 0.50|  -32.422854   -0.000000i    -0.000000   -0.000000i
1-elec SOCC =    45.852840049 cm-1
 Reading 2e-SOMF integrals
 2e-SOMF Reduced matrix elements (cm-1)
<S|| Hso(L-) ||S'> =    14.4197736785     0.0000000000
<S|| Hso(L0) ||S'> =     0.0000000000    -0.0000000000
<S|| Hso(L+) ||S'> =    14.4197736785    -0.0000000000
 2-elec mean-field SOC matrix (cm-1): < B(S,Sz) | Hso(2e-mf) | A(S',Sz') >
                     |Sz'=-0.50>              |Sz'= 0.50>
 <Sz=-0.50|    0.000000   -0.000000i   -11.773696    0.000000i
 <Sz= 0.50|   11.773696    0.000000i     0.000000    0.000000i
 Total mean-field SOC matrix (cm-1): < B(S,Sz) | Hsomf | A(S',Sz') >
                     |Sz'=-0.50>              |Sz'= 0.50>
 <Sz=-0.50|    0.000000    0.000000i    20.649158   -0.000000i
 <Sz= 0.50|  -20.649158   -0.000000i    -0.000000   -0.000000i
Mean-Field SOCC =    29.202319619 cm-1
   
**************************************************
State A: Root  1
State B: Root 10
  
Angular momentum components
< B | Lx | A > =     0.000000000i
< B | Ly | A > =     0.000000065i
< B | Lz | A > =     0.000000000i
  
Norm of one-particle transition density matrix
||gamma^AB||_total       =  0.800892
||gamma^AB||_symmetrized =  0.573870
||gamma^AB||_anti-symm   =  0.558660
  
Spin-orbit couplings
 Using HF (reference) density for the 2-elec mean-field SOC contribution
KET: S',Sz' (Root   1) =  0.500 0.500
BRA: S ,Sz  (Root  10) =  1.500 0.500
Clebsh-Gordan coefficient: < 0.500, 0.500; 1.000, 0.000| 1.500, 0.500> =  0.816
 Reading 1e-SO integrals
 1e Reduced matrix elements (cm-1)
<S|| Hso(L-) ||S'> =   -57.4726690698     0.0000000000
<S|| Hso(L0) ||S'> =     0.0000000000     0.0000000000
<S|| Hso(L+) ||S'> =   -57.4726690698    -0.0000000000
 1-elec SOC matrix (cm-1): < B(S,Sz) | Hso(1e) | A(S',Sz') >
                     |Sz'=-0.50>              |Sz'= 0.50>
 <Sz=-1.50|  -57.472669   -0.000000i     0.000000    0.000000i
 <Sz=-0.50|    0.000000    0.000000i   -33.181861   -0.000000i
 <Sz= 0.50|  -33.181861    0.000000i    -0.000000    0.000000i
 <Sz= 1.50|    0.000000    0.000000i   -57.472669    0.000000i
1-elec SOCC =    93.852475585 cm-1
 Reading 2e-SOMF integrals
 2e-SOMF Reduced matrix elements (cm-1)
<S|| Hso(L-) ||S'> =    20.8652072670    -0.0000000000
<S|| Hso(L0) ||S'> =     0.0000000000    -0.0000000000
<S|| Hso(L+) ||S'> =    20.8652072670     0.0000000000
 2-elec mean-field SOC matrix (cm-1): < B(S,Sz) | Hso(2e-mf) | A(S',Sz') >
                     |Sz'=-0.50>              |Sz'= 0.50>
 <Sz=-1.50|   20.865207    0.000000i     0.000000    0.000000i
 <Sz=-0.50|   -0.000000   -0.000000i    12.046533    0.000000i
 <Sz= 0.50|   12.046533   -0.000000i     0.000000   -0.000000i
 <Sz= 1.50|    0.000000    0.000000i    20.865207   -0.000000i
 Total mean-field SOC matrix (cm-1): < B(S,Sz) | Hsomf | A(S',Sz') >
                     |Sz'=-0.50>              |Sz'= 0.50>
 <Sz=-1.50|  -36.607462   -0.000000i     0.000000    0.000000i
 <Sz=-0.50|    0.000000    0.000000i   -21.135328   -0.000000i
 <Sz= 0.50|  -21.135328    0.000000i    -0.000000    0.000000i
 <Sz= 1.50|    0.000000    0.000000i   -36.607462    0.000000i
Mean-Field SOCC =    59.779734797 cm-1
   
**************************************************
State A: Root  2
State B: Root  1
  
Angular momentum components
< B | Lx | A > =     0.959834306i
< B | Ly | A > =     0.000000000i
< B | Lz | A > =     0.000000000i
  
Norm of one-particle transition density matrix
||gamma^AB||_total       =  0.993031
||gamma^AB||_symmetrized =  0.703544
||gamma^AB||_anti-symm   =  0.700812
  
Spin-orbit couplings
 Using HF (reference) density for the 2-elec mean-field SOC contribution
KET: S',Sz' (Root   2) =  0.500 0.500
BRA: S ,Sz  (Root   1) =  0.500 0.500
Clebsh-Gordan coefficient: < 0.500, 0.500; 1.000, 0.000| 0.500, 0.500> = -0.577
 Reading 1e-SO integrals
 1e Reduced matrix elements (cm-1)
<S|| Hso(L-) ||S'> =    -0.0000000000  -119.1395441212
<S|| Hso(L0) ||S'> =     0.0000000000     0.0000000000
<S|| Hso(L+) ||S'> =    -0.0000000000   119.1395441212
 1-elec SOC matrix (cm-1): < B(S,Sz) | Hso(1e) | A(S',Sz') >
                     |Sz'=-0.50>              |Sz'= 0.50>
 <Sz=-0.50|    0.000000    0.000000i     0.000000  -97.277030i
 <Sz= 0.50|   -0.000000  -97.277030i    -0.000000   -0.000000i
1-elec SOCC =   137.570495739 cm-1
 Reading 2e-SOMF integrals
 2e-SOMF Reduced matrix elements (cm-1)
<S|| Hso(L-) ||S'> =     0.0000000000    44.8217162977
<S|| Hso(L0) ||S'> =     0.0000000000     0.0000000000
<S|| Hso(L+) ||S'> =     0.0000000000   -44.8217162977
 2-elec mean-field SOC matrix (cm-1): < B(S,Sz) | Hso(2e-mf) | A(S',Sz') >
                     |Sz'=-0.50>              |Sz'= 0.50>
 <Sz=-0.50|    0.000000    0.000000i    -0.000000   36.596778i
 <Sz= 0.50|    0.000000   36.596778i     0.000000   -0.000000i
 Total mean-field SOC matrix (cm-1): < B(S,Sz) | Hsomf | A(S',Sz') >
                     |Sz'=-0.50>              |Sz'= 0.50>
 <Sz=-0.50|    0.000000    0.000000i     0.000000  -60.680252i
 <Sz= 0.50|   -0.000000  -60.680252i    -0.000000   -0.000000i
Mean-Field SOCC =    85.814835799 cm-1
   
**************************************************
State A: Root  2
State B: Root  3
  
Angular momentum components
< B | Lx | A > =    -0.000000000i
< B | Ly | A > =     0.903738999i
< B | Lz | A > =    -0.000000000i
  
Norm of one-particle transition density matrix
||gamma^AB||_total       =  0.985360
||gamma^AB||_symmetrized =  0.698489
||gamma^AB||_anti-symm   =  0.695016
  
Spin-orbit couplings
 Using HF (reference) density for the 2-elec mean-field SOC contribution
KET: S',Sz' (Root   2) =  0.500 0.500
BRA: S ,Sz  (Root   3) =  0.500 0.500
Clebsh-Gordan coefficient: < 0.500, 0.500; 1.000, 0.000| 0.500, 0.500> = -0.577
 Reading 1e-SO integrals
 1e Reduced matrix elements (cm-1)
<S|| Hso(L-) ||S'> =   -95.2338602204     0.0000000000
<S|| Hso(L0) ||S'> =     0.0000000000    -0.0000000000
<S|| Hso(L+) ||S'> =   -95.2338602204    -0.0000000000
 1-elec SOC matrix (cm-1): < B(S,Sz) | Hso(1e) | A(S',Sz') >
                     |Sz'=-0.50>              |Sz'= 0.50>
 <Sz=-0.50|    0.000000   -0.000000i    77.758121    0.000000i
 <Sz= 0.50|  -77.758121    0.000000i    -0.000000    0.000000i
1-elec SOCC =   109.966589668 cm-1
 Reading 2e-SOMF integrals
 2e-SOMF Reduced matrix elements (cm-1)
<S|| Hso(L-) ||S'> =    37.6717777825    -0.0000000000
<S|| Hso(L0) ||S'> =     0.0000000000     0.0000000000
<S|| Hso(L+) ||S'> =    37.6717777825     0.0000000000
 2-elec mean-field SOC matrix (cm-1): < B(S,Sz) | Hso(2e-mf) | A(S',Sz') >
                     |Sz'=-0.50>              |Sz'= 0.50>
 <Sz=-0.50|    0.000000    0.000000i   -30.758878   -0.000000i
 <Sz= 0.50|   30.758878   -0.000000i     0.000000   -0.000000i
 Total mean-field SOC matrix (cm-1): < B(S,Sz) | Hsomf | A(S',Sz') >
                     |Sz'=-0.50>              |Sz'= 0.50>
 <Sz=-0.50|    0.000000   -0.000000i    46.999244    0.000000i
 <Sz= 0.50|  -46.999244    0.000000i    -0.000000    0.000000i
Mean-Field SOCC =    66.466967581 cm-1
   
**************************************************
State A: Root  2
State B: Root  4
  
Angular momentum components
< B | Lx | A > =    -0.000000000i
< B | Ly | A > =     0.000000000i
< B | Lz | A > =    -0.000000000i
  
Norm of one-particle transition density matrix
||gamma^AB||_total       =  0.792033
||gamma^AB||_symmetrized =  0.569312
||gamma^AB||_anti-symm   =  0.550636
  
Spin-orbit couplings
 Using HF (reference) density for the 2-elec mean-field SOC contribution
KET: S',Sz' (Root   2) =  0.500 0.500
BRA: S ,Sz  (Root   4) =  1.500 0.500
Clebsh-Gordan coefficient: < 0.500, 0.500; 1.000, 0.000| 1.500, 0.500> =  0.816
 Reading 1e-SO integrals
 1e Reduced matrix elements (cm-1)
<S|| Hso(L-) ||S'> =     0.0000000000   -45.2994167371
<S|| Hso(L0) ||S'> =     0.0000000000    -0.0000000000
<S|| Hso(L+) ||S'> =     0.0000000000    45.2994167371
 1-elec SOC matrix (cm-1): < B(S,Sz) | Hso(1e) | A(S',Sz') >
                     |Sz'=-0.50>              |Sz'= 0.50>
 <Sz=-1.50|    0.000000   45.299417i     0.000000    0.000000i
 <Sz=-0.50|   -0.000000   -0.000000i     0.000000   26.153630i
 <Sz= 0.50|    0.000000  -26.153630i     0.000000   -0.000000i
 <Sz= 1.50|    0.000000    0.000000i     0.000000  -45.299417i
1-elec SOCC =    73.973637768 cm-1
 Reading 2e-SOMF integrals
 2e-SOMF Reduced matrix elements (cm-1)
<S|| Hso(L-) ||S'> =    -0.0000000000    15.6803052829
<S|| Hso(L0) ||S'> =     0.0000000000     0.0000000000
<S|| Hso(L+) ||S'> =    -0.0000000000   -15.6803052829
 2-elec mean-field SOC matrix (cm-1): < B(S,Sz) | Hso(2e-mf) | A(S',Sz') >
                     |Sz'=-0.50>              |Sz'= 0.50>
 <Sz=-1.50|   -0.000000  -15.680305i     0.000000    0.000000i
 <Sz=-0.50|    0.000000    0.000000i    -0.000000   -9.053028i
 <Sz= 0.50|   -0.000000    9.053028i    -0.000000    0.000000i
 <Sz= 1.50|    0.000000    0.000000i    -0.000000   15.680305i
 Total mean-field SOC matrix (cm-1): < B(S,Sz) | Hsomf | A(S',Sz') >
                     |Sz'=-0.50>              |Sz'= 0.50>
 <Sz=-1.50|    0.000000   29.619111i     0.000000    0.000000i
 <Sz=-0.50|   -0.000000   -0.000000i     0.000000   17.100602i
 <Sz= 0.50|    0.000000  -17.100602i     0.000000   -0.000000i
 <Sz= 1.50|    0.000000    0.000000i     0.000000  -29.619111i
Mean-Field SOCC =    48.367806465 cm-1
   
**************************************************
State A: Root  2
State B: Root  5
  
Angular momentum components
< B | Lx | A > =    -0.179293098i
< B | Ly | A > =     0.000000000i
< B | Lz | A > =     0.000000000i
  
Norm of one-particle transition density matrix
||gamma^AB||_total       =  0.912925
||gamma^AB||_symmetrized =  0.637158
||gamma^AB||_anti-symm   =  0.653806
  
Spin-orbit couplings
 Using HF (reference) density for the 2-elec mean-field SOC contribution
KET: S',Sz' (Root   2) =  0.500 0.500
BRA: S ,Sz  (Root   5) =  0.500 0.500
Clebsh-Gordan coefficient: < 0.500, 0.500; 1.000, 0.000| 0.500, 0.500> = -0.577
 Reading 1e-SO integrals
 1e Reduced matrix elements (cm-1)
<S|| Hso(L-) ||S'> =     0.0000000000    17.2059884835
<S|| Hso(L0) ||S'> =     0.0000000000     0.0000000000
<S|| Hso(L+) ||S'> =     0.0000000000   -17.2059884835
 1-elec SOC matrix (cm-1): < B(S,Sz) | Hso(1e) | A(S',Sz') >
                     |Sz'=-0.50>              |Sz'= 0.50>
 <Sz=-0.50|    0.000000    0.000000i    -0.000000   14.048631i
 <Sz= 0.50|    0.000000   14.048631i     0.000000   -0.000000i
1-elec SOCC =    19.867764165 cm-1
 Reading 2e-SOMF integrals
 2e-SOMF Reduced matrix elements (cm-1)
<S|| Hso(L-) ||S'> =    -0.0000000000    -6.2080221481
<S|| Hso(L0) ||S'> =     0.0000000000    -0.0000000000
<S|| Hso(L+) ||S'> =    -0.0000000000     6.2080221481
 2-elec mean-field SOC matrix (cm-1): < B(S,Sz) | Hso(2e-mf) | A(S',Sz') >
                     |Sz'=-0.50>              |Sz'= 0.50>
 <Sz=-0.50|    0.000000   -0.000000i     0.000000   -5.068829i
 <Sz= 0.50|   -0.000000   -5.068829i    -0.000000    0.000000i
 Total mean-field SOC matrix (cm-1): < B(S,Sz) | Hsomf | A(S',Sz') >
                     |Sz'=-0.50>              |Sz'= 0.50>
 <Sz=-0.50|    0.000000    0.000000i    -0.000000    8.979802i
 <Sz= 0.50|    0.000000    8.979802i     0.000000   -0.000000i
Mean-Field SOCC =    12.699357649 cm-1
   
**************************************************
State A: Root  2
State B: Root  6
  
Angular momentum components
< B | Lx | A > =    -0.000000000i
< B | Ly | A > =     0.000000000i
< B | Lz | A > =    -0.000000000i
  
Norm of one-particle transition density matrix
||gamma^AB||_total       =  0.269257
||gamma^AB||_symmetrized =  0.190953
||gamma^AB||_anti-symm   =  0.189833
  
Spin-orbit couplings
 Using HF (reference) density for the 2-elec mean-field SOC contribution
KET: S',Sz' (Root   2) =  0.500 0.500
BRA: S ,Sz  (Root   6) =  0.500 0.500
Clebsh-Gordan coefficient: < 0.500, 0.500; 1.000, 0.000| 0.500, 0.500> = -0.577
 Reading 1e-SO integrals
 1e Reduced matrix elements (cm-1)
<S|| Hso(L-) ||S'> =     0.0000000000     0.0000000000
<S|| Hso(L0) ||S'> =     0.0000000000     0.0000000000
<S|| Hso(L+) ||S'> =     0.0000000000    -0.0000000000
 1-elec SOC matrix (cm-1): < B(S,Sz) | Hso(1e) | A(S',Sz') >
                     |Sz'=-0.50>              |Sz'= 0.50>
 <Sz=-0.50|    0.000000    0.000000i    -0.000000    0.000000i
 <Sz= 0.50|    0.000000    0.000000i     0.000000   -0.000000i
1-elec SOCC =     0.000000000 cm-1
 Reading 2e-SOMF integrals
 2e-SOMF Reduced matrix elements (cm-1)
<S|| Hso(L-) ||S'> =    -0.0000000000    -0.0000000000
<S|| Hso(L0) ||S'> =     0.0000000000    -0.0000000000
<S|| Hso(L+) ||S'> =    -0.0000000000     0.0000000000
 2-elec mean-field SOC matrix (cm-1): < B(S,Sz) | Hso(2e-mf) | A(S',Sz') >
                     |Sz'=-0.50>              |Sz'= 0.50>
 <Sz=-0.50|    0.000000   -0.000000i     0.000000   -0.000000i
 <Sz= 0.50|   -0.000000   -0.000000i    -0.000000    0.000000i
 Total mean-field SOC matrix (cm-1): < B(S,Sz) | Hsomf | A(S',Sz') >
                     |Sz'=-0.50>              |Sz'= 0.50>
 <Sz=-0.50|    0.000000    0.000000i    -0.000000    0.000000i
 <Sz= 0.50|    0.000000    0.000000i     0.000000   -0.000000i
Mean-Field SOCC =     0.000000000 cm-1
   
**************************************************
State A: Root  2
State B: Root  7
  
Angular momentum components
< B | Lx | A > =    -0.000000000i
< B | Ly | A > =     0.000000000i
< B | Lz | A > =     0.000000077i
  
Norm of one-particle transition density matrix
||gamma^AB||_total       =  0.761391
||gamma^AB||_symmetrized =  0.543492
||gamma^AB||_anti-symm   =  0.533229
  
Spin-orbit couplings
 Using HF (reference) density for the 2-elec mean-field SOC contribution
KET: S',Sz' (Root   2) =  0.500 0.500
BRA: S ,Sz  (Root   7) =  1.500 0.500
Clebsh-Gordan coefficient: < 0.500, 0.500; 1.000, 0.000| 1.500, 0.500> =  0.816
 Reading 1e-SO integrals
 1e Reduced matrix elements (cm-1)
<S|| Hso(L-) ||S'> =    -0.0000000000    -0.0000000000
<S|| Hso(L0) ||S'> =     0.0000000000    99.6112463458
<S|| Hso(L+) ||S'> =    -0.0000000000     0.0000000000
 1-elec SOC matrix (cm-1): < B(S,Sz) | Hso(1e) | A(S',Sz') >
                     |Sz'=-0.50>              |Sz'= 0.50>
 <Sz=-1.50|   -0.000000    0.000000i     0.000000    0.000000i
 <Sz=-0.50|    0.000000   81.332242i    -0.000000    0.000000i
 <Sz= 0.50|   -0.000000   -0.000000i    -0.000000   81.332242i
 <Sz= 1.50|    0.000000    0.000000i    -0.000000   -0.000000i
1-elec SOCC =   115.021159784 cm-1
 Reading 2e-SOMF integrals
 2e-SOMF Reduced matrix elements (cm-1)
<S|| Hso(L-) ||S'> =     0.0000000000     0.0000000000
<S|| Hso(L0) ||S'> =     0.0000000000   -33.3403882340
<S|| Hso(L+) ||S'> =     0.0000000000    -0.0000000000
 2-elec mean-field SOC matrix (cm-1): < B(S,Sz) | Hso(2e-mf) | A(S',Sz') >
                     |Sz'=-0.50>              |Sz'= 0.50>
 <Sz=-1.50|    0.000000   -0.000000i     0.000000    0.000000i
 <Sz=-0.50|   -0.000000  -27.222313i     0.000000   -0.000000i
 <Sz= 0.50|    0.000000    0.000000i     0.000000  -27.222313i
 <Sz= 1.50|    0.000000    0.000000i     0.000000    0.000000i
 Total mean-field SOC matrix (cm-1): < B(S,Sz) | Hsomf | A(S',Sz') >
                     |Sz'=-0.50>              |Sz'= 0.50>
 <Sz=-1.50|   -0.000000    0.000000i     0.000000    0.000000i
 <Sz=-0.50|    0.000000   54.109929i    -0.000000    0.000000i
 <Sz= 0.50|   -0.000000   -0.000000i    -0.000000   54.109929i
 <Sz= 1.50|    0.000000    0.000000i    -0.000000   -0.000000i
Mean-Field SOCC =    76.522995541 cm-1
   
**************************************************
State A: Root  2
State B: Root  8
  
Angular momentum components
< B | Lx | A > =     0.073654273i
< B | Ly | A > =    -0.000000000i
< B | Lz | A > =    -0.000000000i
  
Norm of one-particle transition density matrix
||gamma^AB||_total       =  0.638082
||gamma^AB||_symmetrized =  0.453099
||gamma^AB||_anti-symm   =  0.449277
  
Spin-orbit couplings
 Using HF (reference) density for the 2-elec mean-field SOC contribution
KET: S',Sz' (Root   2) =  0.500 0.500
BRA: S ,Sz  (Root   8) =  0.500 0.500
Clebsh-Gordan coefficient: < 0.500, 0.500; 1.000, 0.000| 0.500, 0.500> = -0.577
 Reading 1e-SO integrals
 1e Reduced matrix elements (cm-1)
<S|| Hso(L-) ||S'> =    -0.0000000000    39.8040603403
<S|| Hso(L0) ||S'> =     0.0000000000     0.0000000000
<S|| Hso(L+) ||S'> =    -0.0000000000   -39.8040603403
 1-elec SOC matrix (cm-1): < B(S,Sz) | Hso(1e) | A(S',Sz') >
                     |Sz'=-0.50>              |Sz'= 0.50>
 <Sz=-0.50|    0.000000    0.000000i     0.000000   32.499879i
 <Sz= 0.50|   -0.000000   32.499879i    -0.000000   -0.000000i
1-elec SOCC =    45.961769905 cm-1
 Reading 2e-SOMF integrals
 2e-SOMF Reduced matrix elements (cm-1)
<S|| Hso(L-) ||S'> =     0.0000000000   -13.8904307501
<S|| Hso(L0) ||S'> =     0.0000000000    -0.0000000000
<S|| Hso(L+) ||S'> =     0.0000000000    13.8904307501
 2-elec mean-field SOC matrix (cm-1): < B(S,Sz) | Hso(2e-mf) | A(S',Sz') >
                     |Sz'=-0.50>              |Sz'= 0.50>
 <Sz=-0.50|    0.000000   -0.000000i    -0.000000  -11.341489i
 <Sz= 0.50|    0.000000  -11.341489i     0.000000    0.000000i
 Total mean-field SOC matrix (cm-1): < B(S,Sz) | Hsomf | A(S',Sz') >
                     |Sz'=-0.50>              |Sz'= 0.50>
 <Sz=-0.50|    0.000000    0.000000i     0.000000   21.158390i
 <Sz= 0.50|   -0.000000   21.158390i    -0.000000   -0.000000i
Mean-Field SOCC =    29.922482039 cm-1
   
**************************************************
State A: Root  2
State B: Root  9
  
Angular momentum components
< B | Lx | A > =    -0.000000000i
< B | Ly | A > =    -0.000000000i
< B | Lz | A > =    -0.303372219i
  
Norm of one-particle transition density matrix
||gamma^AB||_total       =  0.929576
||gamma^AB||_symmetrized =  0.652261
||gamma^AB||_anti-symm   =  0.662320
  
Spin-orbit couplings
 Using HF (reference) density for the 2-elec mean-field SOC contribution
KET: S',Sz' (Root   2) =  0.500 0.500
BRA: S ,Sz  (Root   9) =  0.500 0.500
Clebsh-Gordan coefficient: < 0.500, 0.500; 1.000, 0.000| 0.500, 0.500> = -0.577
 Reading 1e-SO integrals
 1e Reduced matrix elements (cm-1)
<S|| Hso(L-) ||S'> =     0.0000000000    -0.0000000000
<S|| Hso(L0) ||S'> =     0.0000000000   -32.8097337007
<S|| Hso(L+) ||S'> =     0.0000000000     0.0000000000
 1-elec SOC matrix (cm-1): < B(S,Sz) | Hso(1e) | A(S',Sz') >
                     |Sz'=-0.50>              |Sz'= 0.50>
 <Sz=-0.50|    0.000000  -18.942709i    -0.000000   -0.000000i
 <Sz= 0.50|    0.000000   -0.000000i     0.000000   18.942709i
1-elec SOCC =    26.789035388 cm-1
 Reading 2e-SOMF integrals
 2e-SOMF Reduced matrix elements (cm-1)
<S|| Hso(L-) ||S'> =    -0.0000000000     0.0000000000
<S|| Hso(L0) ||S'> =     0.0000000000    11.0846514889
<S|| Hso(L+) ||S'> =    -0.0000000000    -0.0000000000
 2-elec mean-field SOC matrix (cm-1): < B(S,Sz) | Hso(2e-mf) | A(S',Sz') >
                     |Sz'=-0.50>              |Sz'= 0.50>
 <Sz=-0.50|    0.000000    6.399727i     0.000000    0.000000i
[...]
     2    6.088176654242e-15
     3   -2.206379911373e-15
     4   -9.234937637334e-01
     5    2.055952529285e-16
     6   -1.197067900252e-14
     7    3.851791937598e-15
     8    1.064019747224e+00
     9   -3.151474089135e-15
    10    6.075446628188e-17
    11    2.979141484926e-15
    12    2.056352452574e-15
    13   -1.476294672256e-16
    14   -2.527589399643e-18
    15   -2.500516348860e-02
    16   -8.132094057836e-15
    17    1.028569479210e-14
    18   -6.821091760302e-15
    19    3.725297610000e-15
Sym=X
Ene= 0.926046
Spin=Alpha
Occup=0
     1   -4.427984403055e-15
     2   -5.735795398931e-14
     3   -9.819021733427e-01
     4    2.796442277777e-15
     5    2.803400682157e-14
     6    1.512188088605e-13
     7    1.634467153343e+00
     8   -3.233917852414e-15
     9   -5.938035465177e-14
    10   -3.013279950371e-14
    11   -1.207764546996e-14
    12   -1.782651355714e-14
    13    5.780832169889e-16
    14    3.733127613649e-02
    15   -1.207071088989e-16
    16   -1.683309393488e-02
    17    8.904317889984e-01
    18    1.683309393484e-02
    19   -8.904317889985e-01
Sym=X
Ene= 0.998648
Spin=Alpha
Occup=0
     1   -8.088108809703e-02
     2   -1.448135866030e+00
     3    4.350485958623e-14
     4   -6.427320398262e-16
     5    4.762700342195e-01
     6    3.519388939108e+00
     7   -7.864921020015e-14
     8    7.637333151560e-16
     9   -1.064288323819e+00
    10   -6.511514291817e-01
    11   -2.985925900172e-01
    12   -3.716819987050e-01
    13   -1.440099748513e-15
    14   -2.591199948463e-15
    15    3.306505275976e-16
    16   -2.347704395993e-01
    17   -8.040568771414e-01
    18   -2.347704395993e-01
    19   -8.040568771413e-01
Sym=X
Ene= 1.504398
Spin=Alpha
Occup=0
     1    1.196558482385e-02
     2    8.802539189466e-02
     3   -1.754799553335e-15
     4    1.235247750238e-16
     5   -4.234774735547e-02
     6   -2.800171276279e-01
     7    4.746360511519e-15
     8   -8.009683186992e-16
     9    1.396240190490e-01
    10   -4.893264717714e-01
    11   -4.353244941623e-01
    12    1.030654987457e+00
    13   -4.877992631327e-14
    14    6.856841779794e-16
    15   -2.167169141343e-14
    16    8.083226110563e-02
    17    4.602364947609e-02
    18    8.083226110563e-02
    19    4.602364947609e-02
Sym=X
Ene= 1.562242
Spin=Alpha
Occup=0
     1    3.686601001221e-16
     2    5.617192478264e-16
     3    7.775321673278e-16
     4   -1.782641450495e-16
     5   -1.524366861298e-15
     6   -4.559931460260e-15
     7   -1.886521236267e-15
     8    3.111430311062e-16
     9    5.050302659182e-15
    10   -2.618100881685e-14
    11   -2.210878765947e-14
    12    4.970680605810e-14
    13    1.000000000000e+00
    14   -2.258854999896e-17
    15    1.230360861990e-15
    16    3.190801958887e-15
    17   -3.939460185602e-16
    18    4.088718717083e-15
    19    7.072550240432e-16
Sym=X
Ene= 1.558177
Spin=Alpha
Occup=0
     1    5.559132767733e-16
     2    3.669808295351e-15
     3    5.705554312204e-17
     4   -6.552032512616e-03
     5   -1.650532302347e-15
     6   -1.250586725967e-14
     7   -5.366760709875e-16
     8    3.733902312935e-02
     9    5.963544826540e-15
    10   -1.252995360332e-14
    11   -6.521663307503e-15
    12    2.355876818024e-14
    13   -1.284529662870e-15
    14    6.750047993614e-16
    15    9.994039517408e-01
    16    3.546482087751e-15
    17    2.132354168449e-15
    18    4.198217172324e-15
    19    2.603128933568e-15
Sym=X
Ene= 2.108927
Spin=Alpha
Occup=0
     1   -4.937561491478e-02
     2   -4.884359560578e-01
     3    7.600953142456e-17
     4    2.790806035455e-16
     5    7.678566476978e-02
     6    1.401515540380e+00
     7    1.899132734955e-15
     8   -2.587152375249e-16
     9   -6.495289722404e-01
    10    8.084332650124e-01
    11   -1.073327172592e+00
    12   -5.781342982133e-02
    13    3.699149312981e-16
    14   -2.965197491163e-15
    15    3.483915031582e-15
    16   -7.750131888077e-01
    17   -1.005776674088e-01
    18   -7.750131888077e-01
    19   -1.005776674088e-01
Sym=X
Ene= 2.369391
Spin=Alpha
Occup=0
     1    3.297613677678e-16
     2   -3.088418329308e-15
     3    6.969385065577e-02
     4    2.040959022835e-16
     5    8.767781404148e-16
     6    3.297621511052e-15
     7   -8.767967301829e-01
     8   -2.312760928848e-16
     9   -3.176255660550e-15
    10    2.932202000308e-15
    11   -1.034448636381e-15
    12    1.515006999861e-15
    13    3.017280381332e-17
    14    1.226950469019e+00
    15   -5.877761843324e-16
    16   -9.091284998773e-01
    17    4.885946944010e-02
    18    9.091284998773e-01
    19   -4.885946944010e-02
Sym=X
Ene= 3.465134
Spin=Alpha
Occup=0
     1   -4.635219038002e-01
     2    3.075293826147e-01
     3    9.987526338070e-16
     4   -2.952170763406e-16
     5    9.565624660789e-02
     6    3.624240694334e+00
     7   -4.653957681005e-15
     8    3.033495177106e-16
     9   -3.017024067552e-01
    10   -1.516027377187e+00
    11   -1.574387032652e+00
    12   -1.536694676791e+00
    13   -1.202617881537e-16
    14    1.583636392935e-15
    15    3.761951101972e-16
    16    1.127882943705e-01
    17   -5.382432446530e-01
    18    1.127882943705e-01
    19   -5.382432446530e-01

======= END OF MOLDEN-FORMAT MOLECULAR ORBITALS =======

          Ground-State Mulliken Net Atomic Charges

     Atom                 Charge (a.u.)
  ----------------------------------------
      1 O                    -0.268895
      2 H                     0.634448
      3 H                     0.634448
  ----------------------------------------
  Sum of atomic charges =     1.000000

 -----------------------------------------------------------------
                    Cartesian Multipole Moments
 -----------------------------------------------------------------
    Charge (ESU x 10^10)
                 4.8032
    Dipole Moment (Debye)
         X       0.0000      Y       0.0000      Z      -2.0099
       Tot       2.0099
    Quadrupole Moments (Debye-Ang)
        XX      -1.5180     XY       0.0000     YY      -5.9256
        XZ      -0.0000     YZ       0.0000     ZZ      -3.2653
    Octopole Moments (Debye-Ang^2)
       XXX       0.0000    XXY      -0.0000    XYY       0.0000
       YYY       0.0000    XXZ      -2.1799    XYZ      -0.0000
       YYZ      -0.3203    XZZ       0.0000    YZZ      -0.0000
       ZZZ      -1.2701
    Hexadecapole Moments (Debye-Ang^3)
      XXXX      -2.1487   XXXY       0.0000   XXYY      -1.4974
      XYYY       0.0000   YYYY      -3.9536   XXXZ      -0.0000
      XXYZ       0.0000   XYYZ      -0.0000   YYYZ       0.0000
      XXZZ      -0.4171   XYZZ       0.0000   YYZZ      -1.2360
      XZZZ      -0.0000   YZZZ       0.0000   ZZZZ      -3.0573
 -----------------------------------------------------------------
 Mayer SCF Bond Order, atomic valence on the diagonal:

            1           2           3
    1   1.1567482   0.5783741   0.5783741
    2   0.5783741   0.5859643   0.0075902
    3   0.5783741   0.0075902   0.5859643


 Total job time:  47.88s(wall), 12.66s(cpu) 
 Thu Dec 22 12:38:16 2022

======= MOLDEN-FORMATTED INPUT FILE FOLLOWS =======
[Molden Format]
[Atoms] (Angs)
  O      1    8      0.00000000      0.00000000      0.11555121
  H      2    1     -0.81253118     -0.00000000     -0.46220486
  H      3    1      0.81253118     -0.00000000     -0.46220486
[GTO]
1    0
S    6    1.000000
   5.48467170E+03    1.83110000E-03 
   8.25234950E+02    1.39501000E-02 
   1.88046960E+02    6.84451000E-02 
   5.29645000E+01    2.32714300E-01 
   1.68975700E+01    4.70193000E-01 
   5.79963530E+00    3.58520900E-01 
SP   3    1.000000
   1.55396160E+01   -1.10777500E-01   7.08743000E-02 
   3.59993360E+00   -1.48026300E-01   3.39752800E-01 
   1.01376180E+00    1.13076700E+00   7.27158600E-01 
SP   1    1.000000
   2.70005800E-01    1.00000000E+00   1.00000000E+00 
D    1    1.000000
   8.00000000E-01    1.00000000E+00 

2    0
S    3    1.000000
   1.87311370E+01    3.34946000E-02 
   2.82539370E+00    2.34726950E-01 
   6.40121700E-01    8.13757330E-01 
S    1    1.000000
   1.61277800E-01    1.00000000E+00 

3    0
S    3    1.000000
   1.87311370E+01    3.34946000E-02 
   2.82539370E+00    2.34726950E-01 
   6.40121700E-01    8.13757330E-01 
S    1    1.000000
   1.61277800E-01    1.00000000E+00 

[MO]
Sym=X
Ene= -21.115622
Spin=Alpha
Occup=1
     1    9.946733653615e-01
     2    2.085487582851e-02
     3   -1.764896865302e-17
     4    1.335464287386e-17
     5   -2.987778358939e-04
     6    4.646576344666e-03
     7    7.443151454372e-18
     8   -1.960938805837e-17
     9   -2.716250001493e-04
    10   -4.270637696765e-03
    11   -4.011724184638e-03
    12   -4.532215839286e-03
    13    1.379362928632e-18
    14   -4.850251805404e-17
    15    1.282689815484e-17
    16    3.445787560281e-04
    17   -4.470901691892e-04
    18    3.445787560282e-04
    19   -4.470901691893e-04
Sym=X
Ene= -1.845694
Spin=Alpha
Occup=1
     1   -2.112511800573e-01
     2    5.063370817687e-01
     3   -6.070500590464e-16
     4   -1.885175483820e-17
     5   -1.175001404068e-01
     6    4.301083073386e-01
     7   -5.424950165856e-16
     8   -1.762131585120e-16
     9   -7.573644973690e-02
    10    3.716575484687e-02
    11    1.908619120796e-03
    12    2.108477760110e-02
    13   -1.973408745841e-17
    14    1.154881750024e-17
    15    2.533575101748e-17
    16    1.207278413906e-01
    17   -1.421113956916e-02
    18    1.207278413906e-01
    19   -1.421113956915e-02
Sym=X
Ene= -1.190640
Spin=Alpha
Occup=1
     1   -2.306551492018e-16
     2    5.465627139847e-16
     3    5.659955755949e-01
     4    1.239519328018e-16
     5   -4.508338464384e-16
     6   -2.224875366157e-15
     7    3.316767140951e-01
     8    5.531842899446e-17
     9    5.559996350138e-16
    10    3.101649850675e-16
    11    3.258590954660e-16
    12    2.838790937771e-16
    13   -1.963927796407e-17
    14   -4.548370307933e-02
    15   -7.727719786594e-18
    16   -2.158116533545e-01
    17   -3.018395061337e-02
    18    2.158116533545e-01
    19    3.018395061337e-02
Sym=X
Ene= -1.007528
Spin=Alpha
Occup=1
     1    1.118785286485e-16
     2    2.037242192001e-17
     3   -1.022867852085e-16
     4    6.950990248140e-01
     5   -2.982251352173e-16
     6   -2.560474216379e-16
     7    2.900224614477e-17
     8    4.500156552273e-01
     9   -1.436756248290e-16
    10    1.591612116114e-17
    11    3.210606357413e-17
    12    3.857989416045e-17
    13    1.299693416786e-17
    14    9.428815885450e-19
    15   -2.380090428335e-02
    16    2.321395316354e-16
    17    2.012483055695e-16
    18    6.905010088420e-17
    19   -1.340448844842e-17
Sym=X
Ene= -1.174438
Spin=Alpha
Occup=1
     1   -7.055878877351e-02
     2    2.118949416271e-01
     3   -2.215136187748e-14
     4    6.096258423365e-16
     5    6.513810272859e-01
     6    1.613110466820e-01
     7   -4.305401744465e-14
     8    4.073334296871e-16
     9    3.640654872138e-01
    10   -1.953803804007e-03
    11    1.243296650495e-02
    12   -6.148910484734e-03
    13    3.341629160631e-18
    14    9.969891030514e-17
    15   -1.050588512863e-17
    16   -1.135603958977e-01
    17   -2.362558207378e-02
    18   -1.135603958977e-01
    19   -2.362558207363e-02
Sym=X
Ene= -0.133334
Spin=Alpha
Occup=0
     1   -9.770762886903e-02
     2    1.472074993273e-01
     3   -8.990231851661e-16
     4    1.603180581473e-16
     5   -2.165077117580e-01
     6    1.160460296234e+00
     7   -1.552298531363e-15
     8   -1.160563952066e-16
     9   -4.153471227658e-01
    10   -3.909419037005e-02
    11   -3.479487377324e-02
    12   -2.316749578519e-02
    13    6.267900901117e-17
    14   -2.308670155134e-16
    15   -5.554248982017e-17
    16   -1.306874800545e-01
    17   -9.381840788702e-01
    18   -1.306874800545e-01
    19   -9.381840788702e-01
Sym=X
Ene= -0.052475
Spin=Alpha
Occup=0
     1   -5.969159809497e-15
     2    3.869985560968e-15
     3    3.704469296119e-01
     4   -4.057189627330e-17
     5    4.012009291826e-14
     6    4.434597537511e-14
     7    7.232614791882e-01
     8    4.353869067768e-17
     9    1.559215664998e-14
    10   -6.403326128449e-15
    11   -5.289572312617e-15
    12   -6.305364422664e-15
    13    8.001257468811e-18
    14    4.376735177003e-03
    15   -5.131139030467e-17
    16    1.420629058104e-01
    17    1.205425405204e+00
    18   -1.420629058104e-01
    19   -1.205425405204e+00
Sym=X
Ene= 0.599134
Spin=Alpha
Occup=0
     1    7.149811605084e-16
     2    1.593660770008e-14
     3    1.515242806087e-01
     4   -6.250402848804e-16
     5    1.497470041197e-14
     6   -3.415562629433e-14
     7    3.899419819577e-01
     8    7.157966337285e-16
     9   -1.612637505173e-14
    10    7.397688988898e-15
    11    6.174238122334e-15
    12    5.534357774436e-15
    13    5.390121745154e-17
    14    2.407778539281e-01
    15   -1.124975648737e-16
    16    8.173298963451e-01
    17   -6.721375650306e-01
    18   -8.173298963451e-01
    19    6.721375650306e-01
Sym=X
Ene= 0.658425
Spin=Alpha
Occup=0
     1    4.307859518438e-02
     2   -2.032724437594e-01
     3   -5.233609736421e-15
     4   -6.762806519568e-15
     5    4.147658867322e-01
     6    2.260039871131e-01
     7    2.677944869129e-15
     8    7.798375291312e-15
     9   -6.986902090573e-02
    10    1.849173657199e-01
    11   -1.792457850041e-01
    12   -3.916588996650e-02
    13    6.726505535150e-17
    14   -8.437576356557e-16
    15   -1.396386194323e-16
    16    8.252423068237e-01
    17   -5.972729913669e-01
    18    8.252423068237e-01
    19   -5.972729913669e-01
Sym=X
Ene= 0.653752
Spin=Alpha
Occup=0
     1   -1.378814393345e-02
     2   -7.761216953043e-01
     3   -8.174324262887e-15
     4   -4.468379621262e-15
     5   -6.964311415561e-01
     6    1.466500181947e+00
     7    2.372629514882e-14
     8    5.203753981790e-15
     9    8.766463859853e-01
    10   -1.919345467077e-01
    11   -2.743086033361e-01
    12   -2.846755988019e-01
    13   -2.960089637544e-16
    14    5.413964421858e-15
    15   -3.453668906674e-16
    16    2.031210549320e-01
    17   -2.514498162888e-01
    18    2.031210549320e-01
    19   -2.514498162888e-01
Sym=X
Ene= 0.719878
Spin=Alpha
Occup=0
     1   -1.266896140968e-16
     2    6.088176654242e-15
     3   -2.206379911373e-15
     4   -9.234937637334e-01
     5    2.055952529285e-16
     6   -1.197067900252e-14
     7    3.851791937598e-15
     8    1.064019747224e+00
     9   -3.151474089135e-15
    10    6.075446628188e-17
    11    2.979141484926e-15
    12    2.056352452574e-15
    13   -1.476294672256e-16
    14   -2.527589399643e-18
    15   -2.500516348860e-02
    16   -8.132094057836e-15
    17    1.028569479210e-14
    18   -6.821091760302e-15
    19    3.725297610000e-15
Sym=X
Ene= 0.926046
Spin=Alpha
Occup=0
     1   -4.427984403055e-15
     2   -5.735795398931e-14
     3   -9.819021733427e-01
     4    2.796442277777e-15
     5    2.803400682157e-14
     6    1.512188088605e-13
     7    1.634467153343e+00
     8   -3.233917852414e-15
     9   -5.938035465177e-14
    10   -3.013279950371e-14
    11   -1.207764546996e-14
    12   -1.782651355714e-14
    13    5.780832169889e-16
    14    3.733127613649e-02
    15   -1.207071088989e-16
    16   -1.683309393488e-02
    17    8.904317889984e-01
    18    1.683309393484e-02
    19   -8.904317889985e-01
Sym=X
Ene= 0.998648
Spin=Alpha
Occup=0
     1   -8.088108809703e-02
     2   -1.448135866030e+00
     3    4.350485958623e-14
     4   -6.427320398262e-16
     5    4.762700342195e-01
     6    3.519388939108e+00
     7   -7.864921020015e-14
     8    7.637333151560e-16
     9   -1.064288323819e+00
    10   -6.511514291817e-01
    11   -2.985925900172e-01
    12   -3.716819987050e-01
    13   -1.440099748513e-15
    14   -2.591199948463e-15
    15    3.306505275976e-16
    16   -2.347704395993e-01
    17   -8.040568771414e-01
    18   -2.347704395993e-01
    19   -8.040568771413e-01
Sym=X
Ene= 1.504398
Spin=Alpha
Occup=0
     1    1.196558482385e-02
     2    8.802539189466e-02
     3   -1.754799553335e-15
     4    1.235247750238e-16
     5   -4.234774735547e-02
     6   -2.800171276279e-01
     7    4.746360511519e-15
     8   -8.009683186992e-16
     9    1.396240190490e-01
    10   -4.893264717714e-01
    11   -4.353244941623e-01
    12    1.030654987457e+00
    13   -4.877992631327e-14
    14    6.856841779794e-16
    15   -2.167169141343e-14
    16    8.083226110563e-02
    17    4.602364947609e-02
    18    8.083226110563e-02
    19    4.602364947609e-02
Sym=X
Ene= 1.562242
Spin=Alpha
Occup=0
     1    3.686601001221e-16
     2    5.617192478264e-16
     3    7.775321673278e-16
     4   -1.782641450495e-16
     5   -1.524366861298e-15
     6   -4.559931460260e-15
     7   -1.886521236267e-15
     8    3.111430311062e-16
     9    5.050302659182e-15
    10   -2.618100881685e-14
    11   -2.210878765947e-14
    12    4.970680605810e-14
    13    1.000000000000e+00
    14   -2.258854999896e-17
    15    1.230360861990e-15
    16    3.190801958887e-15
    17   -3.939460185602e-16
    18    4.088718717083e-15
    19    7.072550240432e-16
Sym=X
Ene= 1.558177
Spin=Alpha
Occup=0
     1    5.559132767733e-16
     2    3.669808295351e-15
     3    5.705554312204e-17
     4   -6.552032512616e-03
     5   -1.650532302347e-15
     6   -1.250586725967e-14
     7   -5.366760709875e-16
     8    3.733902312935e-02
     9    5.963544826540e-15
    10   -1.252995360332e-14
    11   -6.521663307503e-15
    12    2.355876818024e-14
    13   -1.284529662870e-15
    14    6.750047993614e-16
    15    9.994039517408e-01
    16    3.546482087751e-15
    17    2.132354168449e-15
    18    4.198217172324e-15
    19    2.603128933568e-15
Sym=X
Ene= 2.108927
Spin=Alpha
Occup=0
     1   -4.937561491478e-02
     2   -4.884359560578e-01
     3    7.600953142456e-17
     4    2.790806035455e-16
     5    7.678566476978e-02
     6    1.401515540380e+00
     7    1.899132734955e-15
     8   -2.587152375249e-16
     9   -6.495289722404e-01
    10    8.084332650124e-01
    11   -1.073327172592e+00
    12   -5.781342982133e-02
    13    3.699149312981e-16
    14   -2.965197491163e-15
    15    3.483915031582e-15
    16   -7.750131888077e-01
    17   -1.005776674088e-01
    18   -7.750131888077e-01
    19   -1.005776674088e-01
Sym=X
Ene= 2.369391
Spin=Alpha
Occup=0
     1    3.297613677678e-16
     2   -3.088418329308e-15
     3    6.969385065577e-02
     4    2.040959022835e-16
     5    8.767781404148e-16
     6    3.297621511052e-15
     7   -8.767967301829e-01
     8   -2.312760928848e-16
     9   -3.176255660550e-15
    10    2.932202000308e-15
    11   -1.034448636381e-15
    12    1.515006999861e-15
    13    3.017280381332e-17
    14    1.226950469019e+00
    15   -5.877761843324e-16
    16   -9.091284998773e-01
    17    4.885946944010e-02
    18    9.091284998773e-01
    19   -4.885946944010e-02
Sym=X
Ene= 3.465134
Spin=Alpha
Occup=0
     1   -4.635219038002e-01
     2    3.075293826147e-01
     3    9.987526338070e-16
     4   -2.952170763406e-16
     5    9.565624660789e-02
     6    3.624240694334e+00
     7   -4.653957681005e-15
     8    3.033495177106e-16
     9   -3.017024067552e-01
    10   -1.516027377187e+00
    11   -1.574387032652e+00
    12   -1.536694676791e+00
    13   -1.202617881537e-16
    14    1.583636392935e-15
    15    3.761951101972e-16
    16    1.127882943705e-01
    17   -5.382432446530e-01
    18    1.127882943705e-01
    19   -5.382432446530e-01

======= END OF MOLDEN-FORMATTED INPUT FILE =======


        *************************************************************
        *                                                           *
        *  Thank you very much for using Q-Chem.  Have a nice day.  *
        *                                                           *
        *************************************************************


