                  Welcome to Q-Chem
     A Quantum Leap Into The Future Of Chemistry


 Q-Chem 6.0 (devel), Q-Chem, Inc., Pleasanton, CA (2022)

 E. Epifanovsky,  A. T. B. Gilbert,  Xintian Feng,  Joonho Lee,  Yuezhi Mao,  
 N. Mardirossian,  P. Pokhilko,  A. White,  M. Wormit,  M. P. Coons,  
 A. L. Dempwolff,  Zhengting Gan,  D. Hait,  P. R. Horn,  L. D. Jacobson,  
 I. Kaliman,  J. Kussmann,  A. W. Lange,  Ka Un Lao,  D. S. Levine,  Jie Liu,  
 S. C. McKenzie,  A. F. Morrison,  K. Nanda,  F. Plasser,  D. R. Rehn,  
 M. L. Vidal,  Zhi-Qiang You,  Ying Zhu,  B. Alam,  B. Albrecht,  
 A. Aldossary,  E. Alguire,  J. H. Andersen,  V. Athavale,  D. Barton,  
 K. Begam,  A. Behn,  N. Bellonzi,  Y. A. Bernard,  E. J. Berquist,  
 H. Burton,  A. Carreras,  K. Carter-Fenk,  Romit Chakraborty,  
 Chandrima Chakravarty,  Junhan Chen,  A. D. Chien,  K. D. Closser,  
 V. Cofer-Shabica,  L. Cunha,  S. Dasgupta,  Jia Deng,  M. de Wergifosse,  
 M. Diedenhofen,  Hainam Do,  S. Ehlert,  Po-Tung Fang,  S. Fatehi,  
 Qingguo Feng,  T. Friedhoff,  B. Ganoe,  J. Gayvert,  Qinghui Ge,  
 G. Gidofalvi,  M. Goldey,  J. Gomes,  C. Gonzalez-Espinoza,  S. Gulania,  
 A. Gunina,  J. A. Gyamfi,  M. W. D. Hanson-Heine,  P. H. P. Harbach,  
 A. W. Hauser,  M. F. Herbst,  M. Hernandez Vera,  M. Hodecker,  
 Z. C. Holden,  S. Houck,  Xunkun Huang,  Kerwin Hui,  B. C. Huynh,  
 K. Ikeda,  M. Ivanov,  Hyunjun Ji,  Zuxin Jin,  Hanjie Jiang,  B. Kaduk,  
 S. Kaehler,  R. Kang,  K. Khistyaev,  Jaehoon Kim,  Yongbin Kim,  
 P. Klunzinger,  Z. Koczor-Benda,  Joong Hoon Koh,  D. Kosenkov,  
 Saikiran Kotaru,  L. Koulias,  T. Kowalczyk,  C. M. Krauter,  K. Kue,  
 A. Kunitsa,  T. Kus,  A. Landau,  K. V. Lawler,  D. Lefrancois,  S. Lehtola,  
 Rain Li,  Shaozhi Li,  Yi-Pei Li,  Jiashu Liang,  M. Liebenthal,  
 Hung-Hsuan Lin,  You-Sheng Lin,  Fenglai Liu,  Kuan-Yu Liu,  
 M. Loipersberger,  A. Luenser,  C. Malbon,  A. Manjanath,  P. Manohar,  
 E. Mansoor,  S. F. Manzer,  Shan-Ping Mao,  A. V. Marenich,  T. Markovich,  
 S. Mason,  F. Matz,  S. A. Maurer,  P. F. McLaughlin,  M. F. S. J. Menger,  
 J.-M. Mewes,  S. A. Mewes,  P. Morgante,  Mohammad Mostafanejad,  
 J. W. Mullinax,  K. J. Oosterbaan,  G. Paran,  V. Parravicini,  
 Alexander C. Paul,  Suranjan K. Paul,  F. Pavosevic,  Zheng Pei,  S. Prager,  
 E. I. Proynov,  E. Ramos,  B. Rana,  A. E. Rask,  A. Rettig,  R. M. Richard,  
 F. Rob,  E. Rossomme,  T. Scheele,  M. Scheurer,  M. Schneider,  
 P. E. Schneider,  N. Sergueev,  S. M. Sharada,  Hengyuan Shen,  
 W. Skomorowski,  D. W. Small,  C. J. Stein,  Yingli Su,  Yu-Chuan Su,  
 E. J. Sundstrom,  Zhen Tao,  J. Thirman,  Hung-Yi Tsai,  T. Tsuchimochi,  
 N. M. Tubman,  C. Utku,  S. P. Veccham,  O. Vydrov,  J. Wenzel,  
 Jonathan Wong,  J. Witte,  A. Yamada,  Chou-Hsun Yang,  Kun Yao,  
 S. Yeganeh,  S. R. Yost,  A. Zech,  F. Zeller,  Igor Ying Zhang,  
 Xing Zhang,  Yu Zhang,  D. Zuev,  A. Aspuru-Guzik,  A. T. Bell,  
 N. A. Besley,  K. B. Bravaya,  B. R. Brooks,  D. Casanova,  Jeng-Da Chai,  
 Hsing-Ta Chen,  S. Coriani,  C. J. Cramer,  A. E. DePrince, III,  
 R. A. DiStasio Jr.,  A. Dreuw,  B. D. Dunietz,  T. R. Furlani,  
 W. A. Goddard III,  S. Grimme,  S. Hammes-Schiffer,  T. Head-Gordon,  
 W. J. Hehre,  Chao-Ping Hsu,  T.-C. Jagau,  Yousung Jung,  A. Klamt,  
 Jing Kong,  D. S. Lambrecht,  Xiangyuan Li,  WanZhen Liang,  N. J. Mayhall,  
 C. W. McCurdy,  J. B. Neaton,  T. Neudecker,  C. Ochsenfeld,  
 J. A. Parkhill,  R. Peverati,  V. A. Rassolov,  Haisheng Ren,  Yihan Shao,  
 L. V. Slipchenko,  R. P. Steele,  J. E. Subotnik,  A. J. W. Thom,  
 A. Tkatchenko,  D. G. Truhlar,  T. Van Voorhis,  Fan Wang,  
 T. A. Wesolowski,  K. B. Whaley,  H. L. Woodcock III,  P. M. Zimmerman,  
 S. Faraji,  P. M. W. Gill,  M. Head-Gordon,  J. M. Herbert,  A. I. Krylov

 Contributors to earlier versions of Q-Chem not listed above: 
 R. D. Adamson,  B. Austin,  R. Baer,  J. Baker,  G. J. O. Beran,  
 K. Brandhorst,  S. T. Brown,  E. F. C. Byrd,  Arup K. Chakraborty,  
 G. K. L. Chan,  Chun-Min Chang,  Yunqing Chen,  C.-L. Cheng,  
 Siu Hung Chien,  D. M. Chipman,  D. L. Crittenden,  H. Dachsel,  
 R. J. Doerksen,  A. D. Dutoi,  R. G. Edgar,  J. Fosso-Tande,  
 L. Fusti-Molnar,  D. Ghosh,  A. Ghysels,  A. Golubeva-Zadorozhnaya,  
 J. Gonthier,  M. S. Gordon,  S. R. Gwaltney,  G. Hawkins,  J. E. Herr,  
 A. Heyden,  S. Hirata,  E. G. Hohenstein,  G. Kedziora,  F. J. Keil,  
 C. Kelley,  Jihan Kim,  R. A. King,  R. Z. Khaliullin,  P. P. Korambath,  
 W. Kurlancheek,  A. Laurent,  A. M. Lee,  M. S. Lee,  S. V. Levchenko,  
 Ching Yeh Lin,  D. Liotard,  E. Livshits,  R. C. Lochan,  I. Lotan,  
 L. A. Martinez-Martinez,  P. E. Maslen,  N. Nair,  D. P. O'Neill,  
 D. Neuhauser,  E. Neuscamman,  C. M. Oana,  R. Olivares-Amaya,  R. Olson,  
 T. M. Perrine,  B. Peters,  P. A. Pieniazek,  A. Prociuk,  Y. M. Rhee,  
 J. Ritchie,  M. A. Rohrdanz,  E. Rosta,  N. J. Russ,  H. F. Schaefer III,  
 M. W. Schmidt,  N. E. Schultz,  S. Sharma,  N. Shenvi,  C. D. Sherrill,  
 A. C. Simmonett,  A. Sodt,  T. Stein,  D. Stuck,  K. S. Thanthiriwatte,  
 V. Vanovschi,  L. Vogt,  Tao Wang,  A. Warshel,  M. A. Watson,  
 C. F. Williams,  Q. Wu,  X. Xu,  Jun Yang,  W. Zhang,  Yan Zhao

   Please cite Q-Chem as follows:
  "Software for the frontiers of quantum chemistry:
   An overview of developments in the Q-Chem 5 package"
   J. Chem. Phys. 155, 084801 (2021)
   https://doi.org/10.1063/5.0055522 (open access)

 Q-Chem 6.0.1 for Intel X86 EM64T Linux

 Parts of Q-Chem use Armadillo 9.900.5 (Nocturnal Misbehaviour).
 http://arma.sourceforge.net/

 Q-Chem begins on Mon Oct  9 21:50:31 2023  

 Host: atlas-009
0

     Scratch files written to ./qchem31160//
 Processing $rem in /scratch/abel/SOFTWARE/qchem/config/preferences:
 Processing $rem in /dipc/acebg/.qchemrc:

 Checking the input file for inconsistencies... 	...done.

--------------------------------------------------------------
User input:
--------------------------------------------------------------
$comment
 RAS-SF CALCULATION
$end

$molecule
 READ pentacene_opt.molecule
$end

$rem
!**CALCULATION TYPE***     
JOBTYPE            sp    
EXCHANGE           HF
CORRELATION        RASCI    !RASCI=Casanova; RASCI2=Zimmerman
BASIS              def2-TZVP

!***SCF REFERENCE***
SKIP_SCFMAN        FALSE
UNRESTRICTED       FALSE
!SCF_GUESS          core
!SCF_GUESS_MIX      FALSE
!SCF_GUESS_ALWAYS   FALSE
MAX_SCF_CYCLES     999
!SCF_CONVERGENCE    8
SCF_ALGORITHM      DIIS_GDM !DIIS,DM,DIIS_DM,GDM,DIIS_GDM,GD

!SYMMETRY           TRUE   !use of symmetry for calculating integrals
!SYM_IGNORE         FALSE  !turn off using symmetry
!SYM_TOL            5      !tolerance for determining point group
!USE_ABELIAN_SUBGROUP      !define to use abelian group

!THRESH             14
SCF_FINAL_PRINT     1 !0,1,2,3

!****RAS-SF****
RAS_ROOTS          20       !number of RAS-CI roots to be computed
SET_ITER           150     !number of iterations in RASCI
RAS_ELEC           8       !number of electrons in RAS2
!RAS_ELEC_ALPHA     8       !spin-α electrons in RAS2 
!RAS_ELEC_BETA      6       !spin-β electrons in RAS2

RAS_ACT            8       !number of orbitals in RAS2 
RAS_ACT_ORB  [70,71,72,73,74,75,76,77]  !user-selected RAS2 orbitals
RAS_OCC            69       !number of orbitals in RAS1
!N_FROZEN_CORE      27     !Number of frozen core orbitals
!N_FROZEN_VIRTUAL   401      !Number of frozen virtual orbitals

RAS_DO_HOLE        TRUE   !presence of hole excitations in RAS-CI wave function
RAS_DO_PART        TRUE   !presence of particle excitations
!RAS_AMPL_PRINT     10     !threshold (×10 2 ) for the CI amplitudes

!RAS_GUESS_CS       0      !number of closed shell guess conﬁgurations
RAS_SPIN_MULT      0      !spin multiplicity. Only for Ms = 0 
!RAS_SRDFT          FALSE  !short-range density functional RAS-CI
!RAS_NFRAG          0     !fragments of excitation analysis in RASCI

RAS_PRINT          2      !level of information
RAS_NATORB         TRUE   !computation of the natural orbital occupancies
!RAS_NATORB_STATE  0      !Saves NO of i RAS computed state in .fchk ﬁle
!RAS_FOD            TRUE

!****RAS-SOC****
CALC_SOC           TRUE   !calculate SOC for EOM-CC, RAS-CI, ADC, TDDFT/TDA and TDDFT
!RAS_SOC_2E        TRUE   !two-electron mean-ﬁeld contribution, default=true
RAS_SOC_SYM_DENS   TRUE   !averaging of α and β densities

!****MEMORY****
MEM_TOTAL          60000 !Default 2000 MB
MEM_STATIC         10000  !Default 64 MB

!**Molecular Properties and Analysis **                                                                                          
POP_MULLIKEN       TRUE   !Run Mulliken population analysis
LOWDIN_POPULATION  TRUE   !Run Löwdin population analysis
GUI                2       !Checkpoints generation
STATE_ANALYSIS     TRUE

!**Wave function analysis of RAS-CI states: MOLDEN**
!PLOTS = 0     ! Note: This can be omitted, default is 0
!NTO_PAIRS = 2 ! Note: This can be omitted, default is 2
!GUI 0
!MOLDEN_FORMAT      TRUE
!PRINT_ORBITALS     15

!**Wave function analysis of RAS-CI state: CUBE**
!NTO_PAIRS = 2 ! Note: This can be omitted, default is 2
!PLOTS = 1
!GUI 0

!**SR-DFT**
!RAS_SRDFT           TRUE !Perform short-range density functional RAS-CI
!RAS_SRDFT_EXC       0 !EX functional. 0=HF. 
!RAS_SRDFT_ONLY_COR  TRUE !No use of EXC functional
!RAS_SRDFT_COR       srPBE !short-range correlation functional
!ras_srdft_0         TRUE !true: no iteration (one-shot); false: iteration
!RAS_OMEGA           400 !Coulomb range-separation parameter. def=400
!RAS_SRDFT_DAMP     0.5 !dumping factor. def=0.5
$end

!$plots
!   grid_points 100 100 100
!   grid_range  (-10,10) (-10,10) (-10,10)
!$end

--------------------------------------------------------------
 ----------------------------------------------------------------
             Standard Nuclear Orientation (Angstroms)
    I     Atom           X                Y                Z
 ----------------------------------------------------------------
    1      C       1.2404431984    -0.7258834336     0.0009487645
    2      C       2.4464997334    -1.3964196804     0.0041206951
    3      H       2.4509965526    -2.4813131438     0.0071456533
    4      C      -0.0000000326    -1.4039614389    -0.0004482783
    5      H      -0.0000000783    -2.4881524189    -0.0006565892
    6      C      -1.2404432451    -0.7258828123    -0.0015229894
    7      C      -2.4465004925    -1.3964186022    -0.0045155874
    8      H      -2.4509978138    -2.4813115815    -0.0077087329
    9      C      -3.6908788599    -0.7103292814    -0.0030013211
   10      C      -4.9207697665    -1.3925465516    -0.0066053624
   11      H      -4.9169556554    -2.4765073871    -0.0120060886
   12      C      -6.1104565518    -0.7012290871    -0.0033340367
   13      H      -7.0495760421    -1.2388396003    -0.0063148118
   14      C      -6.1104568412     0.7012259305     0.0039628327
   15      H      -7.0495761292     1.2388351970     0.0072194399
   16      C      -4.9207705054     1.3925456798     0.0068973661
   17      H      -4.9169554510     2.4765064994     0.0123006401
   18      C      -3.6908794786     0.7103304164     0.0029690542
   19      C       3.6908782055    -0.7103297619     0.0030197036
   20      C       4.9207682440    -1.3925456563     0.0071430117
   21      H       4.9169530876    -2.4765052443     0.0127878853
   22      C       6.1104556142    -0.7012280473     0.0041247895
   23      H       7.0495743724    -1.2388370099     0.0075783807
   24      C       6.1104574514     0.7012251524    -0.0035134854
   25      H       7.0495774727     1.2388335065    -0.0067086585
   26      C       4.9207717230     1.3925441243    -0.0068499373
   27      H       4.9169574834     2.4765037194    -0.0124940658
   28      C       3.6908791051     0.7103290290    -0.0030341710
   29      C       2.4465016964     1.3964204217    -0.0043890146
   30      H       2.4509984407     2.4813138175    -0.0074382383
   31      C       1.2404432657     0.7258847692    -0.0013814180
   32      C       0.0000005073     1.4039638438    -0.0000875975
   33      H       0.0000007948     2.4881548333     0.0000638019
   34      C      -1.2404425161     0.7258850202     0.0010774075
   35      C      -2.4465005205     1.3964207926     0.0042258687
   36      H      -2.4509966388     2.4813138513     0.0073936168
 ----------------------------------------------------------------
 Molecular Point Group                 C1    NOp =  1
 Largest Abelian Subgroup              C1    NOp =  1
 Nuclear Repulsion Energy =        1498.17591199 hartrees
 There are       74 alpha and       72 beta electrons
 Requested basis set is def2-TZVP
 There are 298 shells and 766 basis functions

 Q-Chem warning in module libmdc/get_mega.C, line 167:

 Allowed MEM_STATIC has been capped at MEM_STATIC=8191.
 Reduce the value of MEM_STATIC to silence this warning.


 Total QAlloc Memory Limit  60000 MB
 Mega-Array Size      8007 MB
 MEM_STATIC part      8191 MB

 A cutoff of  1.0D-09 yielded  25585 shell pairs
 There are    164917 function pairs (    212228 Cartesian)
 Smallest overlap matrix eigenvalue = 4.73E-06

 Q-Chem warning in module stvman/mkSTV.C, line 313:

 Overlap eigenvalue is smaller than square root of threshold
 Use THRESH >= 12 to get rid of this warning


 Scale SEOQF with 1.000000e-02/1.000000e-01/1.000000e+00

 Standard Electronic Orientation quadrupole field applied
 Nucleus-field energy     =     0.0000000240 hartrees
 Guess from superposition of atomic densities
 Warning:  Energy on first SCF cycle will be non-variational
 SAD guess density has 146.000001 electrons

 -----------------------------------------------------------------------
  General SCF calculation program by
  Eric Jon Sundstrom, Paul Horn, Yuezhi Mao, Dmitri Zuev, Alec White,
  David Stuck, Shaama M.S., Shane Yost, Joonho Lee, David Small,
  Daniel Levine, Susi Lehtola, Hugh Burton, Evgeny Epifanovsky,
  Bang C. Huynh
 -----------------------------------------------------------------------
 Hartree-Fock
 Orthonormalizing orbitals
 A restricted open-shell SCF calculation will be
 performed using DIIS, GDM
 SCF converges when RMS gradient is below 1.0e-05
 ---------------------------------------
  Cycle       Energy         DIIS error
 ---------------------------------------
    1    -833.3904829056      2.62e-02  
    2    -835.4153628481      1.96e-02  
    3    -840.2133073915      6.35e-03  Done DIIS. Switching to GDM
 ---------------------------------------
  Cycle       Energy        RMS Gradient
 ---------------------------------------
    1    -840.2133073915      4.35e-01   Descent step
    2    -840.6459875065      3.01e-01   Descent step
    3    -840.9235073949      3.55e-01   Descent step
    4    -841.0812545958      2.47e-01   Descent step
    5    -841.1749684601      1.64e-01   Dog-leg BFGS step
    6    -841.2264493223      8.06e-02   Dog-leg BFGS step
    7    -841.2585476251      1.43e-01   Dog-leg BFGS step
Fro norm of D 1.035113472234e+00
transformation scaled by 2
    8    -841.3601500122      2.35e-01   Descent step
    9    -841.4646574537      1.43e-01   Dog-leg BFGS step
   10    -841.4945569253      8.87e-02   Dog-leg BFGS step
   11    -841.4926683582      9.40e-02  Line search: overstep
   12    -841.5103321230      3.91e-02   Dog-leg BFGS step
   13    -841.4802971792      1.35e-01  Line search: overstep
   14    -841.5135886700      2.60e-02   Normal BFGS step
   15    -841.5150208939      3.69e-02   Normal BFGS step
   16    -841.5191442883      2.85e-02   Normal BFGS step
   17    -841.5090347413      7.29e-02  Line search: overstep
   18    -841.5203488990      1.18e-02   Normal BFGS step
   19    -841.5205879623      1.70e-02   Normal BFGS step
   20    -841.5214252878      4.81e-03   Normal BFGS step
   21    -841.5215452086      2.12e-03   Normal BFGS step
   22    -841.5215920501      1.02e-03   Normal BFGS step
   23    -841.5216032072      5.03e-04   Normal BFGS step
   24    -841.5216055966      2.87e-04   Normal BFGS step
   25    -841.5216057674      1.17e-04   Normal BFGS step
   26    -841.5216083183      5.62e-05   Normal BFGS step
   27    -841.5216086791      2.82e-05   Normal BFGS step
   28    -841.5216104991      1.70e-05   Normal BFGS step
   29    -841.5216136615      9.31e-06  Convergence criterion met
The disked orbital energies are calculated using alpha and beta Focks
 ---------------------------------------
 Alpha HF Exchange    Energy = -60.13038957059965
 Beta HF Exchange     Energy = -59.24396700406929
 Nuclear Attraction   Energy =   0.00000000000000
 One-Electron (alpha) Energy = -2081.48238594207760
 One-Electron (beta)  Energy = -2033.26784696399682
 Total Coulomb        Energy = 1894.42706380197023
 Final Alpha MO Eigenvalues
            1           2           3           4           5           6
    1 -11.2471984 -11.2471033 -11.2463391 -11.2461978 -11.2430375 -11.2430361
            7           8           9          10          11          12
    1 -11.2419866 -11.2419854 -11.2458475 -11.2458406 -11.2388531 -11.2388578
           13          14          15          16          17          18
    1 -11.2388442 -11.2388476 -11.2349430 -11.2349426 -11.2347068 -11.2347065
           19          20          21          22          23          24
    1 -11.2335545 -11.2335541 -11.2326473 -11.2326469  -1.2024815  -1.1816948
           25          26          27          28          29          30
    1  -1.1546844  -1.1134130  -1.0844578  -1.0575979  -1.0600428  -1.0313697
           31          32          33          34          35          36
    1  -1.0113737  -0.9905816  -0.9408738  -0.9268171  -0.8504850  -0.8496538
           37          38          39          40          41          42
    1  -0.8270569  -0.8141751  -0.8155029  -0.7959159  -0.7184034  -0.7127643
           43          44          45          46          47          48
    1  -0.7100040  -0.6746172  -0.6654900  -0.6543934  -0.6338901  -0.6259805
           49          50          51          52          53          54
    1  -0.6253325  -0.6074479  -0.5943089  -0.5851387  -0.5796995  -0.5790061
           55          56          57          58          59          60
    1  -0.5718810  -0.5641982  -0.5706383  -0.5349177  -0.5432253  -0.5098940
           61          62          63          64          65          66
    1  -0.5044699  -0.5057906  -0.4860410  -0.4821332  -0.4732312  -0.4561992
           67          68          69          70          71          72
    1  -0.4356491  -0.3990499  -0.3733209  -0.3492730  -0.3244635  -0.3056046
           73          74          75          76          77          78
    1  -0.2973171  -0.2330761   0.0703569   0.0999658   0.1114286   0.1457909
           79          80          81          82          83          84
    1   0.1467166   0.1460943   0.1500033   0.1572113   0.1575787   0.1602004
           85          86          87          88          89          90
    1   0.1646609   0.1780557   0.1818185   0.1959078   0.1965213   0.2043470
           91          92          93          94          95          96
    1   0.2213609   0.2222050   0.2307738   0.2317240   0.2543058   0.2512857
           97          98          99         100         101         102
    1   0.2579900   0.2593528   0.2598681   0.2765125   0.2826388   0.2876230
          103         104         105         106         107         108
    1   0.2952842   0.2990161   0.3120249   0.3105118   0.3140193   0.3201144
          109         110         111         112         113         114
    1   0.3284374   0.3309065   0.3383379   0.3423584   0.3610100   0.3659472
          115         116         117         118         119         120
    1   0.3661952   0.3743004   0.3820857   0.3928991   0.3944417   0.4021740
          121         122         123         124         125         126
    1   0.4041207   0.4108770   0.4094712   0.4121616   0.4247005   0.4264501
          127         128         129         130         131         132
    1   0.4285759   0.4377257   0.4416800   0.4418127   0.4543505   0.4503402
          133         134         135         136         137         138
    1   0.4559304   0.4545845   0.4491780   0.4602252   0.4602181   0.4661032
          139         140         141         142         143         144
    1   0.4856331   0.4899030   0.4892508   0.4934779   0.4940239   0.4914156
          145         146         147         148         149         150
    1   0.4941478   0.5078357   0.5103479   0.5203310   0.5291067   0.5269606
          151         152         153         154         155         156
    1   0.5337074   0.5344558   0.5381424   0.5433482   0.5618331   0.5668490
          157         158         159         160         161         162
    1   0.5669353   0.5675461   0.5793639   0.5810142   0.5846770   0.5896550
          163         164         165         166         167         168
    1   0.5957233   0.6078078   0.6109845   0.6154902   0.6164640   0.6210880
          169         170         171         172         173         174
    1   0.6386020   0.6402011   0.6419348   0.6442334   0.6477280   0.6490684
          175         176         177         178         179         180
    1   0.6554693   0.6560820   0.6572877   0.6637727   0.6698727   0.6759443
          181         182         183         184         185         186
    1   0.6849066   0.6877064   0.6926431   0.7072099   0.7096660   0.7092308
          187         188         189         190         191         192
    1   0.7259659   0.7372912   0.7490310   0.7740768   0.7765857   0.7809727
          193         194         195         196         197         198
    1   0.7888169   0.7967982   0.8016653   0.8183832   0.8234881   0.8241870
          199         200         201         202         203         204
    1   0.8258977   0.8407468   0.8457460   0.8488870   0.8499154   0.8532506
          205         206         207         208         209         210
    1   0.8549197   0.8567347   0.8846320   0.8848978   0.8837078   0.8871257
          211         212         213         214         215         216
    1   0.8998776   0.9086108   0.9116971   0.9092041   0.9205541   0.9241492
          217         218         219         220         221         222
    1   0.9243982   0.9302691   0.9351419   0.9413948   0.9419804   0.9450873
          223         224         225         226         227         228
    1   0.9482942   0.9510187   0.9481240   0.9519366   0.9594724   0.9668372
          229         230         231         232         233         234
    1   0.9850493   0.9856342   1.0023949   1.0020193   1.0088441   1.0148093
          235         236         237         238         239         240
    1   1.0239625   1.0291492   1.0348166   1.0365465   1.0559674   1.0716023
          241         242         243         244         245         246
    1   1.0708251   1.0774642   1.0928448   1.0961354   1.0961698   1.1075243
          247         248         249         250         251         252
    1   1.1077111   1.1111459   1.1167390   1.1186774   1.1259833   1.1500328
          253         254         255         256         257         258
    1   1.1527472   1.1679864   1.1857118   1.1856967   1.1913189   1.1923620
          259         260         261         262         263         264
    1   1.1978400   1.1996196   1.2161581   1.2298837   1.2390866   1.2421646
          265         266         267         268         269         270
    1   1.2471560   1.2701692   1.2737893   1.3108236   1.3148590   1.3331032
          271         272         273         274         275         276
    1   1.3541461   1.3557622   1.3600353   1.3633452   1.3657190   1.3697462
          277         278         279         280         281         282
    1   1.3753616   1.3875948   1.4092273   1.4094551   1.4163705   1.4165856
          283         284         285         286         287         288
    1   1.4385487   1.4365307   1.4553683   1.4644849   1.4682604   1.4712547
          289         290         291         292         293         294
    1   1.4717313   1.4733588   1.4816611   1.4955920   1.5109519   1.5215524
          295         296         297         298         299         300
    1   1.5242184   1.5246870   1.5337284   1.5452812   1.5465485   1.5626271
          301         302         303         304         305         306
    1   1.5773463   1.5798354   1.5810457   1.5829926   1.6079323   1.6095209
          307         308         309         310         311         312
    1   1.6372531   1.6489136   1.6507996   1.6627956   1.6696071   1.6848476
          313         314         315         316         317         318
    1   1.6824341   1.6865966   1.7075609   1.7136512   1.7204439   1.7202215
          319         320         321         322         323         324
    1   1.7311002   1.7342850   1.7523640   1.7538470   1.7586349   1.7667641
          325         326         327         328         329         330
    1   1.7684890   1.7778663   1.7941421   1.8016943   1.8035002   1.8041070
          331         332         333         334         335         336
    1   1.8108073   1.8153721   1.8299678   1.8272814   1.8385214   1.8449365
          337         338         339         340         341         342
    1   1.8510733   1.8532940   1.8722641   1.8762863   1.8949727   1.9051280
          343         344         345         346         347         348
    1   1.9146589   1.9216893   1.9312154   1.9393849   1.9407334   1.9488084
          349         350         351         352         353         354
    1   1.9587509   1.9687197   1.9705593   1.9710163   1.9736608   1.9762878
          355         356         357         358         359         360
    1   1.9857987   1.9922582   1.9946872   1.9957711   2.0172555   2.0275810
          361         362         363         364         365         366
    1   2.0509643   2.0526201   2.0617549   2.0688566   2.0959971   2.1089011
          367         368         369         370         371         372
    1   2.1096288   2.1252159   2.1377059   2.1537186   2.1632723   2.1772852
          373         374         375         376         377         378
    1   2.1851228   2.1882815   2.1956943   2.1995614   2.1994623   2.2023705
          379         380         381         382         383         384
    1   2.2186530   2.2396691   2.2424071   2.2532073   2.2671311   2.2766923
          385         386         387         388         389         390
    1   2.2768803   2.2906657   2.2949298   2.3129549   2.3397920   2.3552330
          391         392         393         394         395         396
    1   2.3626624   2.3767924   2.3963547   2.4186307   2.4314312   2.4336300
          397         398         399         400         401         402
    1   2.4568207   2.4569580   2.4658440   2.4730311   2.4826812   2.4917834
          403         404         405         406         407         408
    1   2.5032629   2.5035001   2.5075239   2.5098546   2.5115534   2.5167209
          409         410         411         412         413         414
    1   2.5294478   2.5303239   2.5346286   2.5451856   2.5569823   2.5967601
          415         416         417         418         419         420
    1   2.6049944   2.6131456   2.6204563   2.6235319   2.6381656   2.6401988
          421         422         423         424         425         426
    1   2.6464002   2.6538269   2.6766623   2.6856379   2.7378803   2.7403392
          427         428         429         430         431         432
    1   2.7444773   2.7464500   2.7595424   2.7640496   2.7673947   2.7892566
          433         434         435         436         437         438
    1   2.7997030   2.8247221   2.8270978   2.8289464   2.8327249   2.8463087
          439         440         441         442         443         444
    1   2.8611332   2.8766688   2.8830206   2.8858034   2.8900716   2.8967311
          445         446         447         448         449         450
    1   2.9339544   2.9398649   2.9496201   2.9505319   2.9546970   2.9617776
          451         452         453         454         455         456
    1   2.9744675   2.9777543   2.9821342   2.9819271   2.9912845   3.0014218
          457         458         459         460         461         462
    1   3.0126179   3.0310119   3.0314438   3.0471627   3.0512907   3.0534272
          463         464         465         466         467         468
    1   3.0642639   3.0671065   3.0804055   3.0873666   3.0999238   3.1026926
          469         470         471         472         473         474
    1   3.1098932   3.1096675   3.1077830   3.1144097   3.1196545   3.1217460
          475         476         477         478         479         480
    1   3.1357046   3.1398264   3.1410588   3.1489571   3.1607530   3.1668351
          481         482         483         484         485         486
    1   3.1710240   3.1748614   3.1784342   3.1839160   3.1902600   3.1902083
          487         488         489         490         491         492
    1   3.1929146   3.1965319   3.1962100   3.2078814   3.2104864   3.2281241
          493         494         495         496         497         498
    1   3.2330195   3.2389381   3.2533433   3.2565403   3.2561838   3.2632323
          499         500         501         502         503         504
    1   3.2631519   3.2700669   3.2713122   3.2830865   3.2889498   3.2907708
          505         506         507         508         509         510
    1   3.2984164   3.2992179   3.3032868   3.3138528   3.3238627   3.3430833
          511         512         513         514         515         516
    1   3.3491794   3.3535883   3.3649814   3.3674397   3.3715141   3.3709273
          517         518         519         520         521         522
    1   3.3765446   3.3833060   3.3885269   3.3958453   3.4046345   3.4135501
          523         524         525         526         527         528
    1   3.4168445   3.4239908   3.4220318   3.4437122   3.4433917   3.4489142
          529         530         531         532         533         534
    1   3.4499075   3.4622579   3.4629092   3.4674864   3.4702982   3.4933950
          535         536         537         538         539         540
    1   3.5073675   3.5091884   3.5129925   3.5148526   3.5173356   3.5239417
          541         542         543         544         545         546
    1   3.5410116   3.5418524   3.5561589   3.5576245   3.5709932   3.5784078
          547         548         549         550         551         552
    1   3.5800564   3.5836329   3.6011098   3.6068826   3.6197136   3.6271463
          553         554         555         556         557         558
    1   3.6380813   3.6404935   3.6396876   3.6470116   3.6454980   3.6462542
          559         560         561         562         563         564
    1   3.6507956   3.6638397   3.6659197   3.6655329   3.6751492   3.6974615
          565         566         567         568         569         570
    1   3.7026131   3.7043398   3.7063753   3.7103590   3.7116014   3.7324022
          571         572         573         574         575         576
    1   3.7461346   3.7476294   3.7542722   3.7570156   3.7742968   3.7737930
          577         578         579         580         581         582
    1   3.7810862   3.7837787   3.7837704   3.7868208   3.7882328   3.8063351
          583         584         585         586         587         588
    1   3.8164167   3.8201600   3.8314692   3.8331662   3.8333089   3.8442347
          589         590         591         592         593         594
    1   3.8459081   3.8727275   3.8751867   3.8868192   3.8935980   3.8958747
          595         596         597         598         599         600
    1   3.9024139   3.9077144   3.9076295   3.9138884   3.9319547   3.9322161
          601         602         603         604         605         606
    1   3.9342635   3.9465194   3.9586656   3.9589619   3.9768261   3.9885127
          607         608         609         610         611         612
    1   4.0151116   4.0171326   4.0259896   4.0302660   4.0316883   4.0596807
          613         614         615         616         617         618
    1   4.0732836   4.0801063   4.1121770   4.1237592   4.1303891   4.1324186
          619         620         621         622         623         624
    1   4.1365716   4.1799432   4.1819346   4.1870374   4.1902007   4.2368809
          625         626         627         628         629         630
    1   4.2405806   4.2432728   4.2476552   4.2710514   4.2789187   4.2883998
          631         632         633         634         635         636
    1   4.3045519   4.3046276   4.3102380   4.3443016   4.3510066   4.3621451
          637         638         639         640         641         642
    1   4.3697526   4.3687621   4.3934265   4.4051216   4.4073816   4.4078952
          643         644         645         646         647         648
    1   4.4157920   4.4291554   4.4350332   4.4375214   4.4381193   4.4451433
          649         650         651         652         653         654
    1   4.4779279   4.4898416   4.5046026   4.5276582   4.5328113   4.5364301
          655         656         657         658         659         660
    1   4.5417752   4.5436641   4.5589789   4.5634147   4.5691683   4.5716221
          661         662         663         664         665         666
    1   4.5789367   4.5841023   4.5893489   4.5986210   4.6231664   4.6314723
          667         668         669         670         671         672
    1   4.6570360   4.6589596   4.6842055   4.7005030   4.7024134   4.7079386
          673         674         675         676         677         678
    1   4.7118586   4.7304260   4.7584259   4.7668585   4.7792045   4.7819178
          679         680         681         682         683         684
    1   4.7932178   4.7985401   4.8042290   4.8062855   4.8112892   4.8664899
          685         686         687         688         689         690
    1   4.9043510   4.9254115   4.9500866   4.9614084   4.9703499   4.9748562
          691         692         693         694         695         696
    1   4.9773372   4.9867362   5.0456706   5.0487984   5.0563875   5.1033502
          697         698         699         700         701         702
    1   5.1234058   5.1341723   5.1529956   5.1614790   5.1714104   5.1766622
          703         704         705         706         707         708
    1   5.2005435   5.2018904   5.2195514   5.2661595   5.2716558   5.2754699
          709         710         711         712         713         714
    1   5.2821206   5.3008584   5.3322031   5.3365951   5.3761841   5.3791801
          715         716         717         718         719         720
    1   5.3886837   5.4579939   5.4939092   5.5156019   5.5244860   5.5452273
          721         722         723         724         725         726
    1   5.5499019   5.5849826   5.5901907   5.6157446   5.6908794   5.7175753
          727         728         729         730         731         732
    1   5.7199875   5.7810629   5.8218259   5.8381139   5.8723084   5.9135925
          733         734         735         736         737         738
    1   5.9391107   5.9432376   5.9843662   6.0194869   6.0508043   6.0926708
          739         740         741         742         743         744
    1   6.1258385   6.1350351   6.1885974   6.2136315   6.4524089   6.6597140
          745         746         747         748         749         750
    1  22.9440591  23.4577939  23.7128657  23.7418212  23.7672694  23.7905663
          751         752         753         754         755         756
    1  23.7923003  23.8810361  23.8850518  23.9655120  23.9780815  23.9835691
          757         758         759         760         761         762
    1  23.9982343  24.0312387  24.0439983  24.0960016  24.2292244  24.3223357
          763         764         765         766
    1  24.4272393  24.5841363  24.8427479  25.0291286
 Final Beta MO Eigenvalues
            1           2           3           4           5           6
    1 -11.2469105 -11.2468990 -11.2460243 -11.2459929 -11.2425854 -11.2425841
            7           8           9          10          11          12
    1 -11.2415278 -11.2415265 -11.2344592 -11.2344554 -11.2362977 -11.2362869
           13          14          15          16          17          18
    1 -11.2362899 -11.2362827 -11.2346539 -11.2346534 -11.2344143 -11.2344140
           19          20          21          22          23          24
    1 -11.2332671 -11.2332667 -11.2323654 -11.2323649  -1.1901812  -1.1765914
           25          26          27          28          29          30
    1  -1.1447174  -1.1079688  -1.0655582  -1.0509007  -1.0495701  -1.0179486
           31          32          33          34          35          36
    1  -1.0077621  -0.9843375  -0.9194665  -0.9106220  -0.8459933  -0.8454312
           37          38          39          40          41          42
    1  -0.8208896  -0.8101494  -0.8024672  -0.7865072  -0.7123888  -0.7092706
           43          44          45          46          47          48
    1  -0.7070087  -0.6699633  -0.6615909  -0.6480714  -0.6289540  -0.6237086
           49          50          51          52          53          54
    1  -0.6225636  -0.6048589  -0.5888456  -0.5830018  -0.5758274  -0.5730096
           55          56          57          58          59          60
    1  -0.5675804  -0.5588544  -0.5399986  -0.5322055  -0.5276099  -0.5076904
           61          62          63          64          65          66
    1  -0.5016079  -0.4771646  -0.4812600  -0.4804105  -0.4694601  -0.4355868
           67          68          69          70          71          72
    1  -0.3908603  -0.3759698  -0.3455635  -0.3154495  -0.3091300  -0.2740637
           73          74          75          76          77          78
    1   0.0290408   0.0810153   0.0998268   0.1141592   0.1406477   0.1471618
           79          80          81          82          83          84
    1   0.1652851   0.1692399   0.1650447   0.1574624   0.1580918   0.1605472
           85          86          87          88          89          90
    1   0.1661483   0.1786548   0.1825663   0.1970275   0.1967450   0.2048264
           91          92          93          94          95          96
    1   0.2220415   0.2279832   0.2327406   0.2321014   0.2564128   0.2698937
           97          98          99         100         101         102
    1   0.2612866   0.2645655   0.2642861   0.2779948   0.2843507   0.2899121
          103         104         105         106         107         108
    1   0.2980843   0.2999808   0.3125298   0.3244282   0.3301414   0.3247715
          109         110         111         112         113         114
    1   0.3328137   0.3350434   0.3417985   0.3506118   0.3619894   0.3665196
          115         116         117         118         119         120
    1   0.3680059   0.3794217   0.3948634   0.3940410   0.3960359   0.4031767
          121         122         123         124         125         126
    1   0.4152341   0.4145573   0.4178932   0.4200137   0.4282552   0.4287724
          127         128         129         130         131         132
    1   0.4306191   0.4401616   0.4490637   0.4583125   0.4566722   0.4687121
          133         134         135         136         137         138
    1   0.4587778   0.4634203   0.4820342   0.4617950   0.4696020   0.4681065
          139         140         141         142         143         144
    1   0.4882863   0.4916983   0.4940615   0.4949514   0.4965464   0.5042994
          145         146         147         148         149         150
    1   0.5043827   0.5096433   0.5130182   0.5216173   0.5313124   0.5390085
          151         152         153         154         155         156
    1   0.5364639   0.5389662   0.5413226   0.5445403   0.5648917   0.5680582
          157         158         159         160         161         162
    1   0.5679471   0.5742821   0.5815108   0.5889874   0.5885514   0.5908471
          163         164         165         166         167         168
    1   0.6000505   0.6154029   0.6140445   0.6175567   0.6188716   0.6235797
          169         170         171         172         173         174
    1   0.6411662   0.6418298   0.6475085   0.6507534   0.6496153   0.6525970
          175         176         177         178         179         180
    1   0.6585193   0.6590890   0.6589234   0.6813185   0.6746469   0.6788136
          181         182         183         184         185         186
    1   0.6877759   0.6890022   0.6946901   0.7130987   0.7140893   0.7178629
          187         188         189         190         191         192
    1   0.7300087   0.7389550   0.7510498   0.7821020   0.7793934   0.7830103
          193         194         195         196         197         198
    1   0.7917687   0.7993811   0.8089231   0.8250205   0.8303126   0.8318707
          199         200         201         202         203         204
    1   0.8293495   0.8420922   0.8475389   0.8523231   0.8572191   0.8579737
          205         206         207         208         209         210
    1   0.8561239   0.8588394   0.8866500   0.8862611   0.8904745   0.8886398
          211         212         213         214         215         216
    1   0.9033869   0.9121360   0.9133514   0.9250498   0.9304789   0.9255135
          217         218         219         220         221         222
    1   0.9264404   0.9318639   0.9393384   0.9442962   0.9448814   0.9501639
          223         224         225         226         227         228
    1   0.9532263   0.9532288   0.9597639   0.9545761   0.9608763   0.9697872
          229         230         231         232         233         234
    1   0.9858649   0.9983751   1.0043643   1.0120616   1.0113793   1.0166270
          235         236         237         238         239         240
    1   1.0258732   1.0371253   1.0377323   1.0458102   1.0588852   1.0736430
          241         242         243         244         245         246
    1   1.0730479   1.0841873   1.0950248   1.0984462   1.1040282   1.1104264
          247         248         249         250         251         252
    1   1.1193587   1.1149651   1.1202215   1.1217141   1.1291694   1.1511707
          253         254         255         256         257         258
    1   1.1621055   1.1689857   1.1867729   1.1940727   1.1976630   1.1976527
          259         260         261         262         263         264
    1   1.2005062   1.2012938   1.2174971   1.2371837   1.2426593   1.2501700
          265         266         267         268         269         270
    1   1.2498621   1.2838595   1.2768741   1.3161241   1.3176824   1.3443908
          271         272         273         274         275         276
    1   1.3570848   1.3570631   1.3625129   1.3688812   1.3671804   1.3736839
          277         278         279         280         281         282
    1   1.3769685   1.3969585   1.4108356   1.4110281   1.4203519   1.4211911
          283         284         285         286         287         288
    1   1.4396122   1.4468751   1.4566453   1.4665373   1.4717041   1.4744243
          289         290         291         292         293         294
    1   1.4738271   1.4756263   1.4825331   1.4985250   1.5150289   1.5225077
          295         296         297         298         299         300
    1   1.5260699   1.5323705   1.5366900   1.5474269   1.5578393   1.5718595
          301         302         303         304         305         306
    1   1.5803416   1.5861055   1.5878130   1.5846676   1.6098265   1.6119140
          307         308         309         310         311         312
    1   1.6457934   1.6505012   1.6518431   1.6651833   1.6714413   1.6899956
          313         314         315         316         317         318
    1   1.7054856   1.6977042   1.7122026   1.7148137   1.7217225   1.7236263
          319         320         321         322         323         324
    1   1.7329200   1.7378076   1.7636765   1.7643582   1.7596478   1.7719969
          325         326         327         328         329         330
    1   1.7703740   1.7803936   1.7997732   1.8037954   1.8049070   1.8100489
          331         332         333         334         335         336
    1   1.8137653   1.8163726   1.8306991   1.8398361   1.8402156   1.8488112
          337         338         339         340         341         342
    1   1.8519198   1.8580153   1.8861617   1.8793656   1.9012236   1.9091527
          343         344         345         346         347         348
    1   1.9161007   1.9238294   1.9348763   1.9403882   1.9465835   1.9517428
          349         350         351         352         353         354
    1   1.9707478   1.9697512   1.9725697   1.9757512   1.9769947   1.9845615
          355         356         357         358         359         360
    1   1.9885281   1.9932407   1.9953868   1.9965679   2.0257528   2.0286772
          361         362         363         364         365         366
    1   2.0531549   2.0560695   2.0655717   2.0722255   2.0971405   2.1138151
          367         368         369         370         371         372
    1   2.1193176   2.1323847   2.1390783   2.1557300   2.1702684   2.1794931
          373         374         375         376         377         378
    1   2.1899349   2.1968749   2.1975628   2.2025672   2.2075866   2.2058221
          379         380         381         382         383         384
    1   2.2216960   2.2411389   2.2446787   2.2565765   2.2684647   2.2783381
          385         386         387         388         389         390
    1   2.2786749   2.2922665   2.2967923   2.3142004   2.3448714   2.3582628
          391         392         393         394         395         396
    1   2.3660956   2.3814377   2.3986122   2.4196804   2.4357822   2.4355242
          397         398         399         400         401         402
    1   2.4596550   2.4621054   2.4717503   2.4793177   2.4842542   2.4948533
          403         404         405         406         407         408
    1   2.5064246   2.5078737   2.5136781   2.5118648   2.5176059   2.5188699
          409         410         411         412         413         414
    1   2.5330948   2.5326150   2.5389900   2.5464936   2.5606408   2.5988435
          415         416         417         418         419         420
    1   2.6070962   2.6154223   2.6214241   2.6272952   2.6399014   2.6438715
          421         422         423         424         425         426
    1   2.6483206   2.6565609   2.6819375   2.6912230   2.7390991   2.7426975
          427         428         429         430         431         432
    1   2.7505647   2.7525651   2.7612821   2.7656978   2.7682806   2.7927870
          433         434         435         436         437         438
    1   2.8052673   2.8266044   2.8288102   2.8361291   2.8363812   2.8542949
          439         440         441         442         443         444
    1   2.8628780   2.8778964   2.8848541   2.8914331   2.8913412   2.8983843
          445         446         447         448         449         450
    1   2.9372616   2.9405894   2.9557595   2.9544180   2.9570295   2.9623901
          451         452         453         454         455         456
    1   2.9760919   2.9794438   2.9837186   2.9849554   2.9933366   3.0031332
          457         458         459         460         461         462
    1   3.0211242   3.0328645   3.0354573   3.0491811   3.0527657   3.0547153
          463         464         465         466         467         468
    1   3.0654040   3.0699620   3.0813056   3.0899731   3.1024485   3.1061450
          469         470         471         472         473         474
    1   3.1112556   3.1133825   3.1213860   3.1191039   3.1217154   3.1258622
          475         476         477         478         479         480
    1   3.1381445   3.1429494   3.1427390   3.1529401   3.1627300   3.1691380
          481         482         483         484         485         486
    1   3.1753631   3.1827541   3.1817429   3.1861713   3.1917759   3.1964556
          487         488         489         490         491         492
    1   3.2009385   3.1985881   3.2082271   3.2104087   3.2148892   3.2308379
          493         494         495         496         497         498
    1   3.2360193   3.2422774   3.2552370   3.2612220   3.2654976   3.2661150
          499         500         501         502         503         504
    1   3.2695398   3.2732915   3.2753005   3.2866295   3.2939984   3.2982561
          505         506         507         508         509         510
    1   3.3007813   3.3010990   3.3056104   3.3154948   3.3257177   3.3505838
          511         512         513         514         515         516
    1   3.3512979   3.3571023   3.3682305   3.3717918   3.3748847   3.3796674
          517         518         519         520         521         522
    1   3.3778429   3.3905810   3.3914372   3.3979572   3.4099443   3.4186192
          523         524         525         526         527         528
    1   3.4193481   3.4263876   3.4318451   3.4456433   3.4472341   3.4519524
          529         530         531         532         533         534
    1   3.4588803   3.4643883   3.4644658   3.4685014   3.4728139   3.4948651
          535         536         537         538         539         540
    1   3.5092402   3.5117284   3.5150921   3.5174650   3.5193379   3.5259320
          541         542         543         544         545         546
    1   3.5439275   3.5431382   3.5590212   3.5719009   3.5760759   3.5798017
          547         548         549         550         551         552
    1   3.5815669   3.5893675   3.6065493   3.6089440   3.6306873   3.6315687
          553         554         555         556         557         558
    1   3.6404175   3.6413619   3.6429650   3.6478293   3.6528851   3.6564312
          559         560         561         562         563         564
    1   3.6525983   3.6665735   3.6667089   3.6674877   3.6789466   3.6982428
          565         566         567         568         569         570
    1   3.7035359   3.7069124   3.7101872   3.7111569   3.7186596   3.7381953
          571         572         573         574         575         576
    1   3.7480187   3.7489668   3.7615869   3.7590216   3.7760277   3.7771351
          577         578         579         580         581         582
    1   3.7843862   3.7860217   3.7861663   3.7903649   3.7980409   3.8089278
          583         584         585         586         587         588
    1   3.8184300   3.8224156   3.8345939   3.8342407   3.8375684   3.8450503
          589         590         591         592         593         594
    1   3.8478022   3.8763420   3.8777839   3.8880904   3.8998696   3.8967245
          595         596         597         598         599         600
    1   3.9033794   3.9107741   3.9118231   3.9151292   3.9331353   3.9350507
          601         602         603         604         605         606
    1   3.9366551   3.9503181   3.9604929   3.9618810   3.9778638   3.9913789
          607         608         609         610         611         612
    1   4.0185443   4.0196210   4.0312925   4.0332850   4.0326623   4.0607461
          613         614         615         616         617         618
    1   4.0769861   4.0811188   4.1177011   4.1296115   4.1329991   4.1344897
          619         620         621         622         623         624
    1   4.1395995   4.1827761   4.1832501   4.1890426   4.1908518   4.2381265
          625         626         627         628         629         630
    1   4.2431195   4.2446430   4.2490120   4.2731698   4.2806094   4.2898702
          631         632         633         634         635         636
    1   4.3050321   4.3085038   4.3106612   4.3464085   4.3533865   4.3645963
          637         638         639         640         641         642
    1   4.3711852   4.3733527   4.3969467   4.4103359   4.4092256   4.4103751
          643         644         645         646         647         648
    1   4.4219535   4.4307122   4.4404862   4.4382373   4.4415428   4.4458802
          649         650         651         652         653         654
    1   4.4827786   4.4927920   4.5060375   4.5300719   4.5344529   4.5388798
          655         656         657         658         659         660
    1   4.5432530   4.5459270   4.5611412   4.5643304   4.5697997   4.5755039
          661         662         663         664         665         666
    1   4.5808555   4.5895282   4.5910089   4.5999081   4.6241324   4.6332973
          667         668         669         670         671         672
    1   4.6591628   4.6605524   4.6860584   4.7027057   4.7038533   4.7090438
          673         674         675         676         677         678
    1   4.7124295   4.7329498   4.7597387   4.7717049   4.7843219   4.7829954
          679         680         681         682         683         684
    1   4.7968672   4.8040151   4.8061671   4.8101718   4.8140252   4.8685203
          685         686         687         688         689         690
    1   4.9072731   4.9267399   4.9523872   4.9625401   4.9729617   4.9779621
          691         692         693         694         695         696
    1   4.9786912   4.9890600   5.0468184   5.0503427   5.0593821   5.1054359
          697         698         699         700         701         702
    1   5.1241130   5.1359074   5.1548015   5.1629187   5.1740978   5.1773261
          703         704         705         706         707         708
    1   5.2014700   5.2027516   5.2207994   5.2705918   5.2746888   5.2791618
          709         710         711         712         713         714
    1   5.2834915   5.3020007   5.3334229   5.3376446   5.3780348   5.3798802
          715         716         717         718         719         720
    1   5.3901905   5.4595212   5.4953612   5.5184665   5.5261278   5.5465081
          721         722         723         724         725         726
    1   5.5507306   5.5857999   5.5912471   5.6184095   5.6917364   5.7186147
          727         728         729         730         731         732
    1   5.7207563   5.7816916   5.8229867   5.8391038   5.8735446   5.9151157
          733         734         735         736         737         738
    1   5.9400578   5.9446195   5.9852770   6.0205136   6.0528118   6.0936884
          739         740         741         742         743         744
    1   6.1272140   6.1365214   6.1909769   6.2150705   6.4533058   6.6610311
          745         746         747         748         749         750
    1  22.9448893  23.4580164  23.7147098  23.7425213  23.7677186  23.7908282
          751         752         753         754         755         756
    1  23.7925539  23.8817664  23.8890043  23.9658273  23.9789748  23.9841940
          757         758         759         760         761         762
    1  24.0019606  24.0320337  24.0454586  24.0971516  24.2300232  24.3227881
          763         764         765         766
    1  24.4298749  24.5847360  24.8430990  25.0295517
 SCF time:   CPU 8052.72s  wall 8061.00s 
<S^2> =          2.000000000
 SCF   energy in the final basis set =     -841.5216136615
 Total energy in the final basis set =     -841.5216136615
  
     ##========================================##
     ||                                        ||
     ||              R A S M A N 2             ||
     ||________________________________________||
     ||                                        ||
     ||  Author:                               ||
     ||                                        ||
     ||        David Casanova (2010)           ||
     ||                                        ||
     ##========================================##
  
Setting single-point xc-functionals (if necessary)

  ***************************************************
  *  RAS-CI Dimensions:                             *
  *                                                 *
  *  Active Elec.:   8 ( 4, 4)   Active Orb.:   8   *
  *  Doubly Occ. :  69           Doubly Vir.: 689   *
  *  Frozen Occ. :   0           Frozen Vir.:   0   *
  *                                                 *
  *  Total CI configurations:   5947620             * 
  *    Active configurations:      4900             * 
  *      Hole configurations:    540960             * 
  *  Particle configurations:   5401760             * 
  *                                                 *
  *   Requested states:       20                    *
  *  Spin multiplicity: Any multiplicity            *
  *                                                 *
  ***************************************************
-----------------------------------------
    Memory requirements of RASCI

 Each CI-vector requires     45.38 MiB 
 Max. subspace vectors           3000      

 Reduced Lists                0.00 MiB 
 Excitation Lists             0.00 MiB 
 Excitation Lists Sign        0.00 MiB 
 CI-space (Max)          137106.44 MiB 
 Integrals                  542.59 MiB 
 Memory required (Max)   137106.45 MiB 
 Memory available          7811.55 MiB 

 Q-Chem warning in module rasman2/ras_mem_check.C, line 162:

 Static memory may be insufficient to store the subspace vectors


    Disk requirements of RASCI

 Fock matrix                  8.95 MiB 
 2-electron integrals       988.90 MiB 
 CI-space                272260.44 MiB 
 Disk required           273258.29 MiB 
-----------------------------------------
  
RAS1 HF-like energy:           -835.0682946894
 Computing integrals
 Computing J and K matrices
 Computing addressing
 Making amplitude guesses
 
Direct CI diagonalization
 ---------------------------------------------------
 Iter    Rts Conv    Rts Left    Ttl Dev     Max Dev
 ---------------------------------------------------
   1         0          20      0.002089    0.000137
   2         0          20      0.001230    0.000080
   3         0          20      0.000928    0.000062
   4         0          20      0.000789    0.000056
   5         0          20      0.000652    0.000047
   6         0          20      0.000670    0.000093
   7         0          20      0.000602    0.000065
   8         0          20      0.000559    0.000067
   9         0          20      0.000523    0.000053
  10         0          20      0.000612    0.000094
  11         1          19      0.000508    0.000072
  12         2          18      0.000365    0.000044
  13         2          18      0.000313    0.000040
  14         2          18      0.000273    0.000040
  15         3          17      0.000244    0.000035
  16         3          17      0.000200    0.000029
  17         4          16      0.000153    0.000029
  18         4          16      0.000109    0.000020
  19         6          14      0.000089    0.000017
  20         7          13      0.000077    0.000016
  21         8          12      0.000059    0.000014
  22         9          11      0.000048    0.000013
  23        10          10      0.000043    0.000013
  24        12           8      0.000034    0.000009
  25        13           7      0.000027    0.000007
  26        14           6      0.000024    0.000006
  27        16           4      0.000020    0.000006
  28        18           2      0.000018    0.000004
  29        18           2      0.000016    0.000004
  30        18           2      0.000015    0.000003
  31        18           2      0.000014    0.000003
  32        18           2      0.000014    0.000002
  33        19           1      0.000013    0.000002
  34        19           1      0.000013    0.000002
  35        19           1      0.000012    0.000001
  36        19           1      0.000012    0.000001
  37        20           0      0.000012    0.000001    Roots Converged
 ---------------------------------------------------
   
**************************************************
 RAS-CI total energy for state   1:   -841.605204856723
  Excitation energy (eV) =  0.000000000000
  State symmetry: A1  (C1       )
  <S^2>      :  0.0000
  Dipole Moment:    0.0000 X     0.0000 Y    -0.0001 Z
 NATURAL OCCUPATION NUMBERS (higher than 1.0E-05)
            1           2           3           4           5           6
    1   2.0000000   2.0000000   2.0000000   2.0000000   2.0000000   2.0000000
            7           8           9          10          11          12
    1   2.0000000   2.0000000   2.0000000   2.0000000   2.0000000   2.0000000
           13          14          15          16          17          18
    1   2.0000000   2.0000000   2.0000000   2.0000000   2.0000000   2.0000000
           19          20          21          22          23          24
    1   2.0000000   2.0000000   2.0000000   2.0000000   2.0000000   2.0000000
           25          26          27          28          29          30
    1   2.0000000   2.0000000   2.0000000   2.0000000   2.0000000   2.0000000
           31          32          33          34          35          36
    1   2.0000000   2.0000000   2.0000000   2.0000000   2.0000000   2.0000000
           37          38          39          40          41          42
    1   2.0000000   2.0000000   2.0000000   2.0000000   2.0000000   2.0000000
           43          44          45          46          47          48
    1   2.0000000   2.0000000   2.0000000   2.0000000   2.0000000   2.0000000
           49          50          51          52          53          54
    1   2.0000000   2.0000000   2.0000000   2.0000000   2.0000000   2.0000000
           55          56          57          58          59          60
    1   2.0000000   2.0000000   2.0000000   2.0000000   2.0000000   2.0000000
           61          62          63          64          65          66
    1   2.0000000   2.0000000   1.9996974   1.9996531   1.9994821   1.9976312
           67          68          69          70          71          72
    1   1.9971871   1.9970217   1.9909463   1.9624146   1.9574168   1.9438138
           73          74          75          76          77          78
    1   1.7165706   0.2829990   0.0554728   0.0397903   0.0362579   0.0089244
           79          80          81          82          83          84
    1   0.0034619   0.0034232   0.0023768   0.0008040   0.0005717   0.0005016
           85          86          87          88          89          90
    1   0.0003913   0.0003910   0.0003594   0.0003239   0.0002851   0.0002627
           91          92          93          94          95          96
    1   0.0001866   0.0001853   0.0001595   0.0001577   0.0001399   0.0000920
           97          98          99         100         101         102
    1   0.0000896   0.0000745   0.0000671   0.0000649   0.0000478   0.0000431
          103         104         105         106         107         108
    1   0.0000422   0.0000311   0.0000250   0.0000232   0.0000197   0.0000144
          109         110
    1   0.0000142   0.0000115
Natural Orbitals stored in FCHK

  Amplitudes : 
  
 | HOLE  | ALPHA    | BETA     | PART  |    AMPLITUDE 
--------------------------------------------------
 |       | 11110000 | 11110000 |       |     8.7393248356469E-01
 |       | 11101000 | 11101000 |       |    -3.2893442780392E-01
--------------------------------------------------
*** Contributions RASCI wfn    Active:  92.88
                                 Hole:   3.04
                                 Part:   4.07

      Mulliken population analysis 
 ---------------------------------------------------
   Atom    Charge (a.u.)   Spin (a.u.)  
 ---------------------------------------------------
   1  C    0.262817        0.000000 
   2  C   -0.370031       -0.000000 
   3  H    0.119303        0.000000 
   4  C   -0.405191       -0.000000 
   5  H    0.124627        0.000000 
   6  C    0.263423       -0.000000 
   7  C   -0.370565        0.000000 
   8  H    0.119453       -0.000000 
   9  C    0.243663        0.000000 
  10  C   -0.252222       -0.000000 
  11  H    0.122725        0.000000 
  12  C   -0.110071        0.000000 
  13  H    0.123800        0.000000 
  14  C   -0.109665       -0.000000 
  15  H    0.123840       -0.000000 
  16  C   -0.252465        0.000000 
  17  H    0.122709       -0.000000 
  18  C    0.243944       -0.000000 
  19  C    0.244656       -0.000000 
  20  C   -0.252888        0.000000 
  21  H    0.122648       -0.000000 
  22  C   -0.109795       -0.000000 
  23  H    0.123800       -0.000000 
  24  C   -0.109644        0.000000 
  25  H    0.123910        0.000000 
  26  C   -0.252424       -0.000000 
  27  H    0.122679        0.000000 
  28  C    0.243357        0.000000 
  29  C   -0.370134        0.000000 
  30  H    0.119326       -0.000000 
  31  C    0.263259       -0.000000 
  32  C   -0.405862        0.000000 
  33  H    0.124589       -0.000000 
  34  C    0.263533        0.000000 
  35  C   -0.370479       -0.000000 
  36  H    0.119375        0.000000 
 ---------------------------------------------------
   Sum:    0.000000       -0.000000 
 ---------------------------------------------------
 
  
 NATURAL OCCUPATION NUMBERS (higher than 1.0E-05)
            1           2           3           4           5           6
    1   2.0000000   2.0000000   2.0000000   2.0000000   2.0000000   2.0000000
            7           8           9          10          11          12
    1   2.0000000   2.0000000   2.0000000   2.0000000   2.0000000   2.0000000
           13          14          15          16          17          18
    1   2.0000000   2.0000000   2.0000000   2.0000000   2.0000000   2.0000000
           19          20          21          22          23          24
    1   2.0000000   2.0000000   2.0000000   2.0000000   2.0000000   2.0000000
           25          26          27          28          29          30
    1   2.0000000   2.0000000   2.0000000   2.0000000   2.0000000   2.0000000
           31          32          33          34          35          36
    1   2.0000000   2.0000000   2.0000000   2.0000000   2.0000000   2.0000000
           37          38          39          40          41          42
    1   2.0000000   2.0000000   2.0000000   2.0000000   2.0000000   2.0000000
           43          44          45          46          47          48
    1   2.0000000   2.0000000   2.0000000   2.0000000   2.0000000   2.0000000
           49          50          51          52          53          54
    1   2.0000000   2.0000000   2.0000000   2.0000000   2.0000000   2.0000000
           55          56          57          58          59          60
    1   2.0000000   2.0000000   2.0000000   2.0000000   2.0000000   2.0000000
           61          62          63          64          65          66
    1   2.0000000   2.0000000   1.9996974   1.9996531   1.9994821   1.9976312
           67          68          69          70          71          72
    1   1.9971871   1.9970217   1.9909463   1.9624146   1.9574168   1.9438138
           73          74          75          76          77          78
    1   1.7165706   0.2829990   0.0554728   0.0397903   0.0362579   0.0089244
           79          80          81          82          83          84
    1   0.0034619   0.0034232   0.0023768   0.0008040   0.0005717   0.0005016
           85          86          87          88          89          90
    1   0.0003913   0.0003910   0.0003594   0.0003239   0.0002851   0.0002627
           91          92          93          94          95          96
    1   0.0001866   0.0001853   0.0001595   0.0001577   0.0001399   0.0000920
           97          98          99         100         101         102
    1   0.0000896   0.0000745   0.0000671   0.0000649   0.0000478   0.0000431
          103         104         105         106         107         108
    1   0.0000422   0.0000311   0.0000250   0.0000232   0.0000197   0.0000144
          109         110
    1   0.0000142   0.0000115
  
*** Unpaired Electrons
 Yamaguchi Nd:         1.58
 Head-Gordon Nu:       0.88
 Head-Gordon Nu_nl:    0.52
  
**************************************************
 RAS-CI total energy for state   2:   -841.582354239762
  Excitation energy (eV) =  0.621796923543
  State symmetry: A1  (C1       )
  <S^2>      :  2.0000
  Dipole Moment:   -0.0000 X    -0.0000 Y    -0.0001 Z
  Trans. Moment:    0.0000 X    -0.0000 Y    -0.0000 Z
  Strength   :  0.000000
  Natural transition orbitals ( 1 -> 2 ):
   e-/hole pair  1:  ampl =  0.883670 ( 78.1%)   [8 : 9]
   e-/hole pair  2:  ampl =  0.337523 ( 11.4%)   [7 : 10]
   Sum of square amplitudes: 0.94

 NATURAL OCCUPATION NUMBERS (higher than 1.0E-05)
            1           2           3           4           5           6
    1   2.0000000   2.0000000   2.0000000   2.0000000   2.0000000   2.0000000
            7           8           9          10          11          12
    1   2.0000000   2.0000000   2.0000000   2.0000000   2.0000000   2.0000000
           13          14          15          16          17          18
    1   2.0000000   2.0000000   2.0000000   2.0000000   2.0000000   2.0000000
           19          20          21          22          23          24
    1   2.0000000   2.0000000   2.0000000   2.0000000   2.0000000   2.0000000
           25          26          27          28          29          30
    1   2.0000000   2.0000000   2.0000000   2.0000000   2.0000000   2.0000000
           31          32          33          34          35          36
    1   2.0000000   2.0000000   2.0000000   2.0000000   2.0000000   2.0000000
           37          38          39          40          41          42
    1   2.0000000   2.0000000   2.0000000   2.0000000   2.0000000   2.0000000
           43          44          45          46          47          48
    1   2.0000000   2.0000000   2.0000000   2.0000000   2.0000000   2.0000000
           49          50          51          52          53          54
    1   2.0000000   2.0000000   2.0000000   2.0000000   2.0000000   2.0000000
           55          56          57          58          59          60
    1   2.0000000   2.0000000   2.0000000   2.0000000   2.0000000   2.0000000
           61          62          63          64          65          66
    1   2.0000000   2.0000000   1.9997263   1.9996907   1.9977256   1.9977043
           67          68          69          70          71          72
    1   1.9967621   1.9966813   1.9878520   1.9641182   1.9548679   1.9380468
           73          74          75          76          77          78
    1   1.0171439   0.9834928   0.0621540   0.0418376   0.0336786   0.0115980
           79          80          81          82          83          84
    1   0.0035503   0.0032896   0.0027214   0.0021981   0.0008873   0.0004957
           85          86          87          88          89          90
    1   0.0004312   0.0003750   0.0003274   0.0003108   0.0002944   0.0002339
           91          92          93          94          95          96
    1   0.0002214   0.0001827   0.0001619   0.0001618   0.0001411   0.0001039
           97          98          99         100         101         102
    1   0.0000916   0.0000900   0.0000843   0.0000777   0.0000729   0.0000591
          103         104         105         106         107         108
    1   0.0000532   0.0000497   0.0000285   0.0000267   0.0000247   0.0000230
          109         110         111         112         113         114
    1   0.0000199   0.0000189   0.0000172   0.0000126   0.0000118   0.0000103
Natural Orbitals stored in FCHK

  Amplitudes : 
  
 | HOLE  | ALPHA    | BETA     | PART  |    AMPLITUDE 
--------------------------------------------------
 |       | 11110000 | 11101000 |       |     6.5593751794512E-01
 |       | 11101000 | 11110000 |       |    -6.5593751794302E-01
--------------------------------------------------
*** Contributions RASCI wfn    Active:  93.90
                                 Hole:   2.73
                                 Part:   3.37

      Mulliken population analysis 
 ---------------------------------------------------
   Atom    Charge (a.u.)   Spin (a.u.)  
 ---------------------------------------------------
   1  C    0.264093        0.000000 
   2  C   -0.370473        0.000000 
   3  H    0.119307       -0.000000 
   4  C   -0.404553        0.000000 
   5  H    0.124547        0.000000 
   6  C    0.264699       -0.000000 
   7  C   -0.371008       -0.000000 
   8  H    0.119457        0.000000 
   9  C    0.244272       -0.000000 
  10  C   -0.254409        0.000000 
  11  H    0.122713       -0.000000 
  12  C   -0.109581        0.000000 
  13  H    0.123781        0.000000 
  14  C   -0.109175        0.000000 
  15  H    0.123822        0.000000 
  16  C   -0.254652        0.000000 
  17  H    0.122697       -0.000000 
  18  C    0.244553       -0.000000 
  19  C    0.245265        0.000000 
  20  C   -0.255075       -0.000000 
  21  H    0.122636        0.000000 
  22  C   -0.109304       -0.000000 
  23  H    0.123781       -0.000000 
  24  C   -0.109154       -0.000000 
  25  H    0.123892       -0.000000 
  26  C   -0.254610       -0.000000 
  27  H    0.122667        0.000000 
  28  C    0.243966        0.000000 
  29  C   -0.370575        0.000000 
  30  H    0.119330       -0.000000 
  31  C    0.264536        0.000000 
  32  C   -0.405222        0.000000 
  33  H    0.124509        0.000000 
  34  C    0.264810       -0.000000 
  35  C   -0.370919       -0.000000 
  36  H    0.119379        0.000000 
 ---------------------------------------------------
   Sum:    0.000000       -0.000000 
 ---------------------------------------------------
 
  
 NATURAL OCCUPATION NUMBERS (higher than 1.0E-05)
            1           2           3           4           5           6
    1   2.0000000   2.0000000   2.0000000   2.0000000   2.0000000   2.0000000
            7           8           9          10          11          12
    1   2.0000000   2.0000000   2.0000000   2.0000000   2.0000000   2.0000000
           13          14          15          16          17          18
    1   2.0000000   2.0000000   2.0000000   2.0000000   2.0000000   2.0000000
           19          20          21          22          23          24
    1   2.0000000   2.0000000   2.0000000   2.0000000   2.0000000   2.0000000
           25          26          27          28          29          30
    1   2.0000000   2.0000000   2.0000000   2.0000000   2.0000000   2.0000000
           31          32          33          34          35          36
    1   2.0000000   2.0000000   2.0000000   2.0000000   2.0000000   2.0000000
           37          38          39          40          41          42
    1   2.0000000   2.0000000   2.0000000   2.0000000   2.0000000   2.0000000
           43          44          45          46          47          48
    1   2.0000000   2.0000000   2.0000000   2.0000000   2.0000000   2.0000000
           49          50          51          52          53          54
    1   2.0000000   2.0000000   2.0000000   2.0000000   2.0000000   2.0000000
           55          56          57          58          59          60
    1   2.0000000   2.0000000   2.0000000   2.0000000   2.0000000   2.0000000
           61          62          63          64          65          66
    1   2.0000000   2.0000000   1.9997263   1.9996907   1.9977256   1.9977043
           67          68          69          70          71          72
    1   1.9967621   1.9966813   1.9878520   1.9641182   1.9548679   1.9380468
           73          74          75          76          77          78
    1   1.0171439   0.9834928   0.0621540   0.0418376   0.0336786   0.0115980
           79          80          81          82          83          84
    1   0.0035503   0.0032896   0.0027214   0.0021981   0.0008873   0.0004957
           85          86          87          88          89          90
    1   0.0004312   0.0003750   0.0003274   0.0003108   0.0002944   0.0002339
           91          92          93          94          95          96
    1   0.0002214   0.0001827   0.0001619   0.0001618   0.0001411   0.0001039
           97          98          99         100         101         102
    1   0.0000916   0.0000900   0.0000843   0.0000777   0.0000729   0.0000591
          103         104         105         106         107         108
    1   0.0000532   0.0000497   0.0000285   0.0000267   0.0000247   0.0000230
          109         110         111         112         113         114
    1   0.0000199   0.0000189   0.0000172   0.0000126   0.0000118   0.0000103
  
*** Unpaired Electrons
 Yamaguchi Nd:         2.65
 Head-Gordon Nu:       2.30
 Head-Gordon Nu_nl:    2.05
  
**************************************************
 RAS-CI total energy for state   3:   -841.510699496609
  Excitation energy (eV) =  2.571621688736
  State symmetry: A1  (C1       )
  <S^2>      :  0.0000
  Dipole Moment:   -0.0000 X     0.0004 Y    -0.0001 Z
  Trans. Moment:   -0.0000 X    -1.3346 Y    -0.0001 Z
  Strength   :  0.112221
  Natural transition orbitals ( 1 -> 3 ):
   e-/hole pair  1:  ampl =  0.845500 ( 71.5%)   [8 : 9]
   e-/hole pair  2:  ampl =  0.278270 (  7.7%)   [7 : 10]
   Sum of square amplitudes: 0.81

 NATURAL OCCUPATION NUMBERS (higher than 1.0E-05)
            1           2           3           4           5           6
    1   2.0000000   2.0000000   2.0000000   2.0000000   2.0000000   2.0000000
            7           8           9          10          11          12
    1   2.0000000   2.0000000   2.0000000   2.0000000   2.0000000   2.0000000
           13          14          15          16          17          18
    1   2.0000000   2.0000000   2.0000000   2.0000000   2.0000000   2.0000000
           19          20          21          22          23          24
    1   2.0000000   2.0000000   2.0000000   2.0000000   2.0000000   2.0000000
           25          26          27          28          29          30
    1   2.0000000   2.0000000   2.0000000   2.0000000   2.0000000   2.0000000
           31          32          33          34          35          36
    1   2.0000000   2.0000000   2.0000000   2.0000000   2.0000000   2.0000000
           37          38          39          40          41          42
    1   2.0000000   2.0000000   2.0000000   2.0000000   2.0000000   2.0000000
           43          44          45          46          47          48
    1   2.0000000   2.0000000   2.0000000   2.0000000   2.0000000   2.0000000
           49          50          51          52          53          54
    1   2.0000000   2.0000000   2.0000000   2.0000000   2.0000000   2.0000000
           55          56          57          58          59          60
    1   2.0000000   2.0000000   2.0000000   2.0000000   2.0000000   2.0000000
           61          62          63          64          65          66
    1   2.0000000   2.0000000   1.9996553   1.9994374   1.9974899   1.9971653
           67          68          69          70          71          72
    1   1.9966994   1.9944696   1.9772829   1.9519434   1.9439567   1.9317456
           73          74          75          76          77          78
    1   1.0085766   0.9988282   0.0628960   0.0567228   0.0397081   0.0204540
           79          80          81          82          83          84
    1   0.0053655   0.0047474   0.0029037   0.0020761   0.0016253   0.0009372
[...]
  90    C 17  f     0.00143   0.00133
  91    C 18  s     0.00000   0.00000
  92    C 18  p     0.10732   0.10288
  93    C 18  d     0.00331   0.00325
  94    C 18  f     0.00021   0.00077
  95    H 12  s     0.00000   0.00000
  96    H 12  p     0.00256   0.00233
  97    C 19  s     0.00000   0.00000
  98    C 19  p     0.01034   0.00488
  99    C 19  d     0.06301   0.08378
 100    C 19  f     0.00691   0.00512
 101    C 20  s     0.00000   0.00000
 102    C 20  p     0.47408   0.42963
 103    C 20  d     0.00076   0.00295
 104    C 20  f     0.00025   0.00170
 105    H 13  s     0.00000   0.00000
 106    H 13  p     0.01050   0.01082
 107    C 21  s     0.00000   0.00000
 108    C 21  p     0.01034   0.00488
 109    C 21  d     0.06301   0.08378
 110    C 21  f     0.00691   0.00512
 111    C 22  s     0.00000   0.00000
 112    C 22  p     0.10732   0.10289
 113    C 22  d     0.00331   0.00325
 114    C 22  f     0.00021   0.00077
 115    H 14  s     0.00000   0.00000
 116    H 14  p     0.00256   0.00233
 
 -----------------------------------------------------------------
                    Cartesian Multipole Moments
 -----------------------------------------------------------------
    Charge (ESU x 10^10)
                 0.0000
    Dipole Moment (Debye)
         X       0.0000      Y       0.0001      Z       0.0003
       Tot       0.0003
    Quadrupole Moments (Debye-Ang)
        XX    -113.0768     XY      -0.0000     YY    -110.5613
        XZ      -0.0001     YZ      -0.0003     ZZ    -139.4931
    Octopole Moments (Debye-Ang^2)
       XXX      -0.0001    XXY      -0.0003    XYY       0.0001
       YYY      -0.0002    XXZ       0.0279    XYZ      -0.4915
       YYZ      -0.0002    XZZ       0.0001    YZZ      -0.0000
       ZZZ      -0.0004
    Hexadecapole Moments (Debye-Ang^3)
      XXXX  -10607.2186   XXXY      -0.0004   XXYY   -1962.9112
      XYYY       0.0008   YYYY   -1088.7545   XXXZ      -0.0071
      XXYZ      -0.0593   XYYZ      -0.0002   YYYZ       0.0010
      XXZZ   -2271.3401   XYZZ      -0.0001   YYZZ    -258.9923
      XZZZ      -0.0001   YZZZ      -0.0003   ZZZZ    -167.5924
 -----------------------------------------------------------------
 Mayer SCF Bond Order, atomic valence on the diagonal:

            1           2           3           4           5           6
    1   3.7716190   1.5332718  -0.0177161   1.1197245  -0.0321580  -0.0339586
    2   1.5332718   3.7762484   0.9880423   0.0506527   0.0081631   0.0168609
    3  -0.0177161   0.9880423   0.9762157   0.0083306   0.0025999   0.0010297
    4   1.1197245   0.0506527   0.0083306   3.4033065   1.0036216   1.1194691
    5  -0.0321580   0.0081631   0.0025999   1.0036216   0.9773037  -0.0321335
    6  -0.0339586   0.0168609   0.0010297   1.1194691  -0.0321335   3.7728555
    7   0.0167526   0.0161051   0.0000063   0.0506778   0.0081525   1.5338274
    8   0.0010456   0.0000084   0.0000512   0.0083011   0.0025876  -0.0173672
    9  -0.0009718   0.0007810   0.0000751   0.0149982   0.0009903  -0.0301983
   10   0.0006004   0.0017060   0.0000379   0.0095002  -0.0000477   0.0261067
   11   0.0001201  -0.0000002   0.0000026  -0.0000827   0.0000496   0.0011732
   12   0.0000726   0.0002435   0.0000015   0.0007497   0.0000273  -0.0004941
   13   0.0000199  -0.0000076   0.0000002   0.0000540   0.0000007   0.0000739
   14   0.0002096   0.0019255   0.0000132   0.0082085   0.0000475   0.0205710
   15   0.0000111   0.0000117   0.0000003   0.0000694   0.0000010   0.0001067
   16   0.0003808   0.0006919  -0.0000089   0.0051320   0.0000609  -0.0048294
   17  -0.0000175   0.0000006   0.0000002   0.0000852  -0.0000065  -0.0004692
   18   0.0042425   0.0021034   0.0000607  -0.0001466  -0.0000908   0.0303679
   19  -0.0297958   1.1414884  -0.0266086   0.0151126   0.0009967  -0.0010475
   20   0.0260644  -0.0226501   0.0027008   0.0095324  -0.0000509   0.0005748
   21   0.0011744   0.0093137   0.0021918  -0.0000913   0.0000510   0.0001207
   22  -0.0004034   0.0195071   0.0002270   0.0007125   0.0000270   0.0001237
   23   0.0000896   0.0006255   0.0000181   0.0000543   0.0000005   0.0000215
   24   0.0204371  -0.0038520  -0.0002208   0.0082429   0.0000469   0.0001804
   25   0.0001030   0.0002519   0.0000216   0.0000703   0.0000010   0.0000106
   26  -0.0046717   0.0148248   0.0006521   0.0050933   0.0000610   0.0004131
   27  -0.0004690   0.0008669   0.0002950   0.0000862  -0.0000064  -0.0000199
   28   0.0297490  -0.0187487   0.0063666  -0.0000819  -0.0000811   0.0041956
   29  -0.0202057   0.0125772   0.0004726   0.0200979   0.0006058  -0.0064899
   30   0.0067701   0.0004745   0.0001206   0.0005748   0.0002789  -0.0002424
   31   1.1712881  -0.0200093   0.0067856  -0.0270644   0.0062701   0.0071879
   32  -0.0268430   0.0201672   0.0005733  -0.0220940  -0.0000753  -0.0270217
   33   0.0062910   0.0005979   0.0002777  -0.0000795   0.0001572   0.0062801
   34   0.0071323  -0.0065071  -0.0002363  -0.0269807   0.0062685   1.1717048
   35  -0.0064876   0.0067024   0.0000592   0.0202037   0.0006080  -0.0200506
   36  -0.0002336   0.0000581  -0.0000073   0.0005720   0.0002793   0.0067785
            7           8           9          10          11          12
    1   0.0167526   0.0010456  -0.0009718   0.0006004   0.0001201   0.0000726
    2   0.0161051   0.0000084   0.0007810   0.0017060  -0.0000002   0.0002435
    3   0.0000063   0.0000512   0.0000751   0.0000379   0.0000026   0.0000015
    4   0.0506778   0.0083011   0.0149982   0.0095002  -0.0000827   0.0007497
    5   0.0081525   0.0025876   0.0009903  -0.0000477   0.0000496   0.0000273
    6   1.5338274  -0.0173672  -0.0301983   0.0261067   0.0011732  -0.0004941
    7   3.7761036   0.9874311   1.1416893  -0.0225217   0.0093512   0.0196264
    8   0.9874311   0.9762669  -0.0262596   0.0027616   0.0022049   0.0002164
    9   1.1416893  -0.0262596   3.7559386   1.3005638  -0.0322739  -0.0142445
   10  -0.0225217   0.0027616   1.3005638   3.9438624   0.9862373   1.5420762
   11   0.0093512   0.0022049  -0.0322739   0.9862373   0.9732366  -0.0077555
   12   0.0196264   0.0002164  -0.0142445   1.5420762  -0.0077555   3.9236636
   13   0.0006387   0.0000196   0.0059933  -0.0114745  -0.0003885   0.9840129
   14  -0.0040267  -0.0002199   0.0344560   0.0480498   0.0065885   1.2962838
   15   0.0002489   0.0000202   0.0007866   0.0053543   0.0006418  -0.0141942
   16   0.0150143   0.0006460  -0.0210914   0.0568827   0.0007097   0.0482620
   17   0.0008703   0.0002941   0.0058279   0.0007109   0.0000327   0.0065895
   18  -0.0189401   0.0063443   1.3494761  -0.0209689   0.0058286   0.0342806
   19   0.0007582   0.0000679   0.0010069  -0.0000240   0.0000242   0.0003836
   20   0.0017393   0.0000400  -0.0000654   0.0003019  -0.0000082   0.0000561
   21   0.0000012   0.0000030   0.0000253  -0.0000067   0.0000004  -0.0000003
   22   0.0002217   0.0000017   0.0004070   0.0000601   0.0000000   0.0002413
   23  -0.0000081   0.0000003   0.0000072   0.0000036   0.0000001   0.0000014
   24   0.0019343   0.0000131   0.0001358   0.0002460   0.0000042   0.0000580
   25   0.0000119   0.0000002   0.0000029   0.0000041   0.0000001   0.0000019
   26   0.0006755  -0.0000076   0.0004718   0.0002153   0.0000078   0.0002470
   27   0.0000033   0.0000004   0.0000109   0.0000076   0.0000007   0.0000044
   28   0.0021027   0.0000624  -0.0005440   0.0004506   0.0000107   0.0001515
   29   0.0067585   0.0000624   0.0020942   0.0006968   0.0000010   0.0019176
   30   0.0000622  -0.0000072   0.0000640  -0.0000089   0.0000002   0.0000129
   31  -0.0064235  -0.0002482   0.0041762   0.0003672  -0.0000183   0.0002089
   32   0.0199547   0.0005709  -0.0000054   0.0052015   0.0000891   0.0081818
   33   0.0006110   0.0002810  -0.0000919   0.0000627  -0.0000064   0.0000468
   34  -0.0198351   0.0067361   0.0300918  -0.0048647  -0.0004752   0.0205710
   35   0.0121550   0.0004821  -0.0188103   0.0149269   0.0008721  -0.0039550
   36   0.0004771   0.0001230   0.0063636   0.0006471   0.0002947  -0.0002193
           13          14          15          16          17          18
    1   0.0000199   0.0002096   0.0000111   0.0003808  -0.0000175   0.0042425
    2  -0.0000076   0.0019255   0.0000117   0.0006919   0.0000006   0.0021034
    3   0.0000002   0.0000132   0.0000003  -0.0000089   0.0000002   0.0000607
    4   0.0000540   0.0082085   0.0000694   0.0051320   0.0000852  -0.0001466
    5   0.0000007   0.0000475   0.0000010   0.0000609  -0.0000065  -0.0000908
    6   0.0000739   0.0205710   0.0001067  -0.0048294  -0.0004692   0.0303679
    7   0.0006387  -0.0040267   0.0002489   0.0150143   0.0008703  -0.0189401
    8   0.0000196  -0.0002199   0.0000202   0.0006460   0.0002941   0.0063443
    9   0.0059933   0.0344560   0.0007866  -0.0210914   0.0058279   1.3494761
   10  -0.0114745   0.0480498   0.0053543   0.0568827   0.0007109  -0.0209689
   11  -0.0003885   0.0065885   0.0006418   0.0007097   0.0000327   0.0058286
   12   0.9840129   1.2962838  -0.0141942   0.0482620   0.0065895   0.0342806
   13   0.9717785  -0.0142166  -0.0002259   0.0053564   0.0006415   0.0007901
   14  -0.0142166   3.9236324   0.9839227   1.5423228  -0.0077182  -0.0143552
   15  -0.0002259   0.9839227   0.9717484  -0.0114396  -0.0003862   0.0059989
   16   0.0053564   1.5423228  -0.0114396   3.9442111   0.9862070   1.3006865
   17   0.0006415  -0.0077182  -0.0003862   0.9862070   0.9732619  -0.0322475
   18   0.0007901  -0.0143552   0.0059989   1.3006865  -0.0322475   3.7558242
   19   0.0000068   0.0001487   0.0000031   0.0004523   0.0000106  -0.0004702
   20   0.0000033   0.0002481   0.0000043   0.0002116   0.0000078   0.0004495
   21   0.0000001   0.0000045   0.0000001   0.0000071   0.0000006   0.0000082
   22   0.0000015   0.0000586   0.0000017   0.0002447   0.0000041   0.0001513
   23   0.0000001   0.0000019   0.0000001   0.0000040   0.0000001   0.0000029
   24   0.0000018   0.0002416   0.0000016   0.0000575   0.0000000   0.0003796
   25   0.0000001   0.0000015   0.0000001   0.0000035   0.0000001   0.0000071
   26   0.0000042   0.0000586   0.0000033   0.0002985  -0.0000077  -0.0000328
   27   0.0000001  -0.0000001   0.0000001  -0.0000075   0.0000004   0.0000242
   28   0.0000035   0.0003916   0.0000071  -0.0000385   0.0000234   0.0009753
   29   0.0000113   0.0002336  -0.0000075   0.0017253   0.0000007   0.0007649
   30   0.0000003   0.0000014   0.0000003   0.0000385   0.0000026   0.0000676
   31   0.0000109   0.0000938   0.0000202   0.0005888   0.0001226  -0.0009619
   32   0.0000694   0.0007620   0.0000548   0.0094618  -0.0000902   0.0150445
   33   0.0000011   0.0000264   0.0000005  -0.0000456   0.0000500   0.0010008
   34   0.0001078  -0.0005012   0.0000801   0.0261610   0.0011679  -0.0301950
   35   0.0002481   0.0195822   0.0006317  -0.0226782   0.0093496   1.1415810
   36   0.0000197   0.0002169   0.0000190   0.0027425   0.0022047  -0.0264032
           19          20          21          22          23          24
    1  -0.0297958   0.0260644   0.0011744  -0.0004034   0.0000896   0.0204371
    2   1.1414884  -0.0226501   0.0093137   0.0195071   0.0006255  -0.0038520
    3  -0.0266086   0.0027008   0.0021918   0.0002270   0.0000181  -0.0002208
    4   0.0151126   0.0095324  -0.0000913   0.0007125   0.0000543   0.0082429
    5   0.0009967  -0.0000509   0.0000510   0.0000270   0.0000005   0.0000469
    6  -0.0010475   0.0005748   0.0001207   0.0001237   0.0000215   0.0001804
    7   0.0007582   0.0017393   0.0000012   0.0002217  -0.0000081   0.0019343
    8   0.0000679   0.0000400   0.0000030   0.0000017   0.0000003   0.0000131
    9   0.0010069  -0.0000654   0.0000253   0.0004070   0.0000072   0.0001358
   10  -0.0000240   0.0003019  -0.0000067   0.0000601   0.0000036   0.0002460
   11   0.0000242  -0.0000082   0.0000004   0.0000000   0.0000001   0.0000042
   12   0.0003836   0.0000561  -0.0000003   0.0002413   0.0000014   0.0000580
   13   0.0000068   0.0000033   0.0000001   0.0000015   0.0000001   0.0000018
   14   0.0001487   0.0002481   0.0000045   0.0000586   0.0000019   0.0002416
   15   0.0000031   0.0000043   0.0000001   0.0000017   0.0000001   0.0000016
   16   0.0004523   0.0002116   0.0000071   0.0002447   0.0000040   0.0000575
   17   0.0000106   0.0000078   0.0000006   0.0000041   0.0000001   0.0000000
   18  -0.0004702   0.0004495   0.0000082   0.0001513   0.0000029   0.0003796
   19   3.7543802   1.3006111  -0.0322670  -0.0145582   0.0060059   0.0344262
   20   1.3006111   3.9440103   0.9863344   1.5420737  -0.0115351   0.0482195
   21  -0.0322670   0.9863344   0.9732847  -0.0077706  -0.0003909   0.0065967
   22  -0.0145582   1.5420737  -0.0077706   3.9238302   0.9840523   1.2967000
   23   0.0060059  -0.0115351  -0.0003909   0.9840523   0.9717578  -0.0142349
   24   0.0344262   0.0482195   0.0065967   1.2967000  -0.0142349   3.9243607
   25   0.0007742   0.0053576   0.0006424  -0.0141346  -0.0002244   0.9838055
   26  -0.0210564   0.0567059   0.0007082   0.0483182   0.0053628   1.5426041
   27   0.0058250   0.0007097   0.0000328   0.0065900   0.0006407  -0.0077000
   28   1.3484786  -0.0206233   0.0058381   0.0341755   0.0007868  -0.0143665
   29  -0.0189955   0.0148607   0.0008652  -0.0038584   0.0002529   0.0194886
   30   0.0063628   0.0006476   0.0002938  -0.0002187   0.0000212   0.0002192
   31   0.0301771  -0.0048052  -0.0004726   0.0205073   0.0001040  -0.0004445
   32  -0.0002895   0.0051604   0.0000892   0.0081969   0.0000698   0.0007563
   33  -0.0000852   0.0000639  -0.0000064   0.0000476   0.0000009   0.0000254
   34   0.0043410   0.0003731  -0.0000168   0.0001848   0.0000102   0.0001043
   35   0.0020606   0.0007030   0.0000040   0.0019234   0.0000120   0.0002508
   36   0.0000555  -0.0000061   0.0000005   0.0000132   0.0000003   0.0000020
           25          26          27          28          29          30
    1   0.0001030  -0.0046717  -0.0004690   0.0297490  -0.0202057   0.0067701
    2   0.0002519   0.0148248   0.0008669  -0.0187487   0.0125772   0.0004745
    3   0.0000216   0.0006521   0.0002950   0.0063666   0.0004726   0.0001206
    4   0.0000703   0.0050933   0.0000862  -0.0000819   0.0200979   0.0005748
    5   0.0000010   0.0000610  -0.0000064  -0.0000811   0.0006058   0.0002789
    6   0.0000106   0.0004131  -0.0000199   0.0041956  -0.0064899  -0.0002424
    7   0.0000119   0.0006755   0.0000033   0.0021027   0.0067585   0.0000622
    8   0.0000002  -0.0000076   0.0000004   0.0000624   0.0000624  -0.0000072
    9   0.0000029   0.0004718   0.0000109  -0.0005440   0.0020942   0.0000640
   10   0.0000041   0.0002153   0.0000076   0.0004506   0.0006968  -0.0000089
   11   0.0000001   0.0000078   0.0000007   0.0000107   0.0000010   0.0000002
   12   0.0000019   0.0002470   0.0000044   0.0001515   0.0019176   0.0000129
   13   0.0000001   0.0000042   0.0000001   0.0000035   0.0000113   0.0000003
   14   0.0000015   0.0000586  -0.0000001   0.0003916   0.0002336   0.0000014
   15   0.0000001   0.0000033   0.0000001   0.0000071  -0.0000075   0.0000003
   16   0.0000035   0.0002985  -0.0000075  -0.0000385   0.0017253   0.0000385
   17   0.0000001  -0.0000077   0.0000004   0.0000234   0.0000007   0.0000026
   18   0.0000071  -0.0000328   0.0000242   0.0009753   0.0007649   0.0000676
   19   0.0007742  -0.0210564   0.0058250   1.3484786  -0.0189955   0.0063628
   20   0.0053576   0.0567059   0.0007097  -0.0206233   0.0148607   0.0006476
   21   0.0006424   0.0007082   0.0000328   0.0058381   0.0008652   0.0002938
   22  -0.0141346   0.0483182   0.0065900   0.0341755  -0.0038584  -0.0002187
   23  -0.0002244   0.0053628   0.0006407   0.0007868   0.0002529   0.0000212
   24   0.9838055   1.5426041  -0.0077000  -0.0143665   0.0194886   0.0002192
   25   0.9717092  -0.0114355  -0.0003828   0.0060147   0.0006239   0.0000175
   26  -0.0114355   3.9440112   0.9862083   1.3002532  -0.0225116   0.0027262
   27  -0.0003828   0.9862083   0.9732827  -0.0322167   0.0093174   0.0021977
   28   0.0060147   1.3002532  -0.0322167   3.7545322   1.1415057  -0.0265248
   29   0.0006239  -0.0225116   0.0093174   1.1415057   3.7755018   0.9879089
   30   0.0000175   0.0027262   0.0021977  -0.0265248   0.9879089   0.9762276
   31   0.0000905   0.0260465   0.0011761  -0.0298111   1.5328203  -0.0176474
   32   0.0000550   0.0095168  -0.0000913   0.0152138   0.0506953   0.0083083
   33   0.0000005  -0.0000474   0.0000507   0.0009947   0.0082063   0.0026010
   34   0.0000209   0.0005515   0.0001248  -0.0010330   0.0168378   0.0010401
   35  -0.0000083   0.0017159   0.0000003   0.0007738   0.0161675   0.0000137
   36   0.0000002   0.0000380   0.0000028   0.0000769  -0.0000000   0.0000503
           31          32          33          34          35          36
    1   1.1712881  -0.0268430   0.0062910   0.0071323  -0.0064876  -0.0002336
    2  -0.0200093   0.0201672   0.0005979  -0.0065071   0.0067024   0.0000581
    3   0.0067856   0.0005733   0.0002777  -0.0002363   0.0000592  -0.0000073
    4  -0.0270644  -0.0220940  -0.0000795  -0.0269807   0.0202037   0.0005720
    5   0.0062701  -0.0000753   0.0001572   0.0062685   0.0006080   0.0002793
    6   0.0071879  -0.0270217   0.0062801   1.1717048  -0.0200506   0.0067785
    7  -0.0064235   0.0199547   0.0006110  -0.0198351   0.0121550   0.0004771
    8  -0.0002482   0.0005709   0.0002810   0.0067361   0.0004821   0.0001230
    9   0.0041762  -0.0000054  -0.0000919   0.0300918  -0.0188103   0.0063636
   10   0.0003672   0.0052015   0.0000627  -0.0048647   0.0149269   0.0006471
   11  -0.0000183   0.0000891  -0.0000064  -0.0004752   0.0008721   0.0002947
   12   0.0002089   0.0081818   0.0000468   0.0205710  -0.0039550  -0.0002193
   13   0.0000109   0.0000694   0.0000011   0.0001078   0.0002481   0.0000197
   14   0.0000938   0.0007620   0.0000264  -0.0005012   0.0195822   0.0002169
   15   0.0000202   0.0000548   0.0000005   0.0000801   0.0006317   0.0000190
   16   0.0005888   0.0094618  -0.0000456   0.0261610  -0.0226782   0.0027425
   17   0.0001226  -0.0000902   0.0000500   0.0011679   0.0093496   0.0022047
   18  -0.0009619   0.0150445   0.0010008  -0.0301950   1.1415810  -0.0264032
   19   0.0301771  -0.0002895  -0.0000852   0.0043410   0.0020606   0.0000555
   20  -0.0048052   0.0051604   0.0000639   0.0003731   0.0007030  -0.0000061
   21  -0.0004726   0.0000892  -0.0000064  -0.0000168   0.0000040   0.0000005
   22   0.0205073   0.0081969   0.0000476   0.0001848   0.0019234   0.0000132
   23   0.0001040   0.0000698   0.0000009   0.0000102   0.0000120   0.0000003
   24  -0.0004445   0.0007563   0.0000254   0.0001043   0.0002508   0.0000020
   25   0.0000905   0.0000550   0.0000005   0.0000209  -0.0000083   0.0000002
   26   0.0260465   0.0095168  -0.0000474   0.0005515   0.0017159   0.0000380
   27   0.0011761  -0.0000913   0.0000507   0.0001248   0.0000003   0.0000028
   28  -0.0298111   0.0152138   0.0009947  -0.0010330   0.0007738   0.0000769
   29   1.5328203   0.0506953   0.0082063   0.0168378   0.0161675  -0.0000000
   30  -0.0176474   0.0083083   0.0026010   0.0010401   0.0000137   0.0000503
   31   3.7718369   1.1201919  -0.0322552  -0.0339859   0.0167254   0.0010249
   32   1.1201919   3.4039015   1.0037397   1.1194476   0.0504799   0.0083600
   33  -0.0322552   1.0037397   0.9773152  -0.0322248   0.0081351   0.0026075
   34  -0.0339859   1.1194476  -0.0322248   3.7718661   1.5332814  -0.0176167
   35   0.0167254   0.0504799   0.0081351   1.5332814   3.7753747   0.9877159
   36   0.0010249   0.0083600   0.0026075  -0.0176167   0.9877159   0.9762580


 Total job time:  211066.83s(wall), 187111.29s(cpu) 
 Thu Oct 12 08:28:17 2023

        *************************************************************
        *                                                           *
        *  Thank you very much for using Q-Chem.  Have a nice day.  *
        *                                                           *
        *************************************************************


