                  Welcome to Q-Chem
     A Quantum Leap Into The Future Of Chemistry


 Q-Chem 6.0 (devel), Q-Chem, Inc., Pleasanton, CA (2022)

 E. Epifanovsky,  A. T. B. Gilbert,  Xintian Feng,  Joonho Lee,  Yuezhi Mao,  
 N. Mardirossian,  P. Pokhilko,  A. White,  M. Wormit,  M. P. Coons,  
 A. L. Dempwolff,  Zhengting Gan,  D. Hait,  P. R. Horn,  L. D. Jacobson,  
 I. Kaliman,  J. Kussmann,  A. W. Lange,  Ka Un Lao,  D. S. Levine,  Jie Liu,  
 S. C. McKenzie,  A. F. Morrison,  K. Nanda,  F. Plasser,  D. R. Rehn,  
 M. L. Vidal,  Zhi-Qiang You,  Ying Zhu,  B. Alam,  B. Albrecht,  
 A. Aldossary,  E. Alguire,  J. H. Andersen,  V. Athavale,  D. Barton,  
 K. Begam,  A. Behn,  N. Bellonzi,  Y. A. Bernard,  E. J. Berquist,  
 H. Burton,  A. Carreras,  K. Carter-Fenk,  Romit Chakraborty,  
 Chandrima Chakravarty,  Junhan Chen,  A. D. Chien,  K. D. Closser,  
 V. Cofer-Shabica,  L. Cunha,  S. Dasgupta,  Jia Deng,  M. de Wergifosse,  
 M. Diedenhofen,  Hainam Do,  S. Ehlert,  Po-Tung Fang,  S. Fatehi,  
 Qingguo Feng,  T. Friedhoff,  B. Ganoe,  J. Gayvert,  Qinghui Ge,  
 G. Gidofalvi,  M. Goldey,  J. Gomes,  C. Gonzalez-Espinoza,  S. Gulania,  
 A. Gunina,  J. A. Gyamfi,  M. W. D. Hanson-Heine,  P. H. P. Harbach,  
 A. W. Hauser,  M. F. Herbst,  M. Hernandez Vera,  M. Hodecker,  
 Z. C. Holden,  S. Houck,  Xunkun Huang,  Kerwin Hui,  B. C. Huynh,  
 K. Ikeda,  M. Ivanov,  Hyunjun Ji,  Zuxin Jin,  Hanjie Jiang,  B. Kaduk,  
 S. Kaehler,  R. Kang,  K. Khistyaev,  Jaehoon Kim,  Yongbin Kim,  
 P. Klunzinger,  Z. Koczor-Benda,  Joong Hoon Koh,  D. Kosenkov,  
 Saikiran Kotaru,  L. Koulias,  T. Kowalczyk,  C. M. Krauter,  K. Kue,  
 A. Kunitsa,  T. Kus,  A. Landau,  K. V. Lawler,  D. Lefrancois,  S. Lehtola,  
 Rain Li,  Shaozhi Li,  Yi-Pei Li,  Jiashu Liang,  M. Liebenthal,  
 Hung-Hsuan Lin,  You-Sheng Lin,  Fenglai Liu,  Kuan-Yu Liu,  
 M. Loipersberger,  A. Luenser,  C. Malbon,  A. Manjanath,  P. Manohar,  
 E. Mansoor,  S. F. Manzer,  Shan-Ping Mao,  A. V. Marenich,  T. Markovich,  
 S. Mason,  F. Matz,  S. A. Maurer,  P. F. McLaughlin,  M. F. S. J. Menger,  
 J.-M. Mewes,  S. A. Mewes,  P. Morgante,  Mohammad Mostafanejad,  
 J. W. Mullinax,  K. J. Oosterbaan,  G. Paran,  V. Parravicini,  
 Alexander C. Paul,  Suranjan K. Paul,  F. Pavosevic,  Zheng Pei,  S. Prager,  
 E. I. Proynov,  E. Ramos,  B. Rana,  A. E. Rask,  A. Rettig,  R. M. Richard,  
 F. Rob,  E. Rossomme,  T. Scheele,  M. Scheurer,  M. Schneider,  
 P. E. Schneider,  N. Sergueev,  S. M. Sharada,  Hengyuan Shen,  
 W. Skomorowski,  D. W. Small,  C. J. Stein,  Yingli Su,  Yu-Chuan Su,  
 E. J. Sundstrom,  Zhen Tao,  J. Thirman,  Hung-Yi Tsai,  T. Tsuchimochi,  
 N. M. Tubman,  C. Utku,  S. P. Veccham,  O. Vydrov,  J. Wenzel,  
 Jonathan Wong,  J. Witte,  A. Yamada,  Chou-Hsun Yang,  Kun Yao,  
 S. Yeganeh,  S. R. Yost,  A. Zech,  F. Zeller,  Igor Ying Zhang,  
 Xing Zhang,  Yu Zhang,  D. Zuev,  A. Aspuru-Guzik,  A. T. Bell,  
 N. A. Besley,  K. B. Bravaya,  B. R. Brooks,  D. Casanova,  Jeng-Da Chai,  
 Hsing-Ta Chen,  S. Coriani,  C. J. Cramer,  A. E. DePrince, III,  
 R. A. DiStasio Jr.,  A. Dreuw,  B. D. Dunietz,  T. R. Furlani,  
 W. A. Goddard III,  S. Grimme,  S. Hammes-Schiffer,  T. Head-Gordon,  
 W. J. Hehre,  Chao-Ping Hsu,  T.-C. Jagau,  Yousung Jung,  A. Klamt,  
 Jing Kong,  D. S. Lambrecht,  Xiangyuan Li,  WanZhen Liang,  N. J. Mayhall,  
 C. W. McCurdy,  J. B. Neaton,  T. Neudecker,  C. Ochsenfeld,  
 J. A. Parkhill,  R. Peverati,  V. A. Rassolov,  Haisheng Ren,  Yihan Shao,  
 L. V. Slipchenko,  R. P. Steele,  J. E. Subotnik,  A. J. W. Thom,  
 A. Tkatchenko,  D. G. Truhlar,  T. Van Voorhis,  Fan Wang,  
 T. A. Wesolowski,  K. B. Whaley,  H. L. Woodcock III,  P. M. Zimmerman,  
 S. Faraji,  P. M. W. Gill,  M. Head-Gordon,  J. M. Herbert,  A. I. Krylov

 Contributors to earlier versions of Q-Chem not listed above: 
 R. D. Adamson,  B. Austin,  R. Baer,  J. Baker,  G. J. O. Beran,  
 K. Brandhorst,  S. T. Brown,  E. F. C. Byrd,  Arup K. Chakraborty,  
 G. K. L. Chan,  Chun-Min Chang,  Yunqing Chen,  C.-L. Cheng,  
 Siu Hung Chien,  D. M. Chipman,  D. L. Crittenden,  H. Dachsel,  
 R. J. Doerksen,  A. D. Dutoi,  R. G. Edgar,  J. Fosso-Tande,  
 L. Fusti-Molnar,  D. Ghosh,  A. Ghysels,  A. Golubeva-Zadorozhnaya,  
 J. Gonthier,  M. S. Gordon,  S. R. Gwaltney,  G. Hawkins,  J. E. Herr,  
 A. Heyden,  S. Hirata,  E. G. Hohenstein,  G. Kedziora,  F. J. Keil,  
 C. Kelley,  Jihan Kim,  R. A. King,  R. Z. Khaliullin,  P. P. Korambath,  
 W. Kurlancheek,  A. Laurent,  A. M. Lee,  M. S. Lee,  S. V. Levchenko,  
 Ching Yeh Lin,  D. Liotard,  E. Livshits,  R. C. Lochan,  I. Lotan,  
 L. A. Martinez-Martinez,  P. E. Maslen,  N. Nair,  D. P. O'Neill,  
 D. Neuhauser,  E. Neuscamman,  C. M. Oana,  R. Olivares-Amaya,  R. Olson,  
 T. M. Perrine,  B. Peters,  P. A. Pieniazek,  A. Prociuk,  Y. M. Rhee,  
 J. Ritchie,  M. A. Rohrdanz,  E. Rosta,  N. J. Russ,  H. F. Schaefer III,  
 M. W. Schmidt,  N. E. Schultz,  S. Sharma,  N. Shenvi,  C. D. Sherrill,  
 A. C. Simmonett,  A. Sodt,  T. Stein,  D. Stuck,  K. S. Thanthiriwatte,  
 V. Vanovschi,  L. Vogt,  Tao Wang,  A. Warshel,  M. A. Watson,  
 C. F. Williams,  Q. Wu,  X. Xu,  Jun Yang,  W. Zhang,  Yan Zhao

   Please cite Q-Chem as follows:
  "Software for the frontiers of quantum chemistry:
   An overview of developments in the Q-Chem 5 package"
   J. Chem. Phys. 155, 084801 (2021)
   https://doi.org/10.1063/5.0055522 (open access)

 Q-Chem 6.0.1 for Intel X86 EM64T Linux

 Parts of Q-Chem use Armadillo 9.900.5 (Nocturnal Misbehaviour).
 http://arma.sourceforge.net/

 Q-Chem begins on Fri Jan 19 10:26:04 2024  

 Host: atlas-fdr-login-02
0

     Scratch files written to ./qchem3177//
 Processing $rem in /scratch/abel/SOFTWARE/qchem/config/preferences:
 Processing $rem in /dipc/acebg/.qchemrc:

 Checking the input file for inconsistencies... 	...done.

--------------------------------------------------------------
User input:
--------------------------------------------------------------
$comment
 TD-DFT/TDA CALCULATION
$end

$molecule
 READ h2o_singlet.molecule
$end

$rem
!**REFERENCE***     
JOBTYPE            SP
EXCHANGE           GEN   !gen:specify in $xc_functional
CORRELATION        NONE
BASIS              STO-3G

!***SCF REFERENCE***
!INPUT_BOHR          TRUE
!SKIP_SCFMAN        FALSE
!UNRESTRICTED       FALSE !rectricted-TDDFT not avail in doublets
!SCF_GUESS          core
!SCF_GUESS_MIX      FALSE
!SCF_GUESS_ALWAYS   FALSE
MAX_SCF_CYCLES     500
!SCF_CONVERGENCE    10
!SCF_ALGORITHM      DIIS !DIIS,DM,DIIS_DM,GDM,DIIS_GDM,GD

!SYMMETRY           TRUE !use of symmetry for calculating integrals
!SYM_IGNORE         FALSE !turn off using symmetry
!SYM_TOL            5 !tolerance for determining point group

!THRESH             14
!SCF_FINAL_PRINT    2 !0,1,2,3

!****CIS****
CIS_N_ROOTS        20
!CIS_CONVERGENCE   10
MAX_CIS_CYCLES     200
CIS_SINGLETS      true
CIS_TRIPLETS      true
CALC_SOC           2 !not available in doublets in TDDFT
STS_ANGMOM        true !orbit. ang. moment. between states
!RPA                FALSE !in default RPA=1 and TDA calc used as guess of TDDFT

!Spin-orbit coupling calculations are implemented for
!restricted, unrestricted CIS/TDDFT, and SF TDDFT
!using Wigner-Eckart theorem: Try CALC_SOC = 2.
!TDDFT based on a restricted open-shell reference is not available

!****MEMORY****
!MEM_TOTAL          80000        !Default 2000 MB
!MEM_STATIC         25000         !Default 64 MB

!**Molecular Properties and Analysis **
!POP_MULLIKEN       FALSE   !Run Mulliken population analysis
!LOWDIN_POPULATION  FALSE  !Run Löwdin population analysis
GUI                0
!STATE_ANALYSIS     TRUE
!MOLDEN_FORMAT      FALSE
!PRINT_ORBITALS     5
!CIS_MOMENTS        TRUE !TDA Excited-State Multipoles
$end

$xc_functional
!**50-50 functional**
X  HF    0.50
X  S     0.08
X  B     0.42
C  VWN   0.19
C  LYP   0.81
$end

--------------------------------------------------------------
 ----------------------------------------------------------------
             Standard Nuclear Orientation (Angstroms)
    I     Atom           X                Y                Z
 ----------------------------------------------------------------
    1      O       0.0000000000     0.0000000000     0.1155512138
    2      H      -0.8125311840    -0.0000000000    -0.4622048550
    3      H       0.8125311840    -0.0000000000    -0.4622048550
 ----------------------------------------------------------------
 Molecular Point Group                 C2v   NOp =  4
 Largest Abelian Subgroup              C2v   NOp =  4
 Nuclear Repulsion Energy =           8.81794733 hartrees
 There are        5 alpha and        5 beta electrons
 Requested basis set is STO-3G
 There are 4 shells and 7 basis functions

 Total QAlloc Memory Limit   2000 MB
 Mega-Array Size       188 MB
 MEM_STATIC part       192 MB


                       Distance Matrix (Angstroms)
             O (  1)   H (  2)
   H (  2)  0.997000
   H (  3)  0.997000  1.625062
 
 A cutoff of  1.0D-12 yielded     10 shell pairs
 There are        34 function pairs
 Smallest overlap matrix eigenvalue = 3.69E-01

 Scale SEOQF with 1.000000e+00/1.000000e+00/1.000000e+00

 Standard Electronic Orientation quadrupole field applied
 Nucleus-field energy     =    -0.0000000001 hartrees
 Guess from superposition of atomic densities
 Warning:  Energy on first SCF cycle will be non-variational
 SAD guess density has 10.000000 electrons

 -----------------------------------------------------------------------
  General SCF calculation program by
  Eric Jon Sundstrom, Paul Horn, Yuezhi Mao, Dmitri Zuev, Alec White,
  David Stuck, Shaama M.S., Shane Yost, Joonho Lee, David Small,
  Daniel Levine, Susi Lehtola, Hugh Burton, Evgeny Epifanovsky,
  Bang C. Huynh
 -----------------------------------------------------------------------
 Exchange:     0.5000 Hartree-Fock + 0.0800 Slater + 0.4200 B88
 Correlation:  0.1900 VWN5 + 0.8100 LYP
 Using SG-1 standard quadrature grid
 A restricted SCF calculation will be
 performed using DIIS
 SCF converges when DIIS error is below 1.0e-08
 ---------------------------------------
  Cycle       Energy         DIIS error
 ---------------------------------------
    1     -75.0454937122      3.78e-01  
    2     -75.2505861223      6.05e-02  
    3     -75.2785072269      2.64e-02  
    4     -75.2840262890      6.91e-04  
    5     -75.2840304110      1.24e-05  
    6     -75.2840304133      2.17e-06  
    7     -75.2840304134      1.91e-08  
    8     -75.2840304134      8.35e-12  Convergence criterion met
 ---------------------------------------
 SCF time:   CPU 0.24s  wall 1.00s 
 SCF   energy in the final basis set =      -75.2840304134
 Total energy in the final basis set =      -75.2840304134
 
 MAX_CIS_SUBSPACE fits in available memory
 Direct TDDFT/TDA calculation will be performed
 Exchange:     0.5000 Hartree-Fock + 0.0800 Slater + 0.4200 B88
 Correlation:  0.1900 VWN5 + 0.8100 LYP
 Using SG-1 standard quadrature grid
 Triplet excitation energies requested
 Singlet excitation energies requested
 Defaulting to maximum number of CIS states:    10
 CIS energy converged when residual is below 10e- 6
 ---------------------------------------------------
 Iter    Rts Conv    Rts Left    Ttl Dev     Max Dev
 ---------------------------------------------------
   1        10           0      0.000000    0.000000    Roots Converged
 ---------------------------------------------------
 Triplets done: starting singlet calculation
 ---------------------------------------------------
 Iter    Rts Conv    Rts Left    Ttl Dev     Max Dev
 ---------------------------------------------------
   2        10           0      0.000000    0.000000    Roots Converged
 ---------------------------------------------------
 
 ---------------------------------------------------
         TDDFT/TDA Excitation Energies              
 ---------------------------------------------------

 Excited state   1: excitation energy (eV) =    9.0978
 Total energy for state  1:                   -74.94969406 au
    Multiplicity: Triplet
    Trans. Mom.:  0.0000 X   0.0000 Y   0.0000 Z
    Strength   :     0.0000000000
    D(    5) --> V(    1) amplitude =  1.0000

 Excited state   2: excitation energy (eV) =   11.0080
 Total energy for state  2:                   -74.87949344 au
    Multiplicity: Singlet
    Trans. Mom.:  0.0000 X  -0.1024 Y   0.0000 Z
    Strength   :     0.0028282192
    D(    5) --> V(    1) amplitude =  1.0000

 Excited state   3: excitation energy (eV) =   11.2693
 Total energy for state  3:                   -74.86989091 au
    Multiplicity: Triplet
    Trans. Mom.:  0.0000 X   0.0000 Y   0.0000 Z
    Strength   :     0.0000000000
    D(    4) --> V(    1) amplitude =  0.9892

 Excited state   4: excitation energy (eV) =   12.2462
 Total energy for state  4:                   -74.83399262 au
    Multiplicity: Triplet
    Trans. Mom.:  0.0000 X   0.0000 Y   0.0000 Z
    Strength   :     0.0000000000
    D(    5) --> V(    2) amplitude =  1.0000

 Excited state   5: excitation energy (eV) =   13.5083
 Total energy for state  5:                   -74.78761032 au
    Multiplicity: Singlet
    Trans. Mom.: -0.0000 X   0.0000 Y   0.0000 Z
    Strength   :     0.0000000000
    D(    5) --> V(    2) amplitude =  1.0000

 Excited state   6: excitation energy (eV) =   13.8292
 Total energy for state  6:                   -74.77581814 au
    Multiplicity: Triplet
    Trans. Mom.:  0.0000 X   0.0000 Y   0.0000 Z
    Strength   :     0.0000000000
    D(    3) --> V(    1) amplitude = -0.3839
    D(    4) --> V(    2) amplitude =  0.9231

 Excited state   7: excitation energy (eV) =   14.1383
 Total energy for state  7:                   -74.76445850 au
    Multiplicity: Singlet
    Trans. Mom.: -0.0000 X  -0.0000 Y  -0.4354 Z
    Strength   :     0.0656551407
    D(    3) --> V(    2) amplitude =  0.2281
    D(    4) --> V(    1) amplitude =  0.9712

 Excited state   8: excitation energy (eV) =   16.5699
 Total energy for state  8:                   -74.67509886 au
    Multiplicity: Triplet
    Trans. Mom.:  0.0000 X   0.0000 Y   0.0000 Z
    Strength   :     0.0000000000
    D(    3) --> V(    1) amplitude =  0.9183
    D(    4) --> V(    2) amplitude =  0.3841

 Excited state   9: excitation energy (eV) =   17.1716
 Total energy for state  9:                   -74.65298594 au
    Multiplicity: Singlet
    Trans. Mom.:  0.3466 X   0.0000 Y  -0.0000 Z
    Strength   :     0.0505489190
    D(    3) --> V(    1) amplitude =  0.4303
    D(    4) --> V(    2) amplitude =  0.9021

 Excited state  10: excitation energy (eV) =   19.1644
 Total energy for state 10:                   -74.57975001 au
    Multiplicity: Triplet
    Trans. Mom.:  0.0000 X   0.0000 Y   0.0000 Z
    Strength   :     0.0000000000
    D(    3) --> V(    2) amplitude =  0.9811

 Excited state  11: excitation energy (eV) =   20.8813
 Total energy for state 11:                   -74.51665666 au
    Multiplicity: Singlet
    Trans. Mom.: -1.5677 X  -0.0000 Y  -0.0000 Z
    Strength   :     1.2572309942
    D(    3) --> V(    1) amplitude =  0.9027
    D(    4) --> V(    2) amplitude = -0.4301

 Excited state  12: excitation energy (eV) =   27.1683
 Total energy for state 12:                   -74.28561224 au
    Multiplicity: Singlet
    Trans. Mom.: -0.0000 X   0.0000 Y   0.9134 Z
    Strength   :     0.5553453427
    D(    2) --> V(    1) amplitude =  0.3065
    D(    3) --> V(    2) amplitude =  0.9313

 Excited state  13: excitation energy (eV) =   30.7095
 Total energy for state 13:                   -74.15547656 au
    Multiplicity: Triplet
    Trans. Mom.:  0.0000 X   0.0000 Y   0.0000 Z
    Strength   :     0.0000000000
    D(    2) --> V(    1) amplitude =  0.9887

 Excited state  14: excitation energy (eV) =   34.2250
 Total energy for state 14:                   -74.02628646 au
    Multiplicity: Triplet
    Trans. Mom.:  0.0000 X   0.0000 Y   0.0000 Z
    Strength   :     0.0000000000
    D(    2) --> V(    2) amplitude =  0.9952

 Excited state  15: excitation energy (eV) =   36.9063
 Total energy for state 15:                   -73.92774894 au
    Multiplicity: Singlet
    Trans. Mom.: -0.0000 X  -0.0000 Y  -0.4646 Z
    Strength   :     0.1951810436
    D(    2) --> V(    1) amplitude =  0.9494
    D(    3) --> V(    2) amplitude = -0.2841

 Excited state  16: excitation energy (eV) =   37.2839
 Total energy for state 16:                   -73.91387150 au
    Multiplicity: Singlet
    Trans. Mom.:  0.1902 X  -0.0000 Y  -0.0000 Z
    Strength   :     0.0330530443
    D(    2) --> V(    2) amplitude =  0.9994

 Excited state  17: excitation energy (eV) =  526.8496
 Total energy for state 17:                   -55.92266248 au
    Multiplicity: Triplet
    Trans. Mom.:  0.0000 X   0.0000 Y   0.0000 Z
    Strength   :     0.0000000000
    D(    1) --> V(    1) amplitude =  1.0000

 Excited state  18: excitation energy (eV) =  528.4260
 Total energy for state 18:                   -55.86473139 au
    Multiplicity: Singlet
    Trans. Mom.:  0.0000 X   0.0000 Y  -0.0634 Z
    Strength   :     0.0520234114
    D(    1) --> V(    1) amplitude =  1.0000

 Excited state  19: excitation energy (eV) =  529.4885
 Total energy for state 19:                   -55.82568397 au
    Multiplicity: Triplet
    Trans. Mom.:  0.0000 X   0.0000 Y   0.0000 Z
    Strength   :     0.0000000000
    D(    1) --> V(    2) amplitude =  1.0000

 Excited state  20: excitation energy (eV) =  530.5967
 Total energy for state 20:                   -55.78496160 au
    Multiplicity: Singlet
    Trans. Mom.:  0.0825 X   0.0000 Y  -0.0000 Z
    Strength   :     0.0883979490
    D(    1) --> V(    2) amplitude =  1.0000
 
 ---------------------------------------------------
  SETman timing summary (seconds)
  CPU time                 0.09s
  System time              0.00s
  Wall time                0.19s



            *********SPIN-ORBIT COUPLING JOB USING WIGNER–ECKART THEOREM BEGINS HERE*********

 Calculating one electron integrals:  Completed calculation of one electron integrals!
 Calculating MF integrals:  Completed calculation of MF integrals!
 Calculating S^2 values of the spin-states: S^2 values computed!
 Computing transition densities and evaluating SOCME with Libwe: 

**************************************************
 State A: Ground state
 State B: T1
 Analysing Sz ans S^2 of the pair of states...
 Ket state:  Computed S^2 = 0.0000000000 will be treated as 0.0000000000 Sz = 0.0000000000
 Bra state:  Computed S^2 = 2.0000000000 will be treated as 2.0000000000 Sz = 0.0000000000
 Clebsh-Gordan coefficient: <0.000,0.000;1.000,0.000|1.000,0.000> = 1.000

_______________________________
 One-electron SO (cm-1)
 Reduced matrix elements:
 <S|| Hso(L-) ||S'> = (-0.000000,53.073614)
 <S|| Hso(L0) ||S'> = (0.000000,0.000000)
 <S|| Hso(L+) ||S'> = (-0.000000,-53.073614)

 SOCC = 75.057425


 Actual matrix elements:
       |Sz=0.00>
 <Sz=-1.00|(-0.000000,-53.073614)
 <Sz=0.00|(0.000000,0.000000)
 <Sz=1.00|(-0.000000,53.073614)
_______________________________
 Mean-field SO (cm-1)
 Reduced matrix elements:
 <S|| Hso(L-) ||S'> = (-0.000000,33.915782)
 <S|| Hso(L0) ||S'> = (0.000000,0.000000)
 <S|| Hso(L+) ||S'> = (-0.000000,-33.915782)

 Singlet part of <S|| Hso(L0) ||S'> = (-0.000000,0.000000) (excluded from all matrix elements)
 L-/L+ Averaged reduced matrix elements:
 <S|| Hso(L-) ||S'> = (-0.000000,33.915782)
 <S|| Hso(L+) ||S'> = (-0.000000,-33.915782)

 SOCC = 47.964159


 Actual matrix elements:
       |Sz=0.00>
 <Sz=-1.00|(-0.000000,-33.915782)
 <Sz=0.00|(0.000000,0.000000)
 <Sz=1.00|(-0.000000,33.915782)
_______________________________

**************************************************

**************************************************
 State A: Ground state
 State B: T2
 Analysing Sz ans S^2 of the pair of states...
 Ket state:  Computed S^2 = 0.000000 will be treated as 0.000000 Sz = 0.000000
 Bra state:  Computed S^2 = 2.000000 will be treated as 2.000000 Sz = 0.000000
 Clebsh-Gordan coefficient: <0.000,0.000;1.000,0.000|1.000,0.000> = 1.000

_______________________________
 One-electron SO (cm-1)
 Reduced matrix elements:
 <S|| Hso(L-) ||S'> = (-0.000000,0.000000)
 <S|| Hso(L0) ||S'> = (0.000000,0.000000)
 <S|| Hso(L+) ||S'> = (-0.000000,-0.000000)

 SOCC = 0.000000


 Actual matrix elements:
       |Sz=0.00>
 <Sz=-1.00|(-0.000000,-0.000000)
 <Sz=0.00|(0.000000,0.000000)
 <Sz=1.00|(-0.000000,0.000000)
_______________________________
 Mean-field SO (cm-1)
 Reduced matrix elements:
 <S|| Hso(L-) ||S'> = (-0.000000,0.000000)
 <S|| Hso(L0) ||S'> = (0.000000,0.000000)
 <S|| Hso(L+) ||S'> = (-0.000000,-0.000000)

 Singlet part of <S|| Hso(L0) ||S'> = (-0.000000,0.000000) (excluded from all matrix elements)
 L-/L+ Averaged reduced matrix elements:
 <S|| Hso(L-) ||S'> = (-0.000000,0.000000)
 <S|| Hso(L+) ||S'> = (-0.000000,-0.000000)

 SOCC = 0.000000


 Actual matrix elements:
       |Sz=0.00>
 <Sz=-1.00|(-0.000000,-0.000000)
 <Sz=0.00|(0.000000,0.000000)
 <Sz=1.00|(-0.000000,0.000000)
_______________________________

**************************************************

**************************************************
 State A: Ground state
 State B: T3
 Analysing Sz ans S^2 of the pair of states...
 Ket state:  Computed S^2 = 0.000000 will be treated as 0.000000 Sz = 0.000000
 Bra state:  Computed S^2 = 2.000000 will be treated as 2.000000 Sz = 0.000000
 Clebsh-Gordan coefficient: <0.000,0.000;1.000,0.000|1.000,0.000> = 1.000

_______________________________
 One-electron SO (cm-1)
 Reduced matrix elements:
 <S|| Hso(L-) ||S'> = (-0.000000,0.000000)
 <S|| Hso(L0) ||S'> = (0.000000,-101.039497)
 <S|| Hso(L+) ||S'> = (-0.000000,-0.000000)

 SOCC = 101.039497


 Actual matrix elements:
       |Sz=0.00>
 <Sz=-1.00|(-0.000000,-0.000000)
 <Sz=0.00|(0.000000,-101.039497)
 <Sz=1.00|(-0.000000,0.000000)
_______________________________
 Mean-field SO (cm-1)
 Reduced matrix elements:
 <S|| Hso(L-) ||S'> = (-0.000000,0.000000)
 <S|| Hso(L0) ||S'> = (0.000000,-63.632704)
 <S|| Hso(L+) ||S'> = (-0.000000,-0.000000)

 Singlet part of <S|| Hso(L0) ||S'> = (-0.000000,0.000000) (excluded from all matrix elements)
 L-/L+ Averaged reduced matrix elements:
 <S|| Hso(L-) ||S'> = (-0.000000,0.000000)
 <S|| Hso(L+) ||S'> = (-0.000000,-0.000000)

 SOCC = 63.632704


 Actual matrix elements:
       |Sz=0.00>
 <Sz=-1.00|(-0.000000,-0.000000)
 <Sz=0.00|(0.000000,-63.632704)
 <Sz=1.00|(-0.000000,0.000000)
_______________________________

**************************************************

**************************************************
 State A: Ground state
 State B: T4
 Analysing Sz ans S^2 of the pair of states...
 Ket state:  Computed S^2 = 0.000000 will be treated as 0.000000 Sz = 0.000000
 Bra state:  Computed S^2 = 2.000000 will be treated as 2.000000 Sz = 0.000000
 Clebsh-Gordan coefficient: <0.000,0.000;1.000,0.000|1.000,0.000> = 1.000

_______________________________
 One-electron SO (cm-1)
 Reduced matrix elements:
 <S|| Hso(L-) ||S'> = (39.636314,-0.000000)
 <S|| Hso(L0) ||S'> = (0.000000,-0.000000)
 <S|| Hso(L+) ||S'> = (39.636314,0.000000)

 SOCC = 56.054212


 Actual matrix elements:
       |Sz=0.00>
 <Sz=-1.00|(39.636314,0.000000)
 <Sz=0.00|(0.000000,-0.000000)
 <Sz=1.00|(39.636314,-0.000000)
_______________________________
 Mean-field SO (cm-1)
 Reduced matrix elements:
 <S|| Hso(L-) ||S'> = (24.283278,-0.000000)
 <S|| Hso(L0) ||S'> = (0.000000,-0.000000)
 <S|| Hso(L+) ||S'> = (24.283278,0.000000)

 Singlet part of <S|| Hso(L0) ||S'> = (-0.000000,0.000000) (excluded from all matrix elements)
 L-/L+ Averaged reduced matrix elements:
 <S|| Hso(L-) ||S'> = (24.283278,-0.000000)
 <S|| Hso(L+) ||S'> = (24.283278,0.000000)

 SOCC = 34.341741


 Actual matrix elements:
       |Sz=0.00>
 <Sz=-1.00|(24.283278,0.000000)
 <Sz=0.00|(0.000000,-0.000000)
 <Sz=1.00|(24.283278,-0.000000)
_______________________________

**************************************************

**************************************************
 State A: Ground state
 State B: T5
 Analysing Sz ans S^2 of the pair of states...
 Ket state:  Computed S^2 = 0.000000 will be treated as 0.000000 Sz = 0.000000
 Bra state:  Computed S^2 = 2.000000 will be treated as 2.000000 Sz = 0.000000
 Clebsh-Gordan coefficient: <0.000,0.000;1.000,0.000|1.000,0.000> = 1.000

_______________________________
 One-electron SO (cm-1)
 Reduced matrix elements:
 <S|| Hso(L-) ||S'> = (52.477664,0.000000)
 <S|| Hso(L0) ||S'> = (0.000000,-0.000000)
 <S|| Hso(L+) ||S'> = (52.477664,-0.000000)

 SOCC = 74.214624


 Actual matrix elements:
       |Sz=0.00>
 <Sz=-1.00|(52.477664,-0.000000)
 <Sz=0.00|(0.000000,-0.000000)
 <Sz=1.00|(52.477664,0.000000)
_______________________________
 Mean-field SO (cm-1)
 Reduced matrix elements:
 <S|| Hso(L-) ||S'> = (31.600133,0.000000)
 <S|| Hso(L0) ||S'> = (0.000000,-0.000000)
 <S|| Hso(L+) ||S'> = (31.600133,-0.000000)

 Singlet part of <S|| Hso(L0) ||S'> = (-0.000000,0.000000) (excluded from all matrix elements)
 L-/L+ Averaged reduced matrix elements:
 <S|| Hso(L-) ||S'> = (31.600133,0.000000)
 <S|| Hso(L+) ||S'> = (31.600133,-0.000000)

 SOCC = 44.689337


 Actual matrix elements:
       |Sz=0.00>
 <Sz=-1.00|(31.600133,-0.000000)
 <Sz=0.00|(0.000000,-0.000000)
 <Sz=1.00|(31.600133,0.000000)
_______________________________

**************************************************

**************************************************
 State A: Ground state
 State B: T6
 Analysing Sz ans S^2 of the pair of states...
 Ket state:  Computed S^2 = 0.000000 will be treated as 0.000000 Sz = 0.000000
 Bra state:  Computed S^2 = 2.000000 will be treated as 2.000000 Sz = 0.000000
 Clebsh-Gordan coefficient: <0.000,0.000;1.000,0.000|1.000,0.000> = 1.000

_______________________________
 One-electron SO (cm-1)
 Reduced matrix elements:
 <S|| Hso(L-) ||S'> = (0.000000,0.000000)
 <S|| Hso(L0) ||S'> = (0.000000,0.000000)
 <S|| Hso(L+) ||S'> = (0.000000,-0.000000)

 SOCC = 0.000000


 Actual matrix elements:
       |Sz=0.00>
 <Sz=-1.00|(0.000000,-0.000000)
 <Sz=0.00|(0.000000,0.000000)
 <Sz=1.00|(0.000000,0.000000)
_______________________________
 Mean-field SO (cm-1)
 Reduced matrix elements:
 <S|| Hso(L-) ||S'> = (0.000000,0.000000)
 <S|| Hso(L0) ||S'> = (0.000000,0.000000)
 <S|| Hso(L+) ||S'> = (0.000000,-0.000000)

 Singlet part of <S|| Hso(L0) ||S'> = (-0.000000,0.000000) (excluded from all matrix elements)
 L-/L+ Averaged reduced matrix elements:
 <S|| Hso(L-) ||S'> = (0.000000,0.000000)
 <S|| Hso(L+) ||S'> = (0.000000,-0.000000)

 SOCC = 0.000000


 Actual matrix elements:
       |Sz=0.00>
 <Sz=-1.00|(0.000000,-0.000000)
 <Sz=0.00|(0.000000,0.000000)
 <Sz=1.00|(0.000000,0.000000)
_______________________________

**************************************************

**************************************************
 State A: Ground state
 State B: T7
 Analysing Sz ans S^2 of the pair of states...
 Ket state:  Computed S^2 = 0.000000 will be treated as 0.000000 Sz = 0.000000
 Bra state:  Computed S^2 = 2.000000 will be treated as 2.000000 Sz = 0.000000
 Clebsh-Gordan coefficient: <0.000,0.000;1.000,0.000|1.000,0.000> = 1.000

_______________________________
 One-electron SO (cm-1)
 Reduced matrix elements:
 <S|| Hso(L-) ||S'> = (-0.000000,0.000000)
 <S|| Hso(L0) ||S'> = (0.000000,0.000000)
 <S|| Hso(L+) ||S'> = (-0.000000,-0.000000)

 SOCC = 0.000000


 Actual matrix elements:
       |Sz=0.00>
 <Sz=-1.00|(-0.000000,-0.000000)
 <Sz=0.00|(0.000000,0.000000)
 <Sz=1.00|(-0.000000,0.000000)
_______________________________
 Mean-field SO (cm-1)
 Reduced matrix elements:
 <S|| Hso(L-) ||S'> = (-0.000000,0.000000)
 <S|| Hso(L0) ||S'> = (0.000000,0.000000)
 <S|| Hso(L+) ||S'> = (-0.000000,-0.000000)

 Singlet part of <S|| Hso(L0) ||S'> = (-0.000000,0.000000) (excluded from all matrix elements)
 L-/L+ Averaged reduced matrix elements:
 <S|| Hso(L-) ||S'> = (-0.000000,0.000000)
 <S|| Hso(L+) ||S'> = (-0.000000,-0.000000)

 SOCC = 0.000000


 Actual matrix elements:
       |Sz=0.00>
 <Sz=-1.00|(-0.000000,-0.000000)
 <Sz=0.00|(0.000000,0.000000)
 <Sz=1.00|(-0.000000,0.000000)
_______________________________

**************************************************

**************************************************
 State A: Ground state
 State B: T8
 Analysing Sz ans S^2 of the pair of states...
 Ket state:  Computed S^2 = 0.000000 will be treated as 0.000000 Sz = 0.000000
 Bra state:  Computed S^2 = 2.000000 will be treated as 2.000000 Sz = 0.000000
 Clebsh-Gordan coefficient: <0.000,0.000;1.000,0.000|1.000,0.000> = 1.000

_______________________________
 One-electron SO (cm-1)
 Reduced matrix elements:
 <S|| Hso(L-) ||S'> = (15.859261,-0.000000)
 <S|| Hso(L0) ||S'> = (0.000000,-0.000000)
 <S|| Hso(L+) ||S'> = (15.859261,0.000000)

 SOCC = 22.428382


 Actual matrix elements:
       |Sz=0.00>
 <Sz=-1.00|(15.859261,0.000000)
 <Sz=0.00|(0.000000,-0.000000)
 <Sz=1.00|(15.859261,-0.000000)
_______________________________
 Mean-field SO (cm-1)
 Reduced matrix elements:
 <S|| Hso(L-) ||S'> = (9.339401,-0.000000)
 <S|| Hso(L0) ||S'> = (0.000000,-0.000000)
 <S|| Hso(L+) ||S'> = (9.339401,0.000000)

 Singlet part of <S|| Hso(L0) ||S'> = (-0.000000,0.000000) (excluded from all matrix elements)
 L-/L+ Averaged reduced matrix elements:
 <S|| Hso(L-) ||S'> = (9.339401,-0.000000)
 <S|| Hso(L+) ||S'> = (9.339401,0.000000)

 SOCC = 13.207907


 Actual matrix elements:
       |Sz=0.00>
 <Sz=-1.00|(9.339401,0.000000)
 <Sz=0.00|(0.000000,-0.000000)
 <Sz=1.00|(9.339401,-0.000000)
_______________________________

**************************************************

**************************************************
 State A: Ground state
 State B: T9
 Analysing Sz ans S^2 of the pair of states...
 Ket state:  Computed S^2 = 0.000000 will be treated as 0.000000 Sz = 0.000000
 Bra state:  Computed S^2 = 2.000000 will be treated as 2.000000 Sz = 0.000000
 Clebsh-Gordan coefficient: <0.000,0.000;1.000,0.000|1.000,0.000> = 1.000

_______________________________
 One-electron SO (cm-1)
 Reduced matrix elements:
 <S|| Hso(L-) ||S'> = (-0.000000,0.000000)
 <S|| Hso(L0) ||S'> = (0.000000,-0.000000)
 <S|| Hso(L+) ||S'> = (-0.000000,-0.000000)

 SOCC = 0.000000


 Actual matrix elements:
       |Sz=0.00>
 <Sz=-1.00|(-0.000000,-0.000000)
 <Sz=0.00|(0.000000,-0.000000)
 <Sz=1.00|(-0.000000,0.000000)
_______________________________
 Mean-field SO (cm-1)
 Reduced matrix elements:
 <S|| Hso(L-) ||S'> = (-0.000000,0.000000)
 <S|| Hso(L0) ||S'> = (0.000000,-0.000000)
 <S|| Hso(L+) ||S'> = (-0.000000,-0.000000)

 Singlet part of <S|| Hso(L0) ||S'> = (-0.000000,0.000000) (excluded from all matrix elements)
 L-/L+ Averaged reduced matrix elements:
 <S|| Hso(L-) ||S'> = (-0.000000,0.000000)
 <S|| Hso(L+) ||S'> = (-0.000000,-0.000000)

 SOCC = 0.000000


 Actual matrix elements:
       |Sz=0.00>
 <Sz=-1.00|(-0.000000,-0.000000)
 <Sz=0.00|(0.000000,-0.000000)
 <Sz=1.00|(-0.000000,0.000000)
_______________________________

**************************************************

**************************************************
 State A: Ground state
 State B: T10
 Analysing Sz ans S^2 of the pair of states...
 Ket state:  Computed S^2 = 0.000000 will be treated as 0.000000 Sz = 0.000000
 Bra state:  Computed S^2 = 2.000000 will be treated as 2.000000 Sz = 0.000000
 Clebsh-Gordan coefficient: <0.000,0.000;1.000,0.000|1.000,0.000> = 1.000

_______________________________
 One-electron SO (cm-1)
 Reduced matrix elements:
 <S|| Hso(L-) ||S'> = (0.607814,-0.000000)
 <S|| Hso(L0) ||S'> = (0.000000,-0.000000)
 <S|| Hso(L+) ||S'> = (0.607814,0.000000)

 SOCC = 0.859578


 Actual matrix elements:
       |Sz=0.00>
 <Sz=-1.00|(0.607814,0.000000)
 <Sz=0.00|(0.000000,-0.000000)
 <Sz=1.00|(0.607814,-0.000000)
_______________________________
 Mean-field SO (cm-1)
 Reduced matrix elements:
 <S|| Hso(L-) ||S'> = (1.832113,-0.000000)
 <S|| Hso(L0) ||S'> = (0.000000,-0.000000)
 <S|| Hso(L+) ||S'> = (1.832113,0.000000)

 Singlet part of <S|| Hso(L0) ||S'> = (-0.000000,0.000000) (excluded from all matrix elements)
 L-/L+ Averaged reduced matrix elements:
 <S|| Hso(L-) ||S'> = (1.832113,-0.000000)
 <S|| Hso(L+) ||S'> = (1.832113,0.000000)

 SOCC = 2.590999


 Actual matrix elements:
       |Sz=0.00>
 <Sz=-1.00|(1.832113,0.000000)
 <Sz=0.00|(0.000000,-0.000000)
 <Sz=1.00|(1.832113,-0.000000)
_______________________________

**************************************************

**************************************************
 State A: Ground state
 State B: S1
 Analysing Sz ans S^2 of the pair of states...
 Ket state:  Computed S^2 = 0.000000 will be treated as 0.000000 Sz = 0.000000
 Bra state:  Computed S^2 = 0.000000 will be treated as 0.000000 Sz = 0.000000
 Clebsh-Gordan coefficient: <0.000,0.000;1.000,0.000|0.000,0.000> = 0.000
WARNING! Clebsh-Gordon coefficient is too small to find a rotationally invariant part of triplet density.
Please use another EOM approach with non-zero Clebsh-Gordon coefficients
I am going to skip this state pair
_______________________________

**************************************************

**************************************************
 State A: Ground state
 State B: S2
 Analysing Sz ans S^2 of the pair of states...
 Ket state:  Computed S^2 = 0.000 will be treated as 0.000 Sz = 0.000
 Bra state:  Computed S^2 = 0.000 will be treated as 0.000 Sz = 0.000
 Clebsh-Gordan coefficient: <0.000,0.000;1.000,0.000|0.000,0.000> = 0.000
WARNING! Clebsh-Gordon coefficient is too small to find a rotationally invariant part of triplet density.
Please use another EOM approach with non-zero Clebsh-Gordon coefficients
I am going to skip this state pair
_______________________________

**************************************************

**************************************************
 State A: Ground state
 State B: S3
 Analysing Sz ans S^2 of the pair of states...
 Ket state:  Computed S^2 = 0.000 will be treated as 0.000 Sz = 0.000
 Bra state:  Computed S^2 = 0.000 will be treated as 0.000 Sz = 0.000
 Clebsh-Gordan coefficient: <0.000,0.000;1.000,0.000|0.000,0.000> = 0.000
WARNING! Clebsh-Gordon coefficient is too small to find a rotationally invariant part of triplet density.
Please use another EOM approach with non-zero Clebsh-Gordon coefficients
I am going to skip this state pair
_______________________________

**************************************************

**************************************************
 State A: Ground state
 State B: S4
 Analysing Sz ans S^2 of the pair of states...
 Ket state:  Computed S^2 = 0.000 will be treated as 0.000 Sz = 0.000
 Bra state:  Computed S^2 = 0.000 will be treated as 0.000 Sz = 0.000
 Clebsh-Gordan coefficient: <0.000,0.000;1.000,0.000|0.000,0.000> = 0.000
WARNING! Clebsh-Gordon coefficient is too small to find a rotationally invariant part of triplet density.
Please use another EOM approach with non-zero Clebsh-Gordon coefficients
I am going to skip this state pair
_______________________________

**************************************************

**************************************************
 State A: Ground state
 State B: S5
 Analysing Sz ans S^2 of the pair of states...
 Ket state:  Computed S^2 = 0.000 will be treated as 0.000 Sz = 0.000
 Bra state:  Computed S^2 = 0.000 will be treated as 0.000 Sz = 0.000
 Clebsh-Gordan coefficient: <0.000,0.000;1.000,0.000|0.000,0.000> = 0.000
WARNING! Clebsh-Gordon coefficient is too small to find a rotationally invariant part of triplet density.
Please use another EOM approach with non-zero Clebsh-Gordon coefficients
I am going to skip this state pair
_______________________________

**************************************************

**************************************************
 State A: Ground state
 State B: S6
 Analysing Sz ans S^2 of the pair of states...
 Ket state:  Computed S^2 = 0.000 will be treated as 0.000 Sz = 0.000
 Bra state:  Computed S^2 = 0.000 will be treated as 0.000 Sz = 0.000
 Clebsh-Gordan coefficient: <0.000,0.000;1.000,0.000|0.000,0.000> = 0.000
WARNING! Clebsh-Gordon coefficient is too small to find a rotationally invariant part of triplet density.
Please use another EOM approach with non-zero Clebsh-Gordon coefficients
I am going to skip this state pair
_______________________________

**************************************************

**************************************************
 State A: Ground state
 State B: S7
 Analysing Sz ans S^2 of the pair of states...
 Ket state:  Computed S^2 = 0.000 will be treated as 0.000 Sz = 0.000
 Bra state:  Computed S^2 = 0.000 will be treated as 0.000 Sz = 0.000
 Clebsh-Gordan coefficient: <0.000,0.000;1.000,0.000|0.000,0.000> = 0.000
WARNING! Clebsh-Gordon coefficient is too small to find a rotationally invariant part of triplet density.
Please use another EOM approach with non-zero Clebsh-Gordon coefficients
I am going to skip this state pair
_______________________________

**************************************************

**************************************************
 State A: Ground state
 State B: S8
 Analysing Sz ans S^2 of the pair of states...
 Ket state:  Computed S^2 = 0.000 will be treated as 0.000 Sz = 0.000
 Bra state:  Computed S^2 = 0.000 will be treated as 0.000 Sz = 0.000
 Clebsh-Gordan coefficient: <0.000,0.000;1.000,0.000|0.000,0.000> = 0.000
WARNING! Clebsh-Gordon coefficient is too small to find a rotationally invariant part of triplet density.
Please use another EOM approach with non-zero Clebsh-Gordon coefficients
I am going to skip this state pair
_______________________________

**************************************************

**************************************************
 State A: Ground state
 State B: S9
 Analysing Sz ans S^2 of the pair of states...
 Ket state:  Computed S^2 = 0.000 will be treated as 0.000 Sz = 0.000
 Bra state:  Computed S^2 = 0.000 will be treated as 0.000 Sz = 0.000
 Clebsh-Gordan coefficient: <0.000,0.000;1.000,0.000|0.000,0.000> = 0.000
WARNING! Clebsh-Gordon coefficient is too small to find a rotationally invariant part of triplet density.
Please use another EOM approach with non-zero Clebsh-Gordon coefficients
I am going to skip this state pair
_______________________________

**************************************************

**************************************************
 State A: Ground state
 State B: S10
 Analysing Sz ans S^2 of the pair of states...
 Ket state:  Computed S^2 = 0.000 will be treated as 0.000 Sz = 0.000
 Bra state:  Computed S^2 = 0.000 will be treated as 0.000 Sz = 0.000
 Clebsh-Gordan coefficient: <0.000,0.000;1.000,0.000|0.000,0.000> = 0.000
WARNING! Clebsh-Gordon coefficient is too small to find a rotationally invariant part of triplet density.
Please use another EOM approach with non-zero Clebsh-Gordon coefficients
I am going to skip this state pair
_______________________________

**************************************************

**************************************************
 State A: T1
 State B: T2
 Analysing Sz ans S^2 of the pair of states...
 Ket state:  Computed S^2 = 2.000 will be treated as 2.000 Sz = 0.000
 Bra state:  Computed S^2 = 2.000 will be treated as 2.000 Sz = 0.000
 Clebsh-Gordan coefficient: <1.000,0.000;1.000,0.000|1.000,0.000> = 0.000
WARNING! Clebsh-Gordon coefficient is too small to find a rotationally invariant part of triplet density.
Please use another EOM approach with non-zero Clebsh-Gordon coefficients
I am going to skip this state pair
_______________________________

**************************************************

**************************************************
 State A: T1
 State B: T3
 Analysing Sz ans S^2 of the pair of states...
 Ket state:  Computed S^2 = 2.000 will be treated as 2.000 Sz = 0.000
 Bra state:  Computed S^2 = 2.000 will be treated as 2.000 Sz = 0.000
 Clebsh-Gordan coefficient: <1.000,0.000;1.000,0.000|1.000,0.000> = 0.000
WARNING! Clebsh-Gordon coefficient is too small to find a rotationally invariant part of triplet density.
Please use another EOM approach with non-zero Clebsh-Gordon coefficients
I am going to skip this state pair
_______________________________

**************************************************

**************************************************
 State A: T1
 State B: T4
 Analysing Sz ans S^2 of the pair of states...
 Ket state:  Computed S^2 = 2.000 will be treated as 2.000 Sz = 0.000
 Bra state:  Computed S^2 = 2.000 will be treated as 2.000 Sz = 0.000
 Clebsh-Gordan coefficient: <1.000,0.000;1.000,0.000|1.000,0.000> = 0.000
WARNING! Clebsh-Gordon coefficient is too small to find a rotationally invariant part of triplet density.
Please use another EOM approach with non-zero Clebsh-Gordon coefficients
I am going to skip this state pair
_______________________________

**************************************************

**************************************************
 State A: T1
 State B: T5
 Analysing Sz ans S^2 of the pair of states...
 Ket state:  Computed S^2 = 2.000 will be treated as 2.000 Sz = 0.000
 Bra state:  Computed S^2 = 2.000 will be treated as 2.000 Sz = 0.000
 Clebsh-Gordan coefficient: <1.000,0.000;1.000,0.000|1.000,0.000> = 0.000
WARNING! Clebsh-Gordon coefficient is too small to find a rotationally invariant part of triplet density.
Please use another EOM approach with non-zero Clebsh-Gordon coefficients
I am going to skip this state pair
_______________________________

**************************************************

**************************************************
 State A: T1
 State B: T6
 Analysing Sz ans S^2 of the pair of states...
 Ket state:  Computed S^2 = 2.000 will be treated as 2.000 Sz = 0.000
 Bra state:  Computed S^2 = 2.000 will be treated as 2.000 Sz = 0.000
 Clebsh-Gordan coefficient: <1.000,0.000;1.000,0.000|1.000,0.000> = 0.000
WARNING! Clebsh-Gordon coefficient is too small to find a rotationally invariant part of triplet density.
Please use another EOM approach with non-zero Clebsh-Gordon coefficients
I am going to skip this state pair
_______________________________

**************************************************

**************************************************
 State A: T1
 State B: T7
 Analysing Sz ans S^2 of the pair of states...
 Ket state:  Computed S^2 = 2.000 will be treated as 2.000 Sz = 0.000
 Bra state:  Computed S^2 = 2.000 will be treated as 2.000 Sz = 0.000
 Clebsh-Gordan coefficient: <1.000,0.000;1.000,0.000|1.000,0.000> = 0.000
WARNING! Clebsh-Gordon coefficient is too small to find a rotationally invariant part of triplet density.
Please use another EOM approach with non-zero Clebsh-Gordon coefficients
I am going to skip this state pair
_______________________________

**************************************************

**************************************************
 State A: T1
 State B: T8
 Analysing Sz ans S^2 of the pair of states...
 Ket state:  Computed S^2 = 2.000 will be treated as 2.000 Sz = 0.000
 Bra state:  Computed S^2 = 2.000 will be treated as 2.000 Sz = 0.000
 Clebsh-Gordan coefficient: <1.000,0.000;1.000,0.000|1.000,0.000> = 0.000
WARNING! Clebsh-Gordon coefficient is too small to find a rotationally invariant part of triplet density.
Please use another EOM approach with non-zero Clebsh-Gordon coefficients
I am going to skip this state pair
_______________________________

**************************************************

**************************************************
 State A: T1
 State B: T9
 Analysing Sz ans S^2 of the pair of states...
 Ket state:  Computed S^2 = 2.000 will be treated as 2.000 Sz = 0.000
 Bra state:  Computed S^2 = 2.000 will be treated as 2.000 Sz = 0.000
 Clebsh-Gordan coefficient: <1.000,0.000;1.000,0.000|1.000,0.000> = 0.000
WARNING! Clebsh-Gordon coefficient is too small to find a rotationally invariant part of triplet density.
Please use another EOM approach with non-zero Clebsh-Gordon coefficients
I am going to skip this state pair
_______________________________

**************************************************

**************************************************
 State A: T1
 State B: T10
 Analysing Sz ans S^2 of the pair of states...
 Ket state:  Computed S^2 = 2.000 will be treated as 2.000 Sz = 0.000
 Bra state:  Computed S^2 = 2.000 will be treated as 2.000 Sz = 0.000
 Clebsh-Gordan coefficient: <1.000,0.000;1.000,0.000|1.000,0.000> = 0.000
WARNING! Clebsh-Gordon coefficient is too small to find a rotationally invariant part of triplet density.
Please use another EOM approach with non-zero Clebsh-Gordon coefficients
I am going to skip this state pair
_______________________________

**************************************************

**************************************************
 State A: T1
 State B: S1
 Analysing Sz ans S^2 of the pair of states...
 Ket state:  Computed S^2 = 2.000 will be treated as 2.000 Sz = 0.000
 Bra state:  Computed S^2 = 0.000 will be treated as 0.000 Sz = 0.000
 Clebsh-Gordan coefficient: <1.000,0.000;1.000,0.000|0.000,0.000> = 0.577

_______________________________
 One-electron SO (cm-1)
 Reduced matrix elements:
 <S|| Hso(L-) ||S'> = (0.000000,0.000000)
 <S|| Hso(L0) ||S'> = (0.000000,-0.000000)
 <S|| Hso(L+) ||S'> = (0.000000,-0.000000)

 SOCC = 0.000000


 Actual matrix elements:
       |Sz=-1.00>           |Sz=0.00>           |Sz=1.00>
 <Sz=0.00|(-0.000000,-0.000000)(0.000000,-0.000000)(-0.000000,0.000000)
_______________________________
 Mean-field SO (cm-1)
 Reduced matrix elements:
 <S|| Hso(L-) ||S'> = (0.000000,0.000000)
 <S|| Hso(L0) ||S'> = (0.000000,-0.000000)
 <S|| Hso(L+) ||S'> = (0.000000,-0.000000)

 Singlet part of <S|| Hso(L0) ||S'> = (-0.000000,0.000000) (excluded from all matrix elements)
 L-/L+ Averaged reduced matrix elements:
 <S|| Hso(L-) ||S'> = (0.000000,0.000000)
 <S|| Hso(L+) ||S'> = (0.000000,-0.000000)

 SOCC = 0.000000


 Actual matrix elements:
       |Sz=-1.00>           |Sz=0.00>           |Sz=1.00>
 <Sz=0.00|(-0.000000,-0.000000)(0.000000,-0.000000)(-0.000000,0.000000)
_______________________________

**************************************************

**************************************************
 State A: T1
 State B: S2
 Analysing Sz ans S^2 of the pair of states...
 Ket state:  Computed S^2 = 2.000000 will be treated as 2.000000 Sz = 0.000000
 Bra state:  Computed S^2 = 0.000000 will be treated as 0.000000 Sz = 0.000000
 Clebsh-Gordan coefficient: <1.000,0.000;1.000,0.000|0.000,0.000> = 0.577

_______________________________
 One-electron SO (cm-1)
 Reduced matrix elements:
 <S|| Hso(L-) ||S'> = (-56.423651,0.000000)
 <S|| Hso(L0) ||S'> = (0.000000,0.000000)
 <S|| Hso(L+) ||S'> = (-56.423651,-0.000000)

 SOCC = 46.069718


 Actual matrix elements:
       |Sz=-1.00>           |Sz=0.00>           |Sz=1.00>
 <Sz=0.00|(32.576210,-0.000000)(0.000000,0.000000)(32.576210,0.000000)
_______________________________
 Mean-field SO (cm-1)
 Reduced matrix elements:
 <S|| Hso(L-) ||S'> = (-35.289583,0.000000)
 <S|| Hso(L0) ||S'> = (0.000000,0.000000)
 <S|| Hso(L+) ||S'> = (-35.289583,-0.000000)

 Singlet part of <S|| Hso(L0) ||S'> = (-0.000000,0.000000) (excluded from all matrix elements)
 L-/L+ Averaged reduced matrix elements:
 <S|| Hso(L-) ||S'> = (-35.289583,0.000000)
 <S|| Hso(L+) ||S'> = (-35.289583,-0.000000)

 SOCC = 28.813824


 Actual matrix elements:
       |Sz=-1.00>           |Sz=0.00>           |Sz=1.00>
 <Sz=0.00|(20.374450,-0.000000)(0.000000,0.000000)(20.374450,0.000000)
_______________________________

**************************************************

**************************************************
 State A: T1
 State B: S3
 Analysing Sz ans S^2 of the pair of states...
 Ket state:  Computed S^2 = 2.000000 will be treated as 2.000000 Sz = 0.000000
 Bra state:  Computed S^2 = 0.000000 will be treated as 0.000000 Sz = 0.000000
 Clebsh-Gordan coefficient: <1.000,0.000;1.000,0.000|0.000,0.000> = 0.577

_______________________________
 One-electron SO (cm-1)
 Reduced matrix elements:
 <S|| Hso(L-) ||S'> = (-0.000000,-78.314357)
 <S|| Hso(L0) ||S'> = (0.000000,0.000000)
 <S|| Hso(L+) ||S'> = (-0.000000,78.314357)

 SOCC = 63.943404


 Actual matrix elements:
       |Sz=-1.00>           |Sz=0.00>           |Sz=1.00>
 <Sz=0.00|(0.000000,45.214815)(0.000000,0.000000)(0.000000,-45.214815)
_______________________________
 Mean-field SO (cm-1)
 Reduced matrix elements:
 <S|| Hso(L-) ||S'> = (-0.000000,-48.337434)
 <S|| Hso(L0) ||S'> = (0.000000,0.000000)
 <S|| Hso(L+) ||S'> = (-0.000000,48.337434)

 Singlet part of <S|| Hso(L0) ||S'> = (-0.000000,0.000000) (excluded from all matrix elements)
 L-/L+ Averaged reduced matrix elements:
 <S|| Hso(L-) ||S'> = (-0.000000,-48.337434)
 <S|| Hso(L+) ||S'> = (-0.000000,48.337434)

 SOCC = 39.467350


 Actual matrix elements:
       |Sz=-1.00>           |Sz=0.00>           |Sz=1.00>
 <Sz=0.00|(0.000000,27.907631)(0.000000,0.000000)(0.000000,-27.907631)
_______________________________

**************************************************

**************************************************
 State A: T1
 State B: S4
 Analysing Sz ans S^2 of the pair of states...
 Ket state:  Computed S^2 = 2.000000 will be treated as 2.000000 Sz = 0.000000
 Bra state:  Computed S^2 = 0.000000 will be treated as 0.000000 Sz = 0.000000
 Clebsh-Gordan coefficient: <1.000,0.000;1.000,0.000|0.000,0.000> = 0.577

_______________________________
 One-electron SO (cm-1)
 Reduced matrix elements:
 <S|| Hso(L-) ||S'> = (0.000000,-0.000000)
 <S|| Hso(L0) ||S'> = (0.000000,-41.063884)
 <S|| Hso(L+) ||S'> = (0.000000,0.000000)

 SOCC = 23.708244


 Actual matrix elements:
       |Sz=-1.00>           |Sz=0.00>           |Sz=1.00>
 <Sz=0.00|(-0.000000,0.000000)(0.000000,-23.708244)(-0.000000,-0.000000)
_______________________________
 Mean-field SO (cm-1)
 Reduced matrix elements:
 <S|| Hso(L-) ||S'> = (0.000000,-0.000000)
 <S|| Hso(L0) ||S'> = (0.000000,-24.327276)
 <S|| Hso(L+) ||S'> = (0.000000,0.000000)

 Singlet part of <S|| Hso(L0) ||S'> = (-0.000000,0.000000) (excluded from all matrix elements)
 L-/L+ Averaged reduced matrix elements:
 <S|| Hso(L-) ||S'> = (0.000000,-0.000000)
 <S|| Hso(L+) ||S'> = (0.000000,0.000000)

 SOCC = 14.045359


 Actual matrix elements:
       |Sz=-1.00>           |Sz=0.00>           |Sz=1.00>
 <Sz=0.00|(-0.000000,0.000000)(0.000000,-14.045359)(-0.000000,-0.000000)
_______________________________

**************************************************

**************************************************
 State A: T1
 State B: S5
 Analysing Sz ans S^2 of the pair of states...
 Ket state:  Computed S^2 = 2.000000 will be treated as 2.000000 Sz = 0.000000
 Bra state:  Computed S^2 = 0.000000 will be treated as 0.000000 Sz = 0.000000
 Clebsh-Gordan coefficient: <1.000,0.000;1.000,0.000|0.000,0.000> = 0.577

_______________________________
 One-electron SO (cm-1)
 Reduced matrix elements:
 <S|| Hso(L-) ||S'> = (-0.000000,-0.000000)
 <S|| Hso(L0) ||S'> = (0.000000,-86.132335)
 <S|| Hso(L+) ||S'> = (-0.000000,0.000000)

 SOCC = 49.728527


 Actual matrix elements:
       |Sz=-1.00>           |Sz=0.00>           |Sz=1.00>
 <Sz=0.00|(0.000000,0.000000)(0.000000,-49.728527)(0.000000,-0.000000)
_______________________________
 Mean-field SO (cm-1)
 Reduced matrix elements:
 <S|| Hso(L-) ||S'> = (-0.000000,-0.000000)
 <S|| Hso(L0) ||S'> = (0.000000,-51.026959)
 <S|| Hso(L+) ||S'> = (-0.000000,0.000000)

 Singlet part of <S|| Hso(L0) ||S'> = (-0.000000,0.000000) (excluded from all matrix elements)
 L-/L+ Averaged reduced matrix elements:
 <S|| Hso(L-) ||S'> = (-0.000000,-0.000000)
 <S|| Hso(L+) ||S'> = (-0.000000,0.000000)

 SOCC = 29.460428


 Actual matrix elements:
       |Sz=-1.00>           |Sz=0.00>           |Sz=1.00>
 <Sz=0.00|(0.000000,0.000000)(0.000000,-29.460428)(0.000000,-0.000000)
_______________________________

**************************************************

**************************************************
 State A: T1
 State B: S6
 Analysing Sz ans S^2 of the pair of states...
 Ket state:  Computed S^2 = 2.000000 will be treated as 2.000000 Sz = 0.000000
 Bra state:  Computed S^2 = 0.000000 will be treated as 0.000000 Sz = 0.000000
 Clebsh-Gordan coefficient: <1.000,0.000;1.000,0.000|0.000,0.000> = 0.577

_______________________________
 One-electron SO (cm-1)
 Reduced matrix elements:
 <S|| Hso(L-) ||S'> = (-0.000000,11.037956)
 <S|| Hso(L0) ||S'> = (0.000000,0.000000)
 <S|| Hso(L+) ||S'> = (-0.000000,-11.037956)

 SOCC = 9.012453


 Actual matrix elements:
       |Sz=-1.00>           |Sz=0.00>           |Sz=1.00>
 <Sz=0.00|(0.000000,-6.372767)(0.000000,0.000000)(0.000000,6.372767)
_______________________________
 Mean-field SO (cm-1)
 Reduced matrix elements:
 <S|| Hso(L-) ||S'> = (-0.000000,6.927064)
 <S|| Hso(L0) ||S'> = (0.000000,0.000000)
 <S|| Hso(L+) ||S'> = (-0.000000,-6.927064)

 Singlet part of <S|| Hso(L0) ||S'> = (-0.000000,0.000000) (excluded from all matrix elements)
 L-/L+ Averaged reduced matrix elements:
 <S|| Hso(L-) ||S'> = (-0.000000,6.927064)
 <S|| Hso(L+) ||S'> = (-0.000000,-6.927064)

 SOCC = 5.655924


 Actual matrix elements:
       |Sz=-1.00>           |Sz=0.00>           |Sz=1.00>
 <Sz=0.00|(0.000000,-3.999342)(0.000000,0.000000)(0.000000,3.999342)
_______________________________

**************************************************

**************************************************
 State A: T1
 State B: S7
 Analysing Sz ans S^2 of the pair of states...
 Ket state:  Computed S^2 = 2.000000 will be treated as 2.000000 Sz = 0.000000
 Bra state:  Computed S^2 = 0.000000 will be treated as 0.000000 Sz = 0.000000
 Clebsh-Gordan coefficient: <1.000,0.000;1.000,0.000|0.000,0.000> = 0.577

_______________________________
 One-electron SO (cm-1)
 Reduced matrix elements:
 <S|| Hso(L-) ||S'> = (0.000000,-26.693351)
 <S|| Hso(L0) ||S'> = (0.000000,-0.000000)
 <S|| Hso(L+) ||S'> = (0.000000,26.693351)

 SOCC = 21.795030


 Actual matrix elements:
       |Sz=-1.00>           |Sz=0.00>           |Sz=1.00>
 <Sz=0.00|(-0.000000,15.411413)(0.000000,-0.000000)(-0.000000,-15.411413)
_______________________________
 Mean-field SO (cm-1)
 Reduced matrix elements:
 <S|| Hso(L-) ||S'> = (0.000000,-16.094490)
 <S|| Hso(L0) ||S'> = (0.000000,-0.000000)
 <S|| Hso(L+) ||S'> = (0.000000,16.094490)

 Singlet part of <S|| Hso(L0) ||S'> = (-0.000000,0.000000) (excluded from all matrix elements)
 L-/L+ Averaged reduced matrix elements:
 <S|| Hso(L-) ||S'> = (0.000000,-16.094490)
 <S|| Hso(L+) ||S'> = (0.000000,16.094490)

 SOCC = 13.141096


 Actual matrix elements:
       |Sz=-1.00>           |Sz=0.00>           |Sz=1.00>
 <Sz=0.00|(-0.000000,9.292158)(0.000000,-0.000000)(-0.000000,-9.292158)
_______________________________

**************************************************

**************************************************
 State A: T1
 State B: S8
 Analysing Sz ans S^2 of the pair of states...
 Ket state:  Computed S^2 = 2.000000 will be treated as 2.000000 Sz = 0.000000
 Bra state:  Computed S^2 = 0.000000 will be treated as 0.000000 Sz = 0.000000
 Clebsh-Gordan coefficient: <1.000,0.000;1.000,0.000|0.000,0.000> = 0.577

_______________________________
 One-electron SO (cm-1)
 Reduced matrix elements:
 <S|| Hso(L-) ||S'> = (-0.000000,-0.000000)
 <S|| Hso(L0) ||S'> = (0.000000,-0.032099)
 <S|| Hso(L+) ||S'> = (-0.000000,0.000000)

 SOCC = 0.018532


 Actual matrix elements:
       |Sz=-1.00>           |Sz=0.00>           |Sz=1.00>
 <Sz=0.00|(0.000000,0.000000)(0.000000,-0.018532)(0.000000,-0.000000)
_______________________________
 Mean-field SO (cm-1)
 Reduced matrix elements:
 <S|| Hso(L-) ||S'> = (-0.000000,-0.000000)
 <S|| Hso(L0) ||S'> = (0.000000,-0.019016)
 <S|| Hso(L+) ||S'> = (-0.000000,0.000000)

 Singlet part of <S|| Hso(L0) ||S'> = (-0.000000,0.000000) (excluded from all matrix elements)
 L-/L+ Averaged reduced matrix elements:
 <S|| Hso(L-) ||S'> = (-0.000000,-0.000000)
 <S|| Hso(L+) ||S'> = (-0.000000,0.000000)

 SOCC = 0.010979


 Actual matrix elements:
       |Sz=-1.00>           |Sz=0.00>           |Sz=1.00>
 <Sz=0.00|(0.000000,0.000000)(0.000000,-0.010979)(0.000000,-0.000000)
_______________________________

**************************************************

**************************************************
 State A: T1
 State B: S9
 Analysing Sz ans S^2 of the pair of states...
 Ket state:  Computed S^2 = 2.000000 will be treated as 2.000000 Sz = 0.000000
 Bra state:  Computed S^2 = 0.000000 will be treated as 0.000000 Sz = 0.000000
 Clebsh-Gordan coefficient: <1.000,0.000;1.000,0.000|0.000,0.000> = 0.577

_______________________________
 One-electron SO (cm-1)
 Reduced matrix elements:
 <S|| Hso(L-) ||S'> = (0.000000,-0.876001)
 <S|| Hso(L0) ||S'> = (0.000000,-0.000000)
 <S|| Hso(L+) ||S'> = (0.000000,0.876001)

 SOCC = 0.715252


 Actual matrix elements:
       |Sz=-1.00>           |Sz=0.00>           |Sz=1.00>
 <Sz=0.00|(-0.000000,0.505760)(0.000000,-0.000000)(-0.000000,-0.505760)
_______________________________
 Mean-field SO (cm-1)
 Reduced matrix elements:
 <S|| Hso(L-) ||S'> = (0.000000,-2.416463)
 <S|| Hso(L0) ||S'> = (0.000000,-0.000000)
 <S|| Hso(L+) ||S'> = (0.000000,2.416463)

 Singlet part of <S|| Hso(L0) ||S'> = (-0.000000,0.000000) (excluded from all matrix elements)
 L-/L+ Averaged reduced matrix elements:
 <S|| Hso(L-) ||S'> = (0.000000,-2.416463)
 <S|| Hso(L+) ||S'> = (0.000000,2.416463)

 SOCC = 1.973034


 Actual matrix elements:
       |Sz=-1.00>           |Sz=0.00>           |Sz=1.00>
 <Sz=0.00|(-0.000000,1.395146)(0.000000,-0.000000)(-0.000000,-1.395146)
_______________________________

**************************************************

**************************************************
 State A: T1
 State B: S10
 Analysing Sz ans S^2 of the pair of states...
 Ket state:  Computed S^2 = 2.000000 will be treated as 2.000000 Sz = 0.000000
 Bra state:  Computed S^2 = 0.000000 will be treated as 0.000000 Sz = 0.000000
 Clebsh-Gordan coefficient: <1.000,0.000;1.000,0.000|0.000,0.000> = 0.577

_______________________________
 One-electron SO (cm-1)
 Reduced matrix elements:
 <S|| Hso(L-) ||S'> = (0.000000,0.000000)
 <S|| Hso(L0) ||S'> = (0.000000,-0.001974)
 <S|| Hso(L+) ||S'> = (0.000000,-0.000000)

 SOCC = 0.001140


 Actual matrix elements:
       |Sz=-1.00>           |Sz=0.00>           |Sz=1.00>
 <Sz=0.00|(-0.000000,-0.000000)(0.000000,-0.001140)(-0.000000,0.000000)
_______________________________
 Mean-field SO (cm-1)
 Reduced matrix elements:
 <S|| Hso(L-) ||S'> = (0.000000,0.000000)
 <S|| Hso(L0) ||S'> = (0.000000,-0.001169)
 <S|| Hso(L+) ||S'> = (0.000000,-0.000000)

 Singlet part of <S|| Hso(L0) ||S'> = (-0.000000,0.000000) (excluded from all matrix elements)
 L-/L+ Averaged reduced matrix elements:
 <S|| Hso(L-) ||S'> = (0.000000,0.000000)
 <S|| Hso(L+) ||S'> = (0.000000,-0.000000)

 SOCC = 0.000675


 Actual matrix elements:
       |Sz=-1.00>           |Sz=0.00>           |Sz=1.00>
 <Sz=0.00|(-0.000000,-0.000000)(0.000000,-0.000675)(-0.000000,0.000000)
_______________________________

**************************************************

**************************************************
 State A: T2
 State B: T3
 Analysing Sz ans S^2 of the pair of states...
 Ket state:  Computed S^2 = 2.000000 will be treated as 2.000000 Sz = 0.000000
 Bra state:  Computed S^2 = 2.000000 will be treated as 2.000000 Sz = 0.000000
 Clebsh-Gordan coefficient: <1.000,0.000;1.000,0.000|1.000,0.000> = 0.000
WARNING! Clebsh-Gordon coefficient is too small to find a rotationally invariant part of triplet density.
Please use another EOM approach with non-zero Clebsh-Gordon coefficients
I am going to skip this state pair
_______________________________

**************************************************

**************************************************
 State A: T2
 State B: T4
 Analysing Sz ans S^2 of the pair of states...
 Ket state:  Computed S^2 = 2.000 will be treated as 2.000 Sz = 0.000
 Bra state:  Computed S^2 = 2.000 will be treated as 2.000 Sz = 0.000
 Clebsh-Gordan coefficient: <1.000,0.000;1.000,0.000|1.000,0.000> = 0.000
WARNING! Clebsh-Gordon coefficient is too small to find a rotationally invariant part of triplet density.
Please use another EOM approach with non-zero Clebsh-Gordon coefficients
I am going to skip this state pair
_______________________________

**************************************************

**************************************************
 State A: T2
 State B: T5
 Analysing Sz ans S^2 of the pair of states...
 Ket state:  Computed S^2 = 2.000 will be treated as 2.000 Sz = 0.000
 Bra state:  Computed S^2 = 2.000 will be treated as 2.000 Sz = 0.000
 Clebsh-Gordan coefficient: <1.000,0.000;1.000,0.000|1.000,0.000> = 0.000
WARNING! Clebsh-Gordon coefficient is too small to find a rotationally invariant part of triplet density.
Please use another EOM approach with non-zero Clebsh-Gordon coefficients
I am going to skip this state pair
_______________________________

**************************************************

**************************************************
 State A: T2
 State B: T6
 Analysing Sz ans S^2 of the pair of states...
 Ket state:  Computed S^2 = 2.000 will be treated as 2.000 Sz = 0.000
 Bra state:  Computed S^2 = 2.000 will be treated as 2.000 Sz = 0.000
 Clebsh-Gordan coefficient: <1.000,0.000;1.000,0.000|1.000,0.000> = 0.000
WARNING! Clebsh-Gordon coefficient is too small to find a rotationally invariant part of triplet density.
Please use another EOM approach with non-zero Clebsh-Gordon coefficients
I am going to skip this state pair
_______________________________

**************************************************

**************************************************
 State A: T2
 State B: T7
 Analysing Sz ans S^2 of the pair of states...
 Ket state:  Computed S^2 = 2.000 will be treated as 2.000 Sz = 0.000
 Bra state:  Computed S^2 = 2.000 will be treated as 2.000 Sz = 0.000
 Clebsh-Gordan coefficient: <1.000,0.000;1.000,0.000|1.000,0.000> = 0.000
WARNING! Clebsh-Gordon coefficient is too small to find a rotationally invariant part of triplet density.
Please use another EOM approach with non-zero Clebsh-Gordon coefficients
I am going to skip this state pair
_______________________________

**************************************************

**************************************************
 State A: T2
 State B: T8
 Analysing Sz ans S^2 of the pair of states...
 Ket state:  Computed S^2 = 2.000 will be treated as 2.000 Sz = 0.000
 Bra state:  Computed S^2 = 2.000 will be treated as 2.000 Sz = 0.000
 Clebsh-Gordan coefficient: <1.000,0.000;1.000,0.000|1.000,0.000> = 0.000
WARNING! Clebsh-Gordon coefficient is too small to find a rotationally invariant part of triplet density.
Please use another EOM approach with non-zero Clebsh-Gordon coefficients
I am going to skip this state pair
_______________________________

**************************************************

**************************************************
 State A: T2
 State B: T9
 Analysing Sz ans S^2 of the pair of states...
 Ket state:  Computed S^2 = 2.000 will be treated as 2.000 Sz = 0.000
 Bra state:  Computed S^2 = 2.000 will be treated as 2.000 Sz = 0.000
 Clebsh-Gordan coefficient: <1.000,0.000;1.000,0.000|1.000,0.000> = 0.000
WARNING! Clebsh-Gordon coefficient is too small to find a rotationally invariant part of triplet density.
Please use another EOM approach with non-zero Clebsh-Gordon coefficients
I am going to skip this state pair
_______________________________

**************************************************

**************************************************
 State A: T2
 State B: T10
 Analysing Sz ans S^2 of the pair of states...
 Ket state:  Computed S^2 = 2.000 will be treated as 2.000 Sz = 0.000
 Bra state:  Computed S^2 = 2.000 will be treated as 2.000 Sz = 0.000
 Clebsh-Gordan coefficient: <1.000,0.000;1.000,0.000|1.000,0.000> = 0.000
WARNING! Clebsh-Gordon coefficient is too small to find a rotationally invariant part of triplet density.
Please use another EOM approach with non-zero Clebsh-Gordon coefficients
I am going to skip this state pair
_______________________________

**************************************************

**************************************************
 State A: T2
 State B: S1
 Analysing Sz ans S^2 of the pair of states...
 Ket state:  Computed S^2 = 2.000 will be treated as 2.000 Sz = 0.000
 Bra state:  Computed S^2 = 0.000 will be treated as 0.000 Sz = 0.000
 Clebsh-Gordan coefficient: <1.000,0.000;1.000,0.000|0.000,0.000> = 0.577

_______________________________
 One-electron SO (cm-1)
 Reduced matrix elements:
 <S|| Hso(L-) ||S'> = (-0.000000,82.018762)
 <S|| Hso(L0) ||S'> = (0.000000,0.000000)
 <S|| Hso(L+) ||S'> = (-0.000000,-82.018762)

 SOCC = 66.968039


 Actual matrix elements:
       |Sz=-1.00>           |Sz=0.00>           |Sz=1.00>
 <Sz=0.00|(0.000000,-47.353554)(0.000000,0.000000)(0.000000,47.353554)
_______________________________
 Mean-field SO (cm-1)
 Reduced matrix elements:
 <S|| Hso(L-) ||S'> = (-0.000000,50.569402)
 <S|| Hso(L0) ||S'> = (0.000000,0.000000)
 <S|| Hso(L+) ||S'> = (-0.000000,-50.569402)

 Singlet part of <S|| Hso(L0) ||S'> = (-0.000000,0.000000) (excluded from all matrix elements)
 L-/L+ Averaged reduced matrix elements:
 <S|| Hso(L-) ||S'> = (-0.000000,50.569402)
 <S|| Hso(L+) ||S'> = (-0.000000,-50.569402)

 SOCC = 41.289743


 Actual matrix elements:
       |Sz=-1.00>           |Sz=0.00>           |Sz=1.00>
 <Sz=0.00|(0.000000,-29.196258)(0.000000,0.000000)(0.000000,29.196258)
_______________________________

**************************************************

**************************************************
 State A: T2
 State B: S2
 Analysing Sz ans S^2 of the pair of states...
 Ket state:  Computed S^2 = 2.000000 will be treated as 2.000000 Sz = 0.000000
 Bra state:  Computed S^2 = 0.000000 will be treated as 0.000000 Sz = 0.000000
 Clebsh-Gordan coefficient: <1.000,0.000;1.000,0.000|0.000,0.000> = 0.577

_______________________________
 One-electron SO (cm-1)
 Reduced matrix elements:
 <S|| Hso(L-) ||S'> = (-0.000000,-0.000000)
 <S|| Hso(L0) ||S'> = (0.000000,-12.517895)
 <S|| Hso(L+) ||S'> = (-0.000000,0.000000)

 SOCC = 7.227210


 Actual matrix elements:
       |Sz=-1.00>           |Sz=0.00>           |Sz=1.00>
 <Sz=0.00|(0.000000,0.000000)(0.000000,-7.227210)(0.000000,-0.000000)
_______________________________
 Mean-field SO (cm-1)
 Reduced matrix elements:
 <S|| Hso(L-) ||S'> = (-0.000000,-0.000000)
 <S|| Hso(L0) ||S'> = (0.000000,-7.415916)
 <S|| Hso(L+) ||S'> = (-0.000000,0.000000)

 Singlet part of <S|| Hso(L0) ||S'> = (-0.000000,0.000000) (excluded from all matrix elements)
 L-/L+ Averaged reduced matrix elements:
 <S|| Hso(L-) ||S'> = (-0.000000,-0.000000)
 <S|| Hso(L+) ||S'> = (-0.000000,0.000000)

 SOCC = 4.281581


 Actual matrix elements:
       |Sz=-1.00>           |Sz=0.00>           |Sz=1.00>
 <Sz=0.00|(0.000000,0.000000)(0.000000,-4.281581)(0.000000,-0.000000)
_______________________________

**************************************************

**************************************************
 State A: T2
 State B: S3
 Analysing Sz ans S^2 of the pair of states...
 Ket state:  Computed S^2 = 2.000000 will be treated as 2.000000 Sz = 0.000000
 Bra state:  Computed S^2 = 0.000000 will be treated as 0.000000 Sz = 0.000000
 Clebsh-Gordan coefficient: <1.000,0.000;1.000,0.000|0.000,0.000> = 0.577

_______________________________
 One-electron SO (cm-1)
 Reduced matrix elements:
 <S|| Hso(L-) ||S'> = (-0.000000,0.000000)
 <S|| Hso(L0) ||S'> = (0.000000,-0.000000)
 <S|| Hso(L+) ||S'> = (-0.000000,-0.000000)

 SOCC = 0.000000


 Actual matrix elements:
       |Sz=-1.00>           |Sz=0.00>           |Sz=1.00>
 <Sz=0.00|(0.000000,-0.000000)(0.000000,-0.000000)(0.000000,0.000000)
_______________________________
 Mean-field SO (cm-1)
 Reduced matrix elements:
 <S|| Hso(L-) ||S'> = (-0.000000,0.000000)
 <S|| Hso(L0) ||S'> = (0.000000,-0.000000)
 <S|| Hso(L+) ||S'> = (-0.000000,-0.000000)

 Singlet part of <S|| Hso(L0) ||S'> = (-0.000000,0.000000) (excluded from all matrix elements)
 L-/L+ Averaged reduced matrix elements:
 <S|| Hso(L-) ||S'> = (-0.000000,0.000000)
 <S|| Hso(L+) ||S'> = (-0.000000,-0.000000)

 SOCC = 0.000000


 Actual matrix elements:
       |Sz=-1.00>           |Sz=0.00>           |Sz=1.00>
 <Sz=0.00|(0.000000,-0.000000)(0.000000,-0.000000)(0.000000,0.000000)
_______________________________

**************************************************

**************************************************
 State A: T2
 State B: S4
 Analysing Sz ans S^2 of the pair of states...
 Ket state:  Computed S^2 = 2.000000 will be treated as 2.000000 Sz = 0.000000
 Bra state:  Computed S^2 = 0.000000 will be treated as 0.000000 Sz = 0.000000
 Clebsh-Gordan coefficient: <1.000,0.000;1.000,0.000|0.000,0.000> = 0.577

_______________________________
 One-electron SO (cm-1)
 Reduced matrix elements:
 <S|| Hso(L-) ||S'> = (-23.889216,0.000000)
 <S|| Hso(L0) ||S'> = (0.000000,-0.000000)
 <S|| Hso(L+) ||S'> = (-23.889216,-0.000000)

 SOCC = 19.505463


 Actual matrix elements:
       |Sz=-1.00>           |Sz=0.00>           |Sz=1.00>
 <Sz=0.00|(13.792445,-0.000000)(0.000000,-0.000000)(13.792445,0.000000)
_______________________________
 Mean-field SO (cm-1)
 Reduced matrix elements:
 <S|| Hso(L-) ||S'> = (-16.807914,0.000000)
 <S|| Hso(L0) ||S'> = (0.000000,-0.000000)
 <S|| Hso(L+) ||S'> = (-16.807914,-0.000000)

 Singlet part of <S|| Hso(L0) ||S'> = (-0.000000,0.000000) (excluded from all matrix elements)
 L-/L+ Averaged reduced matrix elements:
 <S|| Hso(L-) ||S'> = (-16.807914,0.000000)
 <S|| Hso(L+) ||S'> = (-16.807914,-0.000000)

 SOCC = 13.723605


 Actual matrix elements:
       |Sz=-1.00>           |Sz=0.00>           |Sz=1.00>
 <Sz=0.00|(9.704054,-0.000000)(0.000000,-0.000000)(9.704054,0.000000)
_______________________________

**************************************************

**************************************************
 State A: T2
 State B: S5
 Analysing Sz ans S^2 of the pair of states...
 Ket state:  Computed S^2 = 2.000000 will be treated as 2.000000 Sz = 0.000000
 Bra state:  Computed S^2 = 0.000000 will be treated as 0.000000 Sz = 0.000000
 Clebsh-Gordan coefficient: <1.000,0.000;1.000,0.000|0.000,0.000> = 0.577

_______________________________
 One-electron SO (cm-1)
 Reduced matrix elements:
 <S|| Hso(L-) ||S'> = (63.221861,-0.000000)
 <S|| Hso(L0) ||S'> = (0.000000,-0.000000)
 <S|| Hso(L+) ||S'> = (63.221861,0.000000)

 SOCC = 51.620433


 Actual matrix elements:
       |Sz=-1.00>           |Sz=0.00>           |Sz=1.00>
 <Sz=0.00|(-36.501158,0.000000)(0.000000,-0.000000)(-36.501158,-0.000000)
_______________________________
 Mean-field SO (cm-1)
 Reduced matrix elements:
 <S|| Hso(L-) ||S'> = (36.664221,-0.000000)
 <S|| Hso(L0) ||S'> = (0.000000,-0.000000)
 <S|| Hso(L+) ||S'> = (36.664221,0.000000)

 Singlet part of <S|| Hso(L0) ||S'> = (-0.000000,0.000000) (excluded from all matrix elements)
 L-/L+ Averaged reduced matrix elements:
 <S|| Hso(L-) ||S'> = (36.664221,-0.000000)
 <S|| Hso(L+) ||S'> = (36.664221,0.000000)

 SOCC = 29.936211


 Actual matrix elements:
       |Sz=-1.00>           |Sz=0.00>           |Sz=1.00>
 <Sz=0.00|(-21.168098,0.000000)(0.000000,-0.000000)(-21.168098,-0.000000)
_______________________________

**************************************************

**************************************************
 State A: T2
 State B: S6
 Analysing Sz ans S^2 of the pair of states...
 Ket state:  Computed S^2 = 2.000000 will be treated as 2.000000 Sz = 0.000000
 Bra state:  Computed S^2 = 0.000000 will be treated as 0.000000 Sz = 0.000000
 Clebsh-Gordan coefficient: <1.000,0.000;1.000,0.000|0.000,0.000> = 0.577

_______________________________
 One-electron SO (cm-1)
 Reduced matrix elements:
 <S|| Hso(L-) ||S'> = (0.000000,0.000000)
 <S|| Hso(L0) ||S'> = (0.000000,0.000000)
 <S|| Hso(L+) ||S'> = (0.000000,-0.000000)

 SOCC = 0.000000


 Actual matrix elements:
       |Sz=-1.00>           |Sz=0.00>           |Sz=1.00>
 <Sz=0.00|(-0.000000,-0.000000)(0.000000,0.000000)(-0.000000,0.000000)
_______________________________
 Mean-field SO (cm-1)
 Reduced matrix elements:
 <S|| Hso(L-) ||S'> = (0.000000,0.000000)
 <S|| Hso(L0) ||S'> = (0.000000,0.000000)
 <S|| Hso(L+) ||S'> = (0.000000,-0.000000)

 Singlet part of <S|| Hso(L0) ||S'> = (-0.000000,0.000000) (excluded from all matrix elements)
 L-/L+ Averaged reduced matrix elements:
 <S|| Hso(L-) ||S'> = (0.000000,0.000000)
 <S|| Hso(L+) ||S'> = (0.000000,-0.000000)

 SOCC = 0.000000


 Actual matrix elements:
       |Sz=-1.00>           |Sz=0.00>           |Sz=1.00>
 <Sz=0.00|(-0.000000,-0.000000)(0.000000,0.000000)(-0.000000,0.000000)
_______________________________

**************************************************

**************************************************
 State A: T2
 State B: S7
 Analysing Sz ans S^2 of the pair of states...
 Ket state:  Computed S^2 = 2.000000 will be treated as 2.000000 Sz = 0.000000
 Bra state:  Computed S^2 = 0.000000 will be treated as 0.000000 Sz = 0.000000
 Clebsh-Gordan coefficient: <1.000,0.000;1.000,0.000|0.000,0.000> = 0.577

_______________________________
 One-electron SO (cm-1)
 Reduced matrix elements:
 <S|| Hso(L-) ||S'> = (0.000000,-0.000000)
 <S|| Hso(L0) ||S'> = (0.000000,-0.000000)
 <S|| Hso(L+) ||S'> = (0.000000,0.000000)

 SOCC = 0.000000


 Actual matrix elements:
       |Sz=-1.00>           |Sz=0.00>           |Sz=1.00>
 <Sz=0.00|(-0.000000,0.000000)(0.000000,-0.000000)(-0.000000,-0.000000)
_______________________________
 Mean-field SO (cm-1)
 Reduced matrix elements:
 <S|| Hso(L-) ||S'> = (0.000000,-0.000000)
 <S|| Hso(L0) ||S'> = (0.000000,-0.000000)
 <S|| Hso(L+) ||S'> = (0.000000,0.000000)

 Singlet part of <S|| Hso(L0) ||S'> = (-0.000000,0.000000) (excluded from all matrix elements)
 L-/L+ Averaged reduced matrix elements:
 <S|| Hso(L-) ||S'> = (0.000000,-0.000000)
 <S|| Hso(L+) ||S'> = (0.000000,0.000000)

 SOCC = 0.000000


 Actual matrix elements:
       |Sz=-1.00>           |Sz=0.00>           |Sz=1.00>
 <Sz=0.00|(-0.000000,0.000000)(0.000000,-0.000000)(-0.000000,-0.000000)
_______________________________

**************************************************

**************************************************
 State A: T2
 State B: S8
 Analysing Sz ans S^2 of the pair of states...
 Ket state:  Computed S^2 = 2.000000 will be treated as 2.000000 Sz = 0.000000
 Bra state:  Computed S^2 = 0.000000 will be treated as 0.000000 Sz = 0.000000
 Clebsh-Gordan coefficient: <1.000,0.000;1.000,0.000|0.000,0.000> = 0.577

_______________________________
 One-electron SO (cm-1)
 Reduced matrix elements:
 <S|| Hso(L-) ||S'> = (-0.542193,0.000000)
 <S|| Hso(L0) ||S'> = (0.000000,0.000000)
 <S|| Hso(L+) ||S'> = (-0.542193,-0.000000)

 SOCC = 0.442698


 Actual matrix elements:
       |Sz=-1.00>           |Sz=0.00>           |Sz=1.00>
 <Sz=0.00|(0.313035,-0.000000)(0.000000,0.000000)(0.313035,0.000000)
_______________________________
 Mean-field SO (cm-1)
 Reduced matrix elements:
 <S|| Hso(L-) ||S'> = (-0.454890,0.000000)
 <S|| Hso(L0) ||S'> = (0.000000,-0.000000)
 <S|| Hso(L+) ||S'> = (-0.454890,-0.000000)

 Singlet part of <S|| Hso(L0) ||S'> = (-0.000000,0.000000) (excluded from all matrix elements)
 L-/L+ Averaged reduced matrix elements:
 <S|| Hso(L-) ||S'> = (-0.454890,0.000000)
 <S|| Hso(L+) ||S'> = (-0.454890,-0.000000)

 SOCC = 0.371416


 Actual matrix elements:
       |Sz=-1.00>           |Sz=0.00>           |Sz=1.00>
 <Sz=0.00|(0.262631,-0.000000)(0.000000,-0.000000)(0.262631,0.000000)
_______________________________

**************************************************

**************************************************
 State A: T2
 State B: S9
 Analysing Sz ans S^2 of the pair of states...
 Ket state:  Computed S^2 = 2.000000 will be treated as 2.000000 Sz = 0.000000
 Bra state:  Computed S^2 = 0.000000 will be treated as 0.000000 Sz = 0.000000
 Clebsh-Gordan coefficient: <1.000,0.000;1.000,0.000|0.000,0.000> = 0.577

_______________________________
 One-electron SO (cm-1)
 Reduced matrix elements:
 <S|| Hso(L-) ||S'> = (0.000000,0.000000)
 <S|| Hso(L0) ||S'> = (0.000000,-0.000000)
 <S|| Hso(L+) ||S'> = (0.000000,-0.000000)

 SOCC = 0.000000


 Actual matrix elements:
       |Sz=-1.00>           |Sz=0.00>           |Sz=1.00>
 <Sz=0.00|(-0.000000,-0.000000)(0.000000,-0.000000)(-0.000000,0.000000)
_______________________________
 Mean-field SO (cm-1)
 Reduced matrix elements:
 <S|| Hso(L-) ||S'> = (0.000000,0.000000)
 <S|| Hso(L0) ||S'> = (0.000000,0.000000)
 <S|| Hso(L+) ||S'> = (0.000000,-0.000000)

 Singlet part of <S|| Hso(L0) ||S'> = (-0.000000,0.000000) (excluded from all matrix elements)
 L-/L+ Averaged reduced matrix elements:
 <S|| Hso(L-) ||S'> = (0.000000,0.000000)
 <S|| Hso(L+) ||S'> = (0.000000,-0.000000)

 SOCC = 0.000000


 Actual matrix elements:
       |Sz=-1.00>           |Sz=0.00>           |Sz=1.00>
 <Sz=0.00|(-0.000000,-0.000000)(0.000000,0.000000)(-0.000000,0.000000)
_______________________________

**************************************************

**************************************************
 State A: T2
 State B: S10
 Analysing Sz ans S^2 of the pair of states...
 Ket state:  Computed S^2 = 2.000000 will be treated as 2.000000 Sz = 0.000000
 Bra state:  Computed S^2 = 0.000000 will be treated as 0.000000 Sz = 0.000000
 Clebsh-Gordan coefficient: <1.000,0.000;1.000,0.000|0.000,0.000> = 0.577

_______________________________
 One-electron SO (cm-1)
 Reduced matrix elements:
 <S|| Hso(L-) ||S'> = (0.041084,0.000000)
 <S|| Hso(L0) ||S'> = (0.000000,-0.000000)
 <S|| Hso(L+) ||S'> = (0.041084,-0.000000)

 SOCC = 0.033545


 Actual matrix elements:
       |Sz=-1.00>           |Sz=0.00>           |Sz=1.00>
 <Sz=0.00|(-0.023720,-0.000000)(0.000000,-0.000000)(-0.023720,0.000000)
_______________________________
 Mean-field SO (cm-1)
 Reduced matrix elements:
 <S|| Hso(L-) ||S'> = (0.168758,0.000000)
 <S|| Hso(L0) ||S'> = (0.000000,-0.000000)
 <S|| Hso(L+) ||S'> = (0.168758,-0.000000)

 Singlet part of <S|| Hso(L0) ||S'> = (-0.000000,0.000000) (excluded from all matrix elements)
 L-/L+ Averaged reduced matrix elements:
 <S|| Hso(L-) ||S'> = (0.168758,0.000000)
 <S|| Hso(L+) ||S'> = (0.168758,-0.000000)

 SOCC = 0.137791


 Actual matrix elements:
       |Sz=-1.00>           |Sz=0.00>           |Sz=1.00>
 <Sz=0.00|(-0.097433,-0.000000)(0.000000,-0.000000)(-0.097433,0.000000)
_______________________________

**************************************************

**************************************************
 State A: T3
 State B: T4
 Analysing Sz ans S^2 of the pair of states...
 Ket state:  Computed S^2 = 2.000000 will be treated as 2.000000 Sz = 0.000000
 Bra state:  Computed S^2 = 2.000000 will be treated as 2.000000 Sz = 0.000000
 Clebsh-Gordan coefficient: <1.000,0.000;1.000,0.000|1.000,0.000> = 0.000
WARNING! Clebsh-Gordon coefficient is too small to find a rotationally invariant part of triplet density.
Please use another EOM approach with non-zero Clebsh-Gordon coefficients
I am going to skip this state pair
_______________________________

**************************************************

**************************************************
 State A: T3
 State B: T5
 Analysing Sz ans S^2 of the pair of states...
 Ket state:  Computed S^2 = 2.000 will be treated as 2.000 Sz = 0.000
 Bra state:  Computed S^2 = 2.000 will be treated as 2.000 Sz = 0.000
 Clebsh-Gordan coefficient: <1.000,0.000;1.000,0.000|1.000,0.000> = 0.000
WARNING! Clebsh-Gordon coefficient is too small to find a rotationally invariant part of triplet density.
Please use another EOM approach with non-zero Clebsh-Gordon coefficients
I am going to skip this state pair
_______________________________

**************************************************

**************************************************
 State A: T3
 State B: T6
 Analysing Sz ans S^2 of the pair of states...
 Ket state:  Computed S^2 = 2.000 will be treated as 2.000 Sz = 0.000
[...]
_______________________________

**************************************************

**************************************************
 State A: S5
 State B: S10
 Analysing Sz ans S^2 of the pair of states...
 Ket state:  Computed S^2 = 0.000 will be treated as 0.000 Sz = 0.000
 Bra state:  Computed S^2 = 0.000 will be treated as 0.000 Sz = 0.000
 Clebsh-Gordan coefficient: <0.000,0.000;1.000,0.000|0.000,0.000> = 0.000
WARNING! Clebsh-Gordon coefficient is too small to find a rotationally invariant part of triplet density.
Please use another EOM approach with non-zero Clebsh-Gordon coefficients
I am going to skip this state pair
_______________________________

**************************************************

**************************************************
 State A: S6
 State B: S7
 Analysing Sz ans S^2 of the pair of states...
 Ket state:  Computed S^2 = 0.000 will be treated as 0.000 Sz = 0.000
 Bra state:  Computed S^2 = 0.000 will be treated as 0.000 Sz = 0.000
 Clebsh-Gordan coefficient: <0.000,0.000;1.000,0.000|0.000,0.000> = 0.000
WARNING! Clebsh-Gordon coefficient is too small to find a rotationally invariant part of triplet density.
Please use another EOM approach with non-zero Clebsh-Gordon coefficients
I am going to skip this state pair
_______________________________

**************************************************

**************************************************
 State A: S6
 State B: S8
 Analysing Sz ans S^2 of the pair of states...
 Ket state:  Computed S^2 = 0.000 will be treated as 0.000 Sz = 0.000
 Bra state:  Computed S^2 = 0.000 will be treated as 0.000 Sz = 0.000
 Clebsh-Gordan coefficient: <0.000,0.000;1.000,0.000|0.000,0.000> = 0.000
WARNING! Clebsh-Gordon coefficient is too small to find a rotationally invariant part of triplet density.
Please use another EOM approach with non-zero Clebsh-Gordon coefficients
I am going to skip this state pair
_______________________________

**************************************************

**************************************************
 State A: S6
 State B: S9
 Analysing Sz ans S^2 of the pair of states...
 Ket state:  Computed S^2 = 0.000 will be treated as 0.000 Sz = 0.000
 Bra state:  Computed S^2 = 0.000 will be treated as 0.000 Sz = 0.000
 Clebsh-Gordan coefficient: <0.000,0.000;1.000,0.000|0.000,0.000> = 0.000
WARNING! Clebsh-Gordon coefficient is too small to find a rotationally invariant part of triplet density.
Please use another EOM approach with non-zero Clebsh-Gordon coefficients
I am going to skip this state pair
_______________________________

**************************************************

**************************************************
 State A: S6
 State B: S10
 Analysing Sz ans S^2 of the pair of states...
 Ket state:  Computed S^2 = 0.000 will be treated as 0.000 Sz = 0.000
 Bra state:  Computed S^2 = 0.000 will be treated as 0.000 Sz = 0.000
 Clebsh-Gordan coefficient: <0.000,0.000;1.000,0.000|0.000,0.000> = 0.000
WARNING! Clebsh-Gordon coefficient is too small to find a rotationally invariant part of triplet density.
Please use another EOM approach with non-zero Clebsh-Gordon coefficients
I am going to skip this state pair
_______________________________

**************************************************

**************************************************
 State A: S7
 State B: S8
 Analysing Sz ans S^2 of the pair of states...
 Ket state:  Computed S^2 = 0.000 will be treated as 0.000 Sz = 0.000
 Bra state:  Computed S^2 = 0.000 will be treated as 0.000 Sz = 0.000
 Clebsh-Gordan coefficient: <0.000,0.000;1.000,0.000|0.000,0.000> = 0.000
WARNING! Clebsh-Gordon coefficient is too small to find a rotationally invariant part of triplet density.
Please use another EOM approach with non-zero Clebsh-Gordon coefficients
I am going to skip this state pair
_______________________________

**************************************************

**************************************************
 State A: S7
 State B: S9
 Analysing Sz ans S^2 of the pair of states...
 Ket state:  Computed S^2 = 0.000 will be treated as 0.000 Sz = 0.000
 Bra state:  Computed S^2 = 0.000 will be treated as 0.000 Sz = 0.000
 Clebsh-Gordan coefficient: <0.000,0.000;1.000,0.000|0.000,0.000> = 0.000
WARNING! Clebsh-Gordon coefficient is too small to find a rotationally invariant part of triplet density.
Please use another EOM approach with non-zero Clebsh-Gordon coefficients
I am going to skip this state pair
_______________________________

**************************************************

**************************************************
 State A: S7
 State B: S10
 Analysing Sz ans S^2 of the pair of states...
 Ket state:  Computed S^2 = 0.000 will be treated as 0.000 Sz = 0.000
 Bra state:  Computed S^2 = 0.000 will be treated as 0.000 Sz = 0.000
 Clebsh-Gordan coefficient: <0.000,0.000;1.000,0.000|0.000,0.000> = 0.000
WARNING! Clebsh-Gordon coefficient is too small to find a rotationally invariant part of triplet density.
Please use another EOM approach with non-zero Clebsh-Gordon coefficients
I am going to skip this state pair
_______________________________

**************************************************

**************************************************
 State A: S8
 State B: S9
 Analysing Sz ans S^2 of the pair of states...
 Ket state:  Computed S^2 = 0.000 will be treated as 0.000 Sz = 0.000
 Bra state:  Computed S^2 = 0.000 will be treated as 0.000 Sz = 0.000
 Clebsh-Gordan coefficient: <0.000,0.000;1.000,0.000|0.000,0.000> = 0.000
WARNING! Clebsh-Gordon coefficient is too small to find a rotationally invariant part of triplet density.
Please use another EOM approach with non-zero Clebsh-Gordon coefficients
I am going to skip this state pair
_______________________________

**************************************************

**************************************************
 State A: S8
 State B: S10
 Analysing Sz ans S^2 of the pair of states...
 Ket state:  Computed S^2 = 0.000 will be treated as 0.000 Sz = 0.000
 Bra state:  Computed S^2 = 0.000 will be treated as 0.000 Sz = 0.000
 Clebsh-Gordan coefficient: <0.000,0.000;1.000,0.000|0.000,0.000> = 0.000
WARNING! Clebsh-Gordon coefficient is too small to find a rotationally invariant part of triplet density.
Please use another EOM approach with non-zero Clebsh-Gordon coefficients
I am going to skip this state pair
_______________________________

**************************************************

**************************************************
 State A: S9
 State B: S10
 Analysing Sz ans S^2 of the pair of states...
 Ket state:  Computed S^2 = 0.000 will be treated as 0.000 Sz = 0.000
 Bra state:  Computed S^2 = 0.000 will be treated as 0.000 Sz = 0.000
 Clebsh-Gordan coefficient: <0.000,0.000;1.000,0.000|0.000,0.000> = 0.000
WARNING! Clebsh-Gordon coefficient is too small to find a rotationally invariant part of triplet density.
Please use another EOM approach with non-zero Clebsh-Gordon coefficients
I am going to skip this state pair
_______________________________

**************************************************


            *********SPIN-ORBIT COUPLING JOB ENDS HERE*********




            STATE-TO-STATE TRANSITION ANGULAR MOMENTS
Note: values should be multiplied by complex "i" to account for the true operator


            Angular Moments of Ground State
 -----------------------------------------------------
   State     X           Y           Z(a.u.) 
 -----------------------------------------------------
       0     0.000000    0.000000    0.644333
 -----------------------------------------------------

 Within CIS/TDA Excited States:

            Angular Moments of Triplet Excited State
 -----------------------------------------------------
   State     X           Y           Z(a.u.) 
 -----------------------------------------------------
       1     0.000000    0.000000    0.644333
       3     0.000000    0.000000    0.644333
       4     0.000000    0.000000    0.644333
       6     0.000000    0.000000    0.644333
       8     0.000000    0.000000    0.644333
      10     0.000000    0.000000    0.644333
      13     0.000000    0.000000    0.644333
      14     0.000000    0.000000    0.644333
      17     0.000000    0.000000    0.644333
      19     0.000000    0.000000    0.644333
 -----------------------------------------------------

        Transition Angular Moments Between Ground and Triplet Excited States
 --------------------------------------------------------------------------------
    States   X          Y          Z             Length(a.u.)
 --------------------------------------------------------------------------------
    0    1   0.000000   0.000000   0.000000              0
    0    3   0.000000   0.000000   0.000000              0
    0    4   0.000000   0.000000   0.000000              0
    0    6   0.000000   0.000000   0.000000              0
    0    8   0.000000   0.000000   0.000000              0
    0   10   0.000000   0.000000   0.000000              0
    0   13   0.000000   0.000000   0.000000              0
    0   14   0.000000   0.000000   0.000000              0
    0   17   0.000000   0.000000   0.000000              0
    0   19   0.000000   0.000000   0.000000              0
 --------------------------------------------------------------------------------

        Transition Angular Moments Between Triplet Excited States
 --------------------------------------------------------------------------------
    States   X          Y          Z             Length(a.u.)
 --------------------------------------------------------------------------------
    1    3  -0.926489  -0.000000   0.000000      0.9264893
    1    4  -0.000000   0.213625   0.000000      0.2136253
    1    6  -0.000000   0.000000  -0.336116      0.3361157
    1    8   0.000000  -0.000000   0.804026      0.8040262
    1   10  -0.110239  -0.000000   0.000000      0.1102389
    1   13  -0.094561  -0.000000  -0.000000     0.09456078
    1   14   0.000000  -0.000000   0.084801     0.08480098
    1   17  -0.220091   0.000000   0.000000       0.220091
    1   19   0.000000   0.000000  -0.000247   0.0002471352
    3    4  -0.000000   0.000000   0.114863      0.1148634
    3    6   0.000000  -0.031692  -0.000000     0.03169187
    3    8   0.000000   0.903577   0.000000      0.9035768
    3   10   0.000000   0.000000  -0.000000    3.38874E-15
    3   13  -0.000000  -0.000000  -0.000000    4.02066E-16
    3   14   0.000000   0.116421   0.000000      0.1164209
    3   17  -0.000000   0.000000   0.000000   2.218201E-16
    3   19   0.000000   0.018471   0.000000     0.01847139
    4    6  -0.859183  -0.000000  -0.000000      0.8591827
    4    8  -0.342932   0.000000  -0.000000      0.3429322
    4   10  -0.000000  -0.000000   0.859022      0.8590225
    4   13   0.000000  -0.000000   0.124539      0.1245386
    4   14  -0.154627   0.000000   0.000000      0.1546272
    4   17  -0.000000  -0.000000  -0.000247   0.0002471566
    4   19  -0.219567  -0.000000   0.000000      0.2195671
    6    8  -0.000000  -0.000000  -0.000000   9.511907E-16
    6   10  -0.000000   0.682477   0.000000      0.6824774
    6   13  -0.000000   0.128894   0.000000      0.1288945
    6   14  -0.000000   0.000000  -0.000000   1.829458E-15
    6   17   0.000000   0.055025   0.000000     0.05502485
    6   19  -0.000000   0.000000   0.000000   5.087223E-16
    8   10  -0.000000   0.387595  -0.000000      0.3875951
    8   13  -0.000000   0.031162  -0.000000     0.03116202
    8   14  -0.000000   0.000000   0.000000   1.554735E-15
    8   17  -0.000000  -0.132537  -0.000000      0.1325374
    8   19  -0.000000   0.000000  -0.000000   6.289325E-16
   10   13  -0.000000   0.000000   0.000000   9.613787E-16
   10   14   0.000000  -0.160088   0.000000       0.160088
   10   17  -0.000000  -0.000000   0.000000   2.796904E-16
   10   19   0.000000  -0.140812  -0.000000       0.140812
   13   14   0.000000   0.196287   0.000000      0.1962869
   13   17  -0.000000  -0.000000   0.000000    1.71195E-17
   13   19   0.000000  -0.020433  -0.000000     0.02043315
   14   17   0.000000  -0.014013  -0.000000      0.0140126
   14   19   0.000000  -0.000000  -0.000000   2.949125E-16
   17   19  -0.000000   0.213625   0.000000      0.2136251
 --------------------------------------------------------------------------------

 Within CIS/TDA Excited States:

            Angular Moments of Singlet Excited State
 -----------------------------------------------------
   State     X           Y           Z(a.u.) 
 -----------------------------------------------------
       2     0.000000    0.000000    0.644333
       5     0.000000    0.000000    0.644333
       7     0.000000    0.000000    0.644333
       9     0.000000    0.000000    0.644333
      11     0.000000    0.000000    0.644333
      12     0.000000    0.000000    0.644333
      15     0.000000    0.000000    0.644333
      16     0.000000    0.000000    0.644333
      18     0.000000    0.000000    0.644333
      20     0.000000    0.000000    0.644333
 -----------------------------------------------------

        Transition Angular Moments Between Ground and Singlet Excited States
 --------------------------------------------------------------------------------
    States   X          Y          Z             Length(a.u.)
 --------------------------------------------------------------------------------
    0    2   0.507719  -0.000000  -0.000000      0.5077191
    0    5   0.000000  -0.000000   0.683194      0.6831938
    0    7   0.000000  -0.000000   0.000000   1.163032E-14
    0    9  -0.000000   0.745465   0.000000      0.7454651
    0   11   0.000000  -0.055618   0.000000     0.05561786
    0   12   0.000000   0.000000   0.000000   8.478616E-16
    0   15   0.000000  -0.000000  -0.000000   6.292926E-16
    0   16  -0.000000   0.157056   0.000000      0.1570565
    0   18  -0.000000  -0.000000  -0.000000   9.178418E-16
    0   20  -0.000000   0.277419   0.000000      0.2774189
 --------------------------------------------------------------------------------

        Transition Angular Moments Between Singlet Excited States
 --------------------------------------------------------------------------------
    States   X          Y          Z             Length(a.u.)
 --------------------------------------------------------------------------------
    2    5   0.000000   0.213625   0.000000      0.2136253
    2    7  -0.890984   0.000000  -0.000000      0.8909842
    2    9  -0.000000  -0.000000   0.376800      0.3767996
    2   11  -0.000000  -0.000000   0.790345      0.7903449
    2   12   0.139524   0.000000  -0.000000      0.1395238
    2   15  -0.257198   0.000000   0.000000      0.2571982
    2   16  -0.000000   0.000000   0.000295   0.0002945346
    2   18  -0.220104   0.000000  -0.000000      0.2201044
    2   20   0.000000   0.000000   0.000018   1.811365E-05
    5    7   0.000000  -0.000000   0.199715      0.1997149
    5    9  -0.840854  -0.000000   0.000000      0.8408539
    5   11   0.400925  -0.000000   0.000000      0.4009249
    5   12   0.000000  -0.000000   0.815395      0.8153954
    5   15  -0.000000   0.000000  -0.248730        0.24873
    5   16  -0.107145   0.000000   0.000000      0.1071452
    5   18  -0.000000   0.000000  -0.000921   0.0009213556
    5   20  -0.220591   0.000000   0.000000      0.2205915
    7    9  -0.000000   0.337103   0.000000      0.3371033
    7   11   0.000000   0.666500   0.000000         0.6665
    7   12   0.000000  -0.000000   0.000000   1.322968E-14
    7   15  -0.000000   0.000000  -0.000000   4.948346E-15
    7   16  -0.000000  -0.040391  -0.000000      0.0403906
    7   18  -0.000000   0.000000  -0.000000   5.425939E-16
    7   20  -0.000000  -0.032733  -0.000000     0.03273326
    9   11   0.000000   0.000000   0.000000   1.483198E-15
    9   12   0.000000   0.874733   0.000000      0.8747333
    9   15  -0.000000  -0.364200  -0.000000      0.3642005
    9   16  -0.000000  -0.000000  -0.000000   7.121614E-16
    9   18  -0.000000  -0.062761  -0.000000     0.06276119
    9   20  -0.000000  -0.000000  -0.000000   3.493816E-16
   11   12  -0.000000  -0.053929  -0.000000     0.05392925
   11   15   0.000000  -0.132608  -0.000000       0.132608
   11   16  -0.000000  -0.000000  -0.000000    1.09636E-15
   11   18  -0.000000  -0.129949  -0.000000       0.129949
   11   20  -0.000000   0.000000  -0.000000   3.271697E-17
   12   15  -0.000000  -0.000000  -0.000000    4.61364E-16
   12   16  -0.000000  -0.008828  -0.000000    0.008828189
   12   18  -0.000000   0.000000  -0.000000   1.453796E-16
   12   20  -0.000000  -0.134522  -0.000000      0.1345223
   15   16  -0.000000   0.224830   0.000000      0.2248296
   15   18  -0.000000  -0.000000   0.000000   3.681505E-16
   15   20   0.000000   0.040757   0.000000     0.04075677
   16   18  -0.000000  -0.000421  -0.000000   0.0004206253
   16   20  -0.000000  -0.000000   0.000000   2.518169E-17
   18   20  -0.000000   0.213780   0.000000        0.21378
 --------------------------------------------------------------------------------

                    END OF TRANSITION MOMENT CALCULATION

 
 --------------------------------------------------------------
             Orbital Energies (a.u.) and Symmetries
 --------------------------------------------------------------
 
 Alpha MOs, Restricted
 -- Occupied --                  
-19.369  -1.048  -0.510  -0.313  -0.243
  1 A1    2 A1    1 B1    3 A1    1 B2                                         
 -- Virtual --                   
  0.394   0.531
  4 A1    2 B1                                                                 
 
 Beta MOs, Restricted
 -- Occupied --                  
-19.369  -1.048  -0.510  -0.313  -0.243
  1 A1    2 A1    1 B1    3 A1    1 B2                                         
 -- Virtual --                   
  0.394   0.531
  4 A1    2 B1                                                                 
 --------------------------------------------------------------
 
          Ground-State Mulliken Net Atomic Charges

     Atom                 Charge (a.u.)
  ----------------------------------------
      1 O                    -0.349029
      2 H                     0.174514
      3 H                     0.174514
  ----------------------------------------
  Sum of atomic charges =     0.000000

 -----------------------------------------------------------------
                    Cartesian Multipole Moments
 -----------------------------------------------------------------
    Charge (ESU x 10^10)
                 0.0000
    Dipole Moment (Debye)
         X      -0.0000      Y      -0.0000      Z      -1.6377
       Tot       1.6377
    Quadrupole Moments (Debye-Ang)
        XX      -4.1705     XY      -0.0000     YY      -6.1228
        XZ       0.0000     YZ      -0.0000     ZZ      -5.4477
    Octopole Moments (Debye-Ang^2)
       XXX      -0.0000    XXY      -0.0000    XYY      -0.0000
       YYY      -0.0000    XXZ      -0.6178    XYZ       0.0000
       YYZ       0.0155    XZZ      -0.0000    YZZ      -0.0000
       ZZZ      -0.1142
    Hexadecapole Moments (Debye-Ang^3)
      XXXX      -6.8966   XXXY      -0.0000   XXYY      -1.8961
      XYYY      -0.0000   YYYY      -3.2631   XXXZ       0.0000
      XXYZ      -0.0000   XYYZ       0.0000   YYYZ      -0.0000
      XXZZ      -1.7669   XYZZ      -0.0000   YYZZ      -1.3932
      XZZZ       0.0000   YZZZ      -0.0000   ZZZZ      -4.9035
 -----------------------------------------------------------------
 Total job time:  1.29s(wall), 0.56s(cpu) 
 Fri Jan 19 10:26:05 2024

        *************************************************************
        *                                                           *
        *  Thank you very much for using Q-Chem.  Have a nice day.  *
        *                                                           *
        *************************************************************


