                  Welcome to Q-Chem
     A Quantum Leap Into The Future Of Chemistry


 Q-Chem 5.4 (devel), Q-Chem, Inc., Pleasanton, CA (2021)

 E. Epifanovsky,  A. T. B. Gilbert,  Xintian Feng,  Joonho Lee,  Yuezhi Mao,  
 N. Mardirossian,  P. Pokhilko,  A. White,  M. Wormit,  M. P. Coons,  
 A. L. Dempwolff,  Zhengting Gan,  D. Hait,  P. R. Horn,  L. D. Jacobson,  
 I. Kaliman,  J. Kussmann,  A. W. Lange,  Ka Un Lao,  D. S. Levine,  Jie Liu,  
 S. C. McKenzie,  A. F. Morrison,  K. Nanda,  F. Plasser,  D. R. Rehn,  
 M. L. Vidal,  Zhi-Qiang You,  Ying Zhu,  B. Alam,  B. Albrecht,  
 A. Aldossary,  E. Alguire,  J. H. Andersen,  D. Barton,  K. Begam,  A. Behn,  
 Y. A. Bernard,  E. J. Berquist,  H. Burton,  A. Carreras,  K. Carter-Fenk,  
 Romit Chakraborty,  A. D. Chien,  K. D. Closser,  V. Cofer-Shabica,  
 S. Dasgupta,  Jia Deng,  M. de Wergifosse,  M. Diedenhofen,  Hainam Do,  
 S. Ehlert,  Po-Tung Fang,  S. Fatehi,  Qingguo Feng,  T. Friedhoff,  
 J. Gayvert,  Qinghui Ge,  G. Gidofalvi,  M. Goldey,  J. Gomes,  
 C. Gonzalez-Espinoza,  S. Gulania,  A. Gunina,  M. W. D. Hanson-Heine,  
 P. H. P. Harbach,  A. W. Hauser,  M. F. Herbst,  M. Hernandez Vera,  
 M. Hodecker,  Z. C. Holden,  S. Houck,  Xunkun Huang,  Kerwin Hui,  
 B. C. Huynh,  M. Ivanov,  Hyunjun Ji,  Hanjie Jiang,  B. Kaduk,  S. Kaehler,  
 K. Khistyaev,  Jaehoon Kim,  P. Klunzinger,  Z. Koczor-Benda,  
 Joong Hoon Koh,  D. Kosenkov,  L. Koulias,  T. Kowalczyk,  C. M. Krauter,  
 K. Kue,  A. Kunitsa,  T. Kus,  A. Landau,  K. V. Lawler,  D. Lefrancois,  
 S. Lehtola,  Rain Li,  Yi-Pei Li,  Jiashu Liang,  M. Liebenthal,  
 Hung-Hsuan Lin,  You-Sheng Lin,  Fenglai Liu,  Kuan-Yu Liu,  
 M. Loipersberger,  A. Luenser,  A. Manjanath,  P. Manohar,  E. Mansoor,  
 S. F. Manzer,  Shan-Ping Mao,  A. V. Marenich,  T. Markovich,  S. Mason,  
 S. A. Maurer,  P. F. McLaughlin,  M. F. S. J. Menger,  J.-M. Mewes,  
 S. A. Mewes,  P. Morgante,  J. W. Mullinax,  K. J. Oosterbaan,  G. Paran,  
 Alexander C. Paul,  Suranjan K. Paul,  F. Pavosevic,  Zheng Pei,  S. Prager,  
 E. I. Proynov,  E. Ramos,  B. Rana,  A. E. Rask,  A. Rettig,  R. M. Richard,  
 F. Rob,  E. Rossomme,  T. Scheele,  M. Scheurer,  M. Schneider,  
 N. Sergueev,  S. M. Sharada,  W. Skomorowski,  D. W. Small,  C. J. Stein,  
 Yu-Chuan Su,  E. J. Sundstrom,  Zhen Tao,  J. Thirman,  T. Tsuchimochi,  
 N. M. Tubman,  S. P. Veccham,  O. Vydrov,  J. Wenzel,  J. Witte,  A. Yamada,  
 Kun Yao,  S. Yeganeh,  S. R. Yost,  A. Zech,  Igor Ying Zhang,  Xing Zhang,  
 Yu Zhang,  D. Zuev,  A. Aspuru-Guzik,  A. T. Bell,  N. A. Besley,  
 K. B. Bravaya,  B. R. Brooks,  D. Casanova,  Jeng-Da Chai,  S. Coriani,  
 C. J. Cramer,  A. E. DePrince, III,  R. A. DiStasio Jr.,  A. Dreuw,  
 B. D. Dunietz,  T. R. Furlani,  W. A. Goddard III,  S. Grimme,  
 S. Hammes-Schiffer,  T. Head-Gordon,  W. J. Hehre,  Chao-Ping Hsu,  
 T.-C. Jagau,  Yousung Jung,  A. Klamt,  Jing Kong,  D. S. Lambrecht,  
 WanZhen Liang,  N. J. Mayhall,  C. W. McCurdy,  J. B. Neaton,  T. Neudecker,  
 C. Ochsenfeld,  J. A. Parkhill,  R. Peverati,  V. A. Rassolov,  Yihan Shao,  
 L. V. Slipchenko,  R. P. Steele,  J. E. Subotnik,  A. J. W. Thom,  
 A. Tkatchenko,  D. G. Truhlar,  T. Van Voorhis,  T. A. Wesolowski,  
 K. B. Whaley,  H. L. Woodcock III,  P. M. Zimmerman,  S. Faraji,  
 P. M. W. Gill,  M. Head-Gordon,  J. M. Herbert,  A. I. Krylov

 Additional authors since Version 5.4.0: 
 Chandrima Chakravarty,  L. Cunha,  R. Kang,  Yongbin Kim,  S. Kotaru,  
 Shaozhi Li,  Xiangyuan Li,  F. Matz,  A. Molle,  V. Parravicini,  
 Haisheng Ren,  Hengyuan Shen,  Yingli Su,  Hung-Yi Tsai,  C. Utku,  
 Fang Wang,  Jeff Yang,  F. Zeller

 Contributors to earlier versions of Q-Chem not listed above: 
 R. D. Adamson,  B. Austin,  R. Baer,  J. Baker,  G. J. O. Beran,  
 K. Brandhorst,  S. T. Brown,  E. F. C. Byrd,  Arup K. Chakraborty,  
 G. K. L. Chan,  Chun-Min Chang,  Yunqing Chen,  C.-L. Cheng,  
 Siu Hung Chien,  D. M. Chipman,  D. L. Crittenden,  H. Dachsel,  
 R. J. Doerksen,  A. D. Dutoi,  R. G. Edgar,  J. Fosso-Tande,  
 L. Fusti-Molnar,  D. Ghosh,  A. Ghysels,  A. Golubeva-Zadorozhnaya,  
 J. Gonthier,  M. S. Gordon,  S. R. Gwaltney,  G. Hawkins,  J. E. Herr,  
 A. Heyden,  S. Hirata,  E. G. Hohenstein,  G. Kedziora,  F. J. Keil,  
 C. Kelley,  Jihan Kim,  R. A. King,  R. Z. Khaliullin,  P. P. Korambath,  
 W. Kurlancheek,  A. Laurent,  A. M. Lee,  M. S. Lee,  S. V. Levchenko,  
 Ching Yeh Lin,  D. Liotard,  E. Livshits,  R. C. Lochan,  I. Lotan,  
 L. A. Martinez-Martinez,  P. E. Maslen,  N. Nair,  D. P. O'Neill,  
 D. Neuhauser,  E. Neuscamman,  C. M. Oana,  R. Olivares-Amaya,  R. Olson,  
 T. M. Perrine,  B. Peters,  P. A. Pieniazek,  A. Prociuk,  Y. M. Rhee,  
 J. Ritchie,  M. A. Rohrdanz,  E. Rosta,  N. J. Russ,  H. F. Schaefer III,  
 M. W. Schmidt,  N. E. Schultz,  S. Sharma,  N. Shenvi,  C. D. Sherrill,  
 A. C. Simmonett,  A. Sodt,  T. Stein,  D. Stuck,  K. S. Thanthiriwatte,  
 V. Vanovschi,  L. Vogt,  Tao Wang,  A. Warshel,  M. A. Watson,  
 C. F. Williams,  Q. Wu,  X. Xu,  Jun Yang,  W. Zhang,  Yan Zhao

   Please cite Q-Chem as follows:
  "Software for the frontiers of quantum chemistry:
   An overview of developments in the Q-Chem 5 package"
   J. Chem. Phys. 155, 084801 (2021)
   https://doi.org/10.1063/5.0055522 (open access)

 Q-Chem 5.4.2 for Intel X86 EM64T Linux

 Parts of Q-Chem use Armadillo 9.900.5 (Nocturnal Misbehaviour).
 http://arma.sourceforge.net/

 Q-Chem begins on Thu Dec  1 08:35:48 2022  

 Host: atlas-163
0

     Scratch files written to ./qchem4801//
 Processing $rem in /scratch/abel/SOFTWARE/qchem/config/preferences:
 Processing $rem in /dipc/acebg/.qchemrc:
The previous job contains 0 fragments, simply inherited here

 Checking the input file for inconsistencies... 	...done.

--------------------------------------------------------------
User input:
--------------------------------------------------------------
$comment
 RAS-SF CALCULATION
$end

$molecule
 READ cucl4_2-.molecule
$end

$rem
!**CALCULATION TYPE***     
JOBTYPE            sp    
EXCHANGE           HF
CORRELATION        RASCI    !RASCI=Casanova; RASCI2=Zimmerman
BASIS              def2-TZVP
BASIS2             STO-3G

!***SCF REFERENCE***
SKIP_SCFMAN        FALSE
UNRESTRICTED       FALSE
!SCF_GUESS          core
!SCF_GUESS_MIX      FALSE
!SCF_GUESS_ALWAYS   FALSE
MAX_SCF_CYCLES     500
SCF_CONVERGENCE    8
!SCF_ALGORITHM      DIIS !DIIS,DM,DIIS_DM,GDM,DIIS_GDM,GD

SYMMETRY           TRUE !use of symmetry for calculating integrals
SYM_IGNORE         FALSE !turn off using symmetry
SYM_TOL            5 !tolerance for determining point group

!THRESH             14
SCF_FINAL_PRINT     1 !0,1,2,3

!****RAS-SF****
RAS_ROOTS          10       !number of RAS-CI roots to be computed
SET_ITER           150     !number of iterations in RASCI
RAS_ELEC           17       !number of electrons in RAS2
!RAS_ELEC_ALPHA            !spin-α electrons in RAS2 
!RAS_ELEC_BETA             !spin-β electrons in RAS2

RAS_ACT            10       !number of orbitals in RAS2 
RAS_ACT_ORB       [34, 35, 36, 37, 41, 43, 44, 45, 50, 51] !user-selected RAS2 orbitals
RAS_OCC            41       !number of orbitals in RAS1
N_FROZEN_CORE      FC     !Number of frozen core orbitals
N_FROZEN_VIRTUAL   0      !Number of frozen virtual orbitals
RAS_NATORB         TRUE    !computation of the natural orbital occupancies
!RAS_NATORB_STATE  0      !Saves NO of i RAS computed state in .fchk ﬁle

RAS_DO_HOLE        TRUE   !presence of hole excitations in RAS-CI wave function
RAS_DO_PART        TRUE   !presence of particle excitations
RAS_AMPL_PRINT     10     !threshold (×10 2 ) for the CI amplitudes

RAS_GUESS_CS       0      !number of closed shell guess conﬁgurations
RAS_SPIN_MULT      0      !spin multiplicity: 0=any, 2n+1=defined 
RAS_SRDFT          FALSE  !short-range density functional RAS-CI
RAS_NFRAG          0     !fragments of excitation analysis in RASCI

RAS_PRINT          2      !level of information
RAS_NATORB         TRUE   !computation of the natural orbital occupancies
!RAS_NATORB_STATE  0      !Saves NO of i RAS computed state in .fchk ﬁle
RAS_FOD            TRUE

!****RAS-SOC****
CALC_SOC           TRUE   !calculate SOC for EOM-CC, RAS-CI, ADC, TDDFT/TDA and TDDFT
!RAS_SOC_2E        TRUE   !two-electron mean-ﬁeld contribution, default=true
RAS_SOC_SYM_DENS   TRUE   !averaging of α and β densities

!****MEMORY****
MEM_TOTAL          10000 !Default 2000 MB
MEM_STATIC         2000  !Default 64 MB

!**Molecular Properties and Analysis **                                                                                          
GUI                2
STATE_ANALYSIS     TRUE
MOLDEN_FORMAT      TRUE
PRINT_ORBITALS     20
$end                                           

--------------------------------------------------------------
 ----------------------------------------------------------------
             Standard Nuclear Orientation (Angstroms)
    I     Atom           X                Y                Z
 ----------------------------------------------------------------
    1      Cu     -0.0000000000     0.0000000000    -0.0000000000
    2      Cl      2.3112385002    -0.0000000000    -0.0000000000
    3      Cl      0.0000000000     2.3112385002    -0.0000000000
    4      Cl     -0.0000000000    -2.3112385002     0.0000000000
    5      Cl     -2.3112385002     0.0000000000     0.0000000000
 ----------------------------------------------------------------
 Molecular Point Group                 D2h   NOp =  8
 Largest Abelian Subgroup              D2h   NOp =  8
 Nuclear Repulsion Energy =         704.82872953 hartrees
 There are       50 alpha and       49 beta electrons
 Requested basis set is def2-TZVP
 There are 67 shells and 193 basis functions

 Total QAlloc Memory Limit  10000 MB
 Mega-Array Size      1956 MB
 MEM_STATIC part      2000 MB


                       Distance Matrix (Angstroms)
             Cu(  1)   Cl(  2)   Cl(  3)   Cl(  4)
   Cl(  2)  2.311239
   Cl(  3)  2.311239  3.268585
   Cl(  4)  2.311239  3.268585  4.622477
   Cl(  5)  2.311239  4.622477  3.268585  3.268585
 
 A cutoff of  1.0D-12 yielded   1874 shell pairs
 There are     16710 function pairs (     21943 Cartesian)
 Smallest overlap matrix eigenvalue = 9.49E-03

 Scale SEOQF with 1.000000e-01/1.000000e-01/1.000000e-01

 Standard Electronic Orientation quadrupole field applied
 Nucleus-field energy     =     0.0000000195 hartrees
 Requested basis set is STO-3G
 There are 17 shells and 54 basis functions
 A cutoff of  1.0D-12 yielded    113 shell pairs
 There are      1311 function pairs (      1371 Cartesian)
 Smallest overlap matrix eigenvalue = 2.93E-01
 Constructing guess Fock matrix from core Hamiltonian
 Applying Wolfsberg-Helmholtz approximation
 A restricted Hartree-Fock SCF calculation will be
 performed using Geometric Direct Minimization
 SCF converges when RMS gradient is below 1.0E-04
 ---------------------------------------
  Cycle       Energy        RMS Gradient
 ---------------------------------------
    1   -3414.0448209425      5.46E+00 Descent step
    2   -3416.0789549848      2.40E+04 Line search: understep
    3   -3427.8100586570      1.46E+00 Descent step
    4   -3428.6717161485      8.51E+03 Line search: understep
    5   -3432.7992156610      3.93E+00 Descent step
    6   -3434.1070673373      2.01E+00 Descent step
    7   -3434.9438365728      1.55E+00 Descent step
    8   -3435.7226093628      1.29E+00 Descent step
    9   -3436.3932676866      1.07E+00 Descent step
   10   -3436.8898005574      8.41E-01 Descent step
   11   -3437.2425841589      6.16E-01 Descent step
   12   -3437.5069357397      4.90E-01 Descent step
   13   -3437.7549079830      7.45E-01 Descent step
   GDM::BFGS:   rebuilding Hinv to be positive definite
   14   -3438.0546748814      1.23E+00 Descent step
   15   -3438.4424555280      4.57E-01 Descent step
   16   -3438.5678499566      1.90E-01 Dog-leg BFGS step
   17   -3438.5808861029      1.08E-01 Dog-leg BFGS step
   18   -3438.5894129584      7.78E-02 Dog-leg BFGS step
   19   -3438.5751444492      2.78E+01 Line search: overstep
   20   -3438.5941026412      6.21E-02 Dog-leg BFGS step
   21   -3438.5985463983      1.32E-02 Normal BFGS step
   22   -3438.5986574106      3.08E-03 Normal BFGS step
   23   -3438.5986645899      6.88E-04 Normal BFGS step
   24   -3438.5986654896      2.25E-04 Normal BFGS step
   25   -3438.5986656685      4.54E-05 Convergence criterion met
 ---------------------------------------
 One-Electron    Energy = -6230.8986956401
 Total Coulomb   Energy =  2265.0313634541
 Alpha Exchange  Energy =   -88.9417208690
 Beta  Exchange  Energy =   -88.6183421633
 DFT   Exchange  Energy =     0.0000000000
 DFT Correlation Energy =     0.0000000000
 Nuclear Repu.   Energy =   704.8287295498
 Nuclear Attr.   Energy = -9638.5422937596
 Kinetic         Energy =  3407.6435981195
 SCF time:  CPU 2.05 s  wall 4.51 s
 SCF   energy in the small basis set = -3438.59866567
 Total energy in the small basis set = -3438.59866567
 ----------------------------------------------------
  Cycle       Energy    
 ----------------------------------------------------
    1    -163.9689023428     -1.64E+02
 A restricted Hartree-Fock SCF calculation will be
 performed using Geometric Direct Minimization
 SCF converges when RMS gradient is below 1.0E-08
 ---------------------------------------
  Cycle       Energy        RMS Gradient
 ---------------------------------------
    1   -3476.5617618619      5.21E-01 Descent step
    2   -3476.8147995946      3.23E-01 Descent step
    3   -3477.0337745587      2.10E-01 Descent step
    4   -3477.1478394215      1.08E-01 Normal BFGS step
    5   -3477.1744814111      3.88E-02 Normal BFGS step
    6   -3477.1779029598      1.35E-02 Normal BFGS step
    7   -3477.1781984402      3.71E-02 Normal BFGS step
    8   -3477.1784326126      1.26E-02 Normal BFGS step
    9   -3477.1784852679      1.87E-03 Normal BFGS step
   10   -3477.1784884386      4.43E-04 Normal BFGS step
   11   -3477.1784886068      4.49E-05 Normal BFGS step
   12   -3477.1784886177      2.00E-05 Normal BFGS step
   13   -3477.1784886189      3.34E-06 Normal BFGS step
   GDM::WARNING energy changes are now smaller than effective accuracy.
   GDM::        calculation will continue, but THRESH should be increased
   GDM::        or SCF_CONVERGENCE decreased.
   GDM::        effective_thresh =   5.167723055032880E-010
   14   -3477.1784886188      2.33E-06 Normal BFGS step
   15   -3477.1784886191      4.61E-07 Normal BFGS step
   GDM::WARNING energy changes are now smaller than effective accuracy.
   GDM::        calculation will continue, but THRESH should be increased
   GDM::        or SCF_CONVERGENCE decreased.
   GDM::        effective_thresh =   1.587661543900332E-009
   16   -3477.1784886190      6.47E-08 Normal BFGS step
   17   -3477.1784886190      2.94E-08 Normal BFGS step
   GDM::WARNING energy changes are now smaller than effective accuracy.
   GDM::        calculation will continue, but THRESH should be increased
   GDM::        or SCF_CONVERGENCE decreased.
   GDM::        effective_thresh =   2.007520524816009E-009
   18   -3477.1784886190      4.36E-08 Normal BFGS step
   GDM::WARNING energy changes are now smaller than effective accuracy.
   GDM::        calculation will continue, but THRESH should be increased
   GDM::        or SCF_CONVERGENCE decreased.
   GDM::        effective_thresh =   2.007520524816009E-009
   19   -3477.1784886189      3.06E-08 Normal BFGS step
   20   -3477.1784886189      4.21E-08 Normal BFGS step
   GDM::WARNING energy changes are now smaller than effective accuracy.
   GDM::        calculation will continue, but THRESH should be increased
   GDM::        or SCF_CONVERGENCE decreased.
   GDM::        effective_thresh =   2.007520524816009E-009
   21   -3477.1784886189      1.80E-09 Convergence criterion met
 ---------------------------------------
 One-Electron    Energy = -6269.6381209856
 Total Coulomb   Energy =  2264.1952094074
 Alpha Exchange  Energy =   -88.9536067749
 Beta  Exchange  Energy =   -87.6106998156
 DFT   Exchange  Energy =     0.0000000000
 DFT Correlation Energy =     0.0000000000
 Nuclear Repu.   Energy =   704.8287295498
 Nuclear Attr.   Energy = -9747.4359151819
 Kinetic         Energy =  3477.7977941963
 SCF time:  CPU 111.79 s  wall 115.91 s
 SCF   energy in the final basis set = -3477.17848862
 Total energy in the final basis set = -3477.17848862
  
     ##========================================##
     ||                                        ||
     ||              R A S M A N 2             ||
     ||________________________________________||
     ||                                        ||
     ||  Author:                               ||
     ||                                        ||
     ||        David Casanova (2010)           ||
     ||                                        ||
     ##========================================##
  
  ***************************************************
  *  RAS-CI Dimensions:                             *
  *                                                 *
  *  Active Elec.:  17 ( 9, 8)   Active Orb.:  10   *
  *  Doubly Occ. :  41           Doubly Vir.: 142   *
  *  Frozen Occ. :  29           Frozen Vir.:   0   *
  *                                                 *
  *  Total CI configurations:    460140             * 
  *    Active configurations:       450             * 
  *      Hole configurations:      1740             * 
  *  Particle configurations:    457950             * 
  *                                                 *
  *   Requested states:       10                    *
  *  Spin multiplicity: Any multiplicity            *
  *                                                 *
  ***************************************************
-----------------------------------------
    Memory requirements of RASCI

 Each CI-vector requires      3.51 MiB 
 Max. subspace vectors           1500      

 Reduced Lists                0.00 MiB 
 Excitation Lists             0.00 MiB 
 Excitation Lists Sign        0.00 MiB 
 CI-space (Max)            5318.17 MiB 
 Integrals                   59.28 MiB 
 Memory required (Max)     5318.18 MiB 
 Memory available          1907.35 MiB 

 Q-Chem warning in module rasman2/ras_mem_check.C, line 162:

 Static memory may be insufficient to store the subspace vectors


    Disk requirements of RASCI

 Fock matrix                  0.57 MiB 
 2-electron integrals        67.08 MiB 
 CI-space                 10531.77 MiB 
 Disk required            10599.41 MiB 
-----------------------------------------
  
RAS1 HF-like energy:          -3414.3756725163
 Computing integrals
 Computing J and K matrices
 Computing addressing
 Making amplitude guesses
 
Direct CI diagonalization
 ---------------------------------------------------
 Iter    Rts Conv    Rts Left    Ttl Dev     Max Dev
 ---------------------------------------------------
   1         0          10      0.006221    0.001268
   2         0          10      0.004140    0.000607
   3         0          10      0.002879    0.000446
   4         0          10      0.004402    0.000518
   5         0          10      0.003613    0.000433
   6         0          10      0.003116    0.000356
   7         0          10      0.003166    0.000436
   8         0          10      0.002672    0.000564
   9         2           8      0.003366    0.000749
  10         4           6      0.005832    0.000966
  11         4           6      0.004364    0.000633
  12         4           6      0.003007    0.000485
  13         4           6      0.002064    0.000310
  14         4           6      0.002670    0.000405
  15         4           6      0.001206    0.000180
  16         4           6      0.001414    0.000219
  17         4           6      0.001195    0.000169
  18         4           6      0.000748    0.000105
  19         4           6      0.000763    0.000104
  20         4           6      0.000665    0.000089
  21         4           6      0.000605    0.000083
  22         4           6      0.000483    0.000068
  23         4           6      0.000571    0.000091
  24         4           6      0.000324    0.000057
  25         4           6      0.000280    0.000044
  26         4           6      0.000645    0.000369
  27         5           5      0.000557    0.000308
  28         5           5      0.000490    0.000250
  29         5           5      0.000617    0.000255
  30         4           6      0.000489    0.000222
  31         4           6      0.000542    0.000330
  32         4           6      0.000409    0.000188
  33         4           6      0.000331    0.000170
  34         4           6      0.000323    0.000157
  35         4           6      0.000301    0.000145
  36         4           6      0.000253    0.000114
  37         4           6      0.000200    0.000101
  38         4           6      0.000245    0.000110
  39         4           6      0.000149    0.000064
  40         4           6      0.000157    0.000074
  41         5           5      0.000148    0.000062
  42         4           6      0.000360    0.000283
  43         4           6      0.000299    0.000238
  44         4           6      0.000445    0.000215
  45         4           6      0.000401    0.000193
  46         4           6      0.000275    0.000132
  47         4           6      0.000299    0.000146
  48         4           6      0.000264    0.000127
  49         4           6      0.000245    0.000119
  50         4           6      0.000193    0.000093
  51         7           3      0.000202    0.000098
  52         7           3      0.000143    0.000073
  53         7           3      0.000178    0.000087
  54         8           2      0.000158    0.000078
  55         8           2      0.000153    0.000081
  56         8           2      0.000151    0.000076
  57         8           2      0.000143    0.000073
  58         8           2      0.000157    0.000085
  59         8           2      0.000129    0.000063
  60         8           2      0.000154    0.000080
  61         8           2      0.000120    0.000063
  62         8           2      0.000123    0.000063
  63         8           2      0.000108    0.000059
  64         8           2      0.000129    0.000064
  65         8           2      0.000114    0.000059
  66         8           2      0.000122    0.000069
  67         8           2      0.000103    0.000055
  68         8           2      0.000099    0.000049
  69         8           2      0.000100    0.000052
  70         8           2      0.000103    0.000052
  71         8           2      0.000105    0.000055
  72         8           2      0.000084    0.000044
  73         8           2      0.000096    0.000048
  74         8           2      0.000083    0.000043
  75         8           2      0.000099    0.000051
  76         8           2      0.000090    0.000044
  77         8           2      0.000092    0.000051
  78         8           2      0.000074    0.000037
  79         8           2      0.000092    0.000049
  80         8           2      0.000078    0.000043
  81         8           2      0.000071    0.000039
  82         8           2      0.000076    0.000039
  83         8           2      0.000073    0.000037
  84         8           2      0.000060    0.000029
  85         8           2      0.000064    0.000035
  86         8           2      0.000067    0.000034
  87         8           2      0.000048    0.000024
  88         8           2      0.000057    0.000031
  89         8           2      0.000039    0.000020
  90         8           2      0.000037    0.000017
  91         8           2      0.000030    0.000015
  92         8           2      0.000029    0.000014
  93         8           2      0.000022    0.000010
  94         8           2      0.000022    0.000011
  95         8           2      0.000019    0.000009
  96         8           2      0.000017    0.000007
  97         8           2      0.000017    0.000007
  98         8           2      0.000016    0.000007
  99         8           2      0.000015    0.000007
 100         8           2      0.000012    0.000005
 101         8           2      0.000014    0.000006
 102         8           2      0.000010    0.000004
 103         8           2      0.000011    0.000004
 104         8           2      0.000009    0.000004
 105         8           2      0.000009    0.000003
 106         8           2      0.000008    0.000003
 107         8           2      0.000008    0.000003
 108         8           2      0.000007    0.000002
 109         8           2      0.000007    0.000002
 110         8           2      0.000007    0.000002
 111         8           2      0.000006    0.000002
 112         8           2      0.000006    0.000002
 113        10           0      0.000005    0.000001    Roots Converged
 ---------------------------------------------------
   
**************************************************
 RAS-CI total energy for state   1:  -3477.203885520990
  Excitation energy (eV) =  0.000000000000
  State symmetry: B1u   (D2h      )
  <S^2>      :  0.7500
  Dipole Moment:   -0.0000 X     0.0000 Y     0.0000 Z
 NATURAL OCCUPATION NUMBERS (higher than 1.0E-05)
            1           2           3           4           5           6
    1   2.0000000   2.0000000   2.0000000   2.0000000   2.0000000   2.0000000
            7           8           9          10          11          12
    1   2.0000000   2.0000000   2.0000000   2.0000000   2.0000000   2.0000000
           13          14          15          16          17          18
    1   2.0000000   2.0000000   2.0000000   2.0000000   2.0000000   2.0000000
           19          20          21          22          23          24
    1   2.0000000   2.0000000   2.0000000   2.0000000   2.0000000   2.0000000
           25          26          27          28          29          30
    1   2.0000000   2.0000000   2.0000000   2.0000000   2.0000000   2.0000000
           31          32          33          34          35          36
    1   2.0000000   2.0000000   2.0000000   2.0000000   2.0000000   2.0000000
           37          38          39          40          41          42
    1   2.0000000   1.9999982   1.9999774   1.9999751   1.9998724   1.9998459
           43          44          45          46          47          48
    1   1.9997233   1.9997233   1.9956293   1.9956293   1.9954234   1.9926106
           49          50          51          52          53          54
    1   1.9812670   1.0160409   0.0064797   0.0045392   0.0040916   0.0040916
           55          56          57          58          59          60
    1   0.0030666   0.0011732   0.0001587   0.0001147   0.0001147   0.0000765
           61          62          63          64          65          66
    1   0.0000437   0.0000437   0.0000427   0.0000371   0.0000329   0.0000260
           67          68          69          70          71
    1   0.0000160   0.0000150   0.0000150   0.0000147   0.0000137

  Amplitudes : 
  
 | HOLE  | ALPHA      | BETA       | PART  |    AMPLITUDE 
--------------------------------------------------
 |       | 1111111110 | 1111111100 |       |     9.6660641205495E-01
 |       | 1111111110 | 1111101110 |       |     1.9095441380324E-01
--------------------------------------------------
*** Contributions RASCI wfn    Active:  97.67
                                 Hole:   0.05
                                 Part:   2.28

      Mulliken population analysis 
 ---------------------------------------------------
   Atom    Charge (a.u.)   Spin (a.u.)  
 ---------------------------------------------------
   1 Cu    0.746887        0.754830 
   2 Cl   -0.686722        0.061292 
   3 Cl   -0.686722        0.061292 
   4 Cl   -0.686722        0.061292 
   5 Cl   -0.686722        0.061292 
 ---------------------------------------------------
   Sum:   -2.000000        1.000000 
 ---------------------------------------------------
 
  
 NATURAL OCCUPATION NUMBERS (higher than 1.0E-05)
            1           2           3           4           5           6
    1   2.0000000   2.0000000   2.0000000   2.0000000   2.0000000   2.0000000
            7           8           9          10          11          12
    1   2.0000000   2.0000000   2.0000000   2.0000000   2.0000000   2.0000000
           13          14          15          16          17          18
    1   2.0000000   2.0000000   2.0000000   2.0000000   2.0000000   2.0000000
           19          20          21          22          23          24
    1   2.0000000   2.0000000   2.0000000   2.0000000   2.0000000   2.0000000
           25          26          27          28          29          30
    1   2.0000000   2.0000000   2.0000000   2.0000000   2.0000000   2.0000000
           31          32          33          34          35          36
    1   2.0000000   2.0000000   2.0000000   2.0000000   2.0000000   2.0000000
           37          38          39          40          41          42
    1   2.0000000   1.9999982   1.9999774   1.9999751   1.9998724   1.9998459
           43          44          45          46          47          48
    1   1.9997233   1.9997233   1.9956293   1.9956293   1.9954234   1.9926106
           49          50          51          52          53          54
    1   1.9812670   1.0160409   0.0064797   0.0045392   0.0040916   0.0040916
           55          56          57          58          59          60
    1   0.0030666   0.0011732   0.0001587   0.0001147   0.0001147   0.0000765
           61          62          63          64          65          66
    1   0.0000437   0.0000437   0.0000427   0.0000371   0.0000329   0.0000260
           67          68          69          70          71
    1   0.0000160   0.0000150   0.0000150   0.0000147   0.0000137
  
*** Unpaired Electrons
 Yamaguchi Nd:         1.13
 Head-Gordon Nu:       1.05
 Head-Gordon Nu_nl:    1.00
  
**************************************************
 RAS-CI total energy for state   2:  -3477.155558215369
  Excitation energy (eV) =  1.315052893744
  Warning: not all configurations have same symmetry
  State symmetry: *Ag    (D2h      )
  <S^2>      :  0.7500
  Dipole Moment:    0.0000 X    -0.0000 Y     0.0000 Z
  Trans. Moment:    0.0000 X     0.0000 Y     0.0000 Z
  Strength   :  0.000000
  Natural transition orbitals ( 1 -> 2 ):
   e-/hole pair  1 alpha:  ampl =  0.006528 (  0.0%)   [10 : 11]
   e-/hole pair  2 alpha:  ampl =  0.004979 (  0.0%)   [9 : 12]
   e-/hole pair  1 beta :  ampl =  0.985256 ( 97.1%)   [10 : 11]
   e-/hole pair  2 beta :  ampl =  0.045373 (  0.2%)   [9 : 12]
   Sum of square amplitudes: 0.97

 NATURAL OCCUPATION NUMBERS (higher than 1.0E-05)
            1           2           3           4           5           6
    1   2.0000000   2.0000000   2.0000000   2.0000000   2.0000000   2.0000000
            7           8           9          10          11          12
    1   2.0000000   2.0000000   2.0000000   2.0000000   2.0000000   2.0000000
           13          14          15          16          17          18
    1   2.0000000   2.0000000   2.0000000   2.0000000   2.0000000   2.0000000
           19          20          21          22          23          24
    1   2.0000000   2.0000000   2.0000000   2.0000000   2.0000000   2.0000000
           25          26          27          28          29          30
    1   2.0000000   2.0000000   2.0000000   2.0000000   2.0000000   2.0000000
           31          32          33          34          35          36
    1   2.0000000   2.0000000   2.0000000   2.0000000   2.0000000   2.0000000
           37          38          39          40          41          42
    1   2.0000000   1.9999933   1.9999932   1.9999883   1.9999693   1.9997901
           43          44          45          46          47          48
    1   1.9997901   1.9996682   1.9985929   1.9983126   1.9983126   1.9963350
           49          50          51          52          53          54
    1   1.9957929   1.0038966   0.0032278   0.0013880   0.0013880   0.0011044
           55          56          57          58          59          60
    1   0.0010491   0.0007597   0.0001312   0.0000692   0.0000692   0.0000475
           61          62          63          64          65          66
    1   0.0000464   0.0000464   0.0000382   0.0000337   0.0000334   0.0000274
           67
    1   0.0000174

  Amplitudes : 
  
 | HOLE  | ALPHA      | BETA       | PART  |    AMPLITUDE 
--------------------------------------------------
 |       | 1111111110 | 1111011110 |       |     3.0438941110299E-01
 |       | 1111111110 | 0111111110 |       |     9.4667200976111E-01
--------------------------------------------------
*** Contributions RASCI wfn    Active:  99.14
                                 Hole:   0.02
                                 Part:   0.84

      Mulliken population analysis 
 ---------------------------------------------------
   Atom    Charge (a.u.)   Spin (a.u.)  
 ---------------------------------------------------
   1 Cu    0.899682        0.945867 
   2 Cl   -0.724921        0.013533 
   3 Cl   -0.724921        0.013533 
   4 Cl   -0.724921        0.013533 
   5 Cl   -0.724921        0.013533 
 ---------------------------------------------------
   Sum:   -2.000000        1.000000 
 ---------------------------------------------------
 
  
 NATURAL OCCUPATION NUMBERS (higher than 1.0E-05)
            1           2           3           4           5           6
    1   2.0000000   2.0000000   2.0000000   2.0000000   2.0000000   2.0000000
            7           8           9          10          11          12
    1   2.0000000   2.0000000   2.0000000   2.0000000   2.0000000   2.0000000
           13          14          15          16          17          18
    1   2.0000000   2.0000000   2.0000000   2.0000000   2.0000000   2.0000000
           19          20          21          22          23          24
    1   2.0000000   2.0000000   2.0000000   2.0000000   2.0000000   2.0000000
           25          26          27          28          29          30
    1   2.0000000   2.0000000   2.0000000   2.0000000   2.0000000   2.0000000
           31          32          33          34          35          36
    1   2.0000000   2.0000000   2.0000000   2.0000000   2.0000000   2.0000000
           37          38          39          40          41          42
    1   2.0000000   1.9999933   1.9999932   1.9999883   1.9999693   1.9997901
           43          44          45          46          47          48
    1   1.9997901   1.9996682   1.9985929   1.9983126   1.9983126   1.9963350
           49          50          51          52          53          54
    1   1.9957929   1.0038966   0.0032278   0.0013880   0.0013880   0.0011044
           55          56          57          58          59          60
    1   0.0010491   0.0007597   0.0001312   0.0000692   0.0000692   0.0000475
           61          62          63          64          65          66
    1   0.0000464   0.0000464   0.0000382   0.0000337   0.0000334   0.0000274
           67
    1   0.0000174
  
*** Unpaired Electrons
 Yamaguchi Nd:         1.05
 Head-Gordon Nu:       1.02
 Head-Gordon Nu_nl:    1.00
  
**************************************************
 RAS-CI total energy for state   3:  -3477.144955442039
  Excitation energy (eV) =  1.603569035299
  Warning: not all configurations have same symmetry
  State symmetry: *Ag    (D2h      )
  <S^2>      :  0.7500
  Dipole Moment:    0.0000 X    -0.0000 Y     0.0000 Z
  Trans. Moment:   -0.0000 X    -0.0000 Y     0.0000 Z
  Strength   :  0.000000
  Natural transition orbitals ( 1 -> 3 ):
   e-/hole pair  1 alpha:  ampl =  0.011670 (  0.0%)   [10 : 11]
   e-/hole pair  2 alpha:  ampl =  0.010459 (  0.0%)   [9 : 12]
   e-/hole pair  1 beta :  ampl =  0.983675 ( 96.8%)   [10 : 11]
   e-/hole pair  2 beta :  ampl =  0.042109 (  0.2%)   [9 : 12]
   Sum of square amplitudes: 0.97

 NATURAL OCCUPATION NUMBERS (higher than 1.0E-05)
            1           2           3           4           5           6
    1   2.0000000   2.0000000   2.0000000   2.0000000   2.0000000   2.0000000
            7           8           9          10          11          12
    1   2.0000000   2.0000000   2.0000000   2.0000000   2.0000000   2.0000000
           13          14          15          16          17          18
    1   2.0000000   2.0000000   2.0000000   2.0000000   2.0000000   2.0000000
           19          20          21          22          23          24
    1   2.0000000   2.0000000   2.0000000   2.0000000   2.0000000   2.0000000
           25          26          27          28          29          30
    1   2.0000000   2.0000000   2.0000000   2.0000000   2.0000000   2.0000000
           31          32          33          34          35          36
    1   2.0000000   2.0000000   2.0000000   2.0000000   2.0000000   2.0000000
           37          38          39          40          41          42
    1   2.0000000   2.0000000   1.9999969   1.9999936   1.9999843   1.9998618
           43          44          45          46          47          48
    1   1.9997959   1.9995529   1.9982671   1.9981286   1.9980016   1.9965094
           49          50          51          52          53          54
    1   1.9943391   1.0051792   0.0034821   0.0014622   0.0014170   0.0014021
           55          56          57          58          59          60
    1   0.0011635   0.0007126   0.0001829   0.0000989   0.0000671   0.0000546
           61          62          63          64          65          66
    1   0.0000504   0.0000479   0.0000379   0.0000375   0.0000339   0.0000273
           67          68          69
    1   0.0000176   0.0000118   0.0000103

  Amplitudes : 
  
 | HOLE  | ALPHA      | BETA       | PART  |    AMPLITUDE 
--------------------------------------------------
 |       | 1111111110 | 1111110110 |       |     2.9334340263202E-01
 |       | 1111111110 | 1011111110 |       |    -9.4862602933527E-01
--------------------------------------------------
*** Contributions RASCI wfn    Active:  98.86
                                 Hole:   0.02
                                 Part:   1.12

      Mulliken population analysis 
 ---------------------------------------------------
   Atom    Charge (a.u.)   Spin (a.u.)  
 ---------------------------------------------------
   1 Cu    0.892439        0.945564 
   2 Cl   -0.710823        0.027350 
   3 Cl   -0.735397       -0.000132 
   4 Cl   -0.735397       -0.000132 
   5 Cl   -0.710823        0.027350 
 ---------------------------------------------------
   Sum:   -2.000000        1.000000 
 ---------------------------------------------------
 
  
 NATURAL OCCUPATION NUMBERS (higher than 1.0E-05)
            1           2           3           4           5           6
    1   2.0000000   2.0000000   2.0000000   2.0000000   2.0000000   2.0000000
            7           8           9          10          11          12
    1   2.0000000   2.0000000   2.0000000   2.0000000   2.0000000   2.0000000
           13          14          15          16          17          18
    1   2.0000000   2.0000000   2.0000000   2.0000000   2.0000000   2.0000000
           19          20          21          22          23          24
    1   2.0000000   2.0000000   2.0000000   2.0000000   2.0000000   2.0000000
           25          26          27          28          29          30
    1   2.0000000   2.0000000   2.0000000   2.0000000   2.0000000   2.0000000
           31          32          33          34          35          36
    1   2.0000000   2.0000000   2.0000000   2.0000000   2.0000000   2.0000000
           37          38          39          40          41          42
    1   2.0000000   2.0000000   1.9999969   1.9999936   1.9999843   1.9998618
           43          44          45          46          47          48
    1   1.9997959   1.9995529   1.9982671   1.9981286   1.9980016   1.9965094
           49          50          51          52          53          54
    1   1.9943391   1.0051792   0.0034821   0.0014622   0.0014170   0.0014021
           55          56          57          58          59          60
    1   0.0011635   0.0007126   0.0001829   0.0000989   0.0000671   0.0000546
           61          62          63          64          65          66
    1   0.0000504   0.0000479   0.0000379   0.0000375   0.0000339   0.0000273
           67          68          69
    1   0.0000176   0.0000118   0.0000103
  
*** Unpaired Electrons
 Yamaguchi Nd:         1.05
 Head-Gordon Nu:       1.02
 Head-Gordon Nu_nl:    1.00
  
**************************************************
 RAS-CI total energy for state   4:  -3477.144955442033
  Excitation energy (eV) =  1.603569035461
  Warning: not all configurations have same symmetry
  State symmetry: *Ag    (D2h      )
  <S^2>      :  0.7500
  Dipole Moment:    0.0000 X     0.0000 Y     0.0000 Z
  Trans. Moment:   -0.0000 X    -0.0000 Y    -0.0000 Z
  Strength   :  0.000000
  Natural transition orbitals ( 1 -> 4 ):
   e-/hole pair  1 alpha:  ampl =  0.011670 (  0.0%)   [10 : 11]
   e-/hole pair  2 alpha:  ampl =  0.010459 (  0.0%)   [9 : 12]
   e-/hole pair  1 beta :  ampl =  0.983675 ( 96.8%)   [10 : 11]
   e-/hole pair  2 beta :  ampl =  0.042109 (  0.2%)   [9 : 12]
   Sum of square amplitudes: 0.97

 NATURAL OCCUPATION NUMBERS (higher than 1.0E-05)
            1           2           3           4           5           6
    1   2.0000000   2.0000000   2.0000000   2.0000000   2.0000000   2.0000000
            7           8           9          10          11          12
    1   2.0000000   2.0000000   2.0000000   2.0000000   2.0000000   2.0000000
           13          14          15          16          17          18
    1   2.0000000   2.0000000   2.0000000   2.0000000   2.0000000   2.0000000
           19          20          21          22          23          24
    1   2.0000000   2.0000000   2.0000000   2.0000000   2.0000000   2.0000000
           25          26          27          28          29          30
    1   2.0000000   2.0000000   2.0000000   2.0000000   2.0000000   2.0000000
           31          32          33          34          35          36
    1   2.0000000   2.0000000   2.0000000   2.0000000   2.0000000   2.0000000
           37          38          39          40          41          42
    1   2.0000000   2.0000000   1.9999969   1.9999936   1.9999843   1.9998618
           43          44          45          46          47          48
    1   1.9997959   1.9995529   1.9982671   1.9981286   1.9980016   1.9965093
           49          50          51          52          53          54
    1   1.9943391   1.0051792   0.0034821   0.0014622   0.0014169   0.0014021
           55          56          57          58          59          60
    1   0.0011635   0.0007126   0.0001829   0.0000989   0.0000671   0.0000546
           61          62          63          64          65          66
    1   0.0000504   0.0000479   0.0000379   0.0000375   0.0000339   0.0000273
           67          68          69
    1   0.0000176   0.0000118   0.0000103

  Amplitudes : 
  
 | HOLE  | ALPHA      | BETA       | PART  |    AMPLITUDE 
--------------------------------------------------
 |       | 1111111110 | 1111111010 |       |     2.9334340322984E-01
 |       | 1111111110 | 1101111110 |       |     9.4862598288488E-01
--------------------------------------------------
*** Contributions RASCI wfn    Active:  98.86
                                 Hole:   0.02
                                 Part:   1.12

      Mulliken population analysis 
 ---------------------------------------------------
   Atom    Charge (a.u.)   Spin (a.u.)  
 ---------------------------------------------------
   1 Cu    0.892439        0.945564 
   2 Cl   -0.735397       -0.000132 
   3 Cl   -0.710823        0.027350 
   4 Cl   -0.710823        0.027350 
   5 Cl   -0.735397       -0.000132 
 ---------------------------------------------------
   Sum:   -2.000000        1.000000 
 ---------------------------------------------------
 
  
 NATURAL OCCUPATION NUMBERS (higher than 1.0E-05)
            1           2           3           4           5           6
    1   2.0000000   2.0000000   2.0000000   2.0000000   2.0000000   2.0000000
            7           8           9          10          11          12
    1   2.0000000   2.0000000   2.0000000   2.0000000   2.0000000   2.0000000
           13          14          15          16          17          18
    1   2.0000000   2.0000000   2.0000000   2.0000000   2.0000000   2.0000000
           19          20          21          22          23          24
    1   2.0000000   2.0000000   2.0000000   2.0000000   2.0000000   2.0000000
           25          26          27          28          29          30
    1   2.0000000   2.0000000   2.0000000   2.0000000   2.0000000   2.0000000
           31          32          33          34          35          36
    1   2.0000000   2.0000000   2.0000000   2.0000000   2.0000000   2.0000000
           37          38          39          40          41          42
    1   2.0000000   2.0000000   1.9999969   1.9999936   1.9999843   1.9998618
           43          44          45          46          47          48
    1   1.9997959   1.9995529   1.9982671   1.9981286   1.9980016   1.9965093
           49          50          51          52          53          54
    1   1.9943391   1.0051792   0.0034821   0.0014622   0.0014169   0.0014021
           55          56          57          58          59          60
    1   0.0011635   0.0007126   0.0001829   0.0000989   0.0000671   0.0000546
           61          62          63          64          65          66
    1   0.0000504   0.0000479   0.0000379   0.0000375   0.0000339   0.0000273
           67          68          69
    1   0.0000176   0.0000118   0.0000103
  
*** Unpaired Electrons
 Yamaguchi Nd:         1.05
 Head-Gordon Nu:       1.02
 Head-Gordon Nu_nl:    1.00
  
**************************************************
 RAS-CI total energy for state   5:  -3476.998533976726
  Excitation energy (eV) =  5.587899822887
  Warning: not all configurations have same symmetry
  State symmetry: *Au    (D2h      )
  <S^2>      :  0.7500
  Dipole Moment:   -0.0000 X    -0.0000 Y    -0.0000 Z
  Trans. Moment:   -0.0000 X     0.0000 Y    -0.0000 Z
  Strength   :  0.000000
  Natural transition orbitals ( 1 -> 5 ):
   e-/hole pair  1 alpha:  ampl =  0.012321 (  0.0%)   [10 : 11]
   e-/hole pair  2 alpha:  ampl =  0.003768 (  0.0%)   [9 : 12]
   e-/hole pair  1 beta :  ampl =  0.919793 ( 84.6%)   [10 : 11]
   e-/hole pair  2 beta :  ampl =  0.038831 (  0.2%)   [9 : 12]
   Sum of square amplitudes: 0.85

 NATURAL OCCUPATION NUMBERS (higher than 1.0E-05)
            1           2           3           4           5           6
    1   2.0000000   2.0000000   2.0000000   2.0000000   2.0000000   2.0000000
            7           8           9          10          11          12
    1   2.0000000   2.0000000   2.0000000   2.0000000   2.0000000   2.0000000
           13          14          15          16          17          18
    1   2.0000000   2.0000000   2.0000000   2.0000000   2.0000000   2.0000000
           19          20          21          22          23          24
    1   2.0000000   2.0000000   2.0000000   2.0000000   2.0000000   2.0000000
           25          26          27          28          29          30
    1   2.0000000   2.0000000   2.0000000   2.0000000   2.0000000   2.0000000
           31          32          33          34          35          36
    1   2.0000000   2.0000000   2.0000000   2.0000000   2.0000000   2.0000000
           37          38          39          40          41          42
    1   2.0000000   1.9999980   1.9999948   1.9999717   1.9998806   1.9997116
           43          44          45          46          47          48
    1   1.9996788   1.9989796   1.9926580   1.9915050   1.9914742   1.9780038
           49          50          51          52          53          54
    1   1.9740813   1.0134282   0.0265415   0.0084434   0.0082273   0.0072872
           55          56          57          58          59          60
    1   0.0072293   0.0011413   0.0005177   0.0004154   0.0001336   0.0001289
           61          62          63          64          65          66
    1   0.0000991   0.0000640   0.0000544   0.0000537   0.0000406   0.0000326
           67          68          69          70          71          72
    1   0.0000299   0.0000244   0.0000205   0.0000198   0.0000180   0.0000162
           73          74
    1   0.0000154   0.0000132

  Amplitudes : 
  
 | HOLE  | ALPHA      | BETA       | PART  |    AMPLITUDE 
--------------------------------------------------
 |       | 1111111110 | 1111110110 |       |     8.3660946144347E-01
 |       | 1111111110 | 1110110111 |       |     1.5102760309441E-01
 |       | 1111111110 | 1011111110 |       |     2.9608921631721E-01
 |       | 1110111111 | 1111110110 |       |    -1.5391466200273E-01
--------------------------------------------------
*** Contributions RASCI wfn    Active:  84.08
                                 Hole:   0.12
                                 Part:  15.81

      Mulliken population analysis 
 ---------------------------------------------------
   Atom    Charge (a.u.)   Spin (a.u.)  
 ---------------------------------------------------
   1 Cu    0.161173        0.064308 
   2 Cl   -0.328397        0.469150 
   3 Cl   -0.752189       -0.001304 
   4 Cl   -0.752189       -0.001304 
   5 Cl   -0.328397        0.469150 
 ---------------------------------------------------
   Sum:   -2.000000        1.000000 
 ---------------------------------------------------
 
  
 NATURAL OCCUPATION NUMBERS (higher than 1.0E-05)
            1           2           3           4           5           6
    1   2.0000000   2.0000000   2.0000000   2.0000000   2.0000000   2.0000000
            7           8           9          10          11          12
    1   2.0000000   2.0000000   2.0000000   2.0000000   2.0000000   2.0000000
           13          14          15          16          17          18
    1   2.0000000   2.0000000   2.0000000   2.0000000   2.0000000   2.0000000
           19          20          21          22          23          24
    1   2.0000000   2.0000000   2.0000000   2.0000000   2.0000000   2.0000000
           25          26          27          28          29          30
    1   2.0000000   2.0000000   2.0000000   2.0000000   2.0000000   2.0000000
           31          32          33          34          35          36
    1   2.0000000   2.0000000   2.0000000   2.0000000   2.0000000   2.0000000
           37          38          39          40          41          42
    1   2.0000000   1.9999980   1.9999948   1.9999717   1.9998806   1.9997116
           43          44          45          46          47          48
    1   1.9996788   1.9989796   1.9926580   1.9915050   1.9914742   1.9780038
           49          50          51          52          53          54
    1   1.9740813   1.0134282   0.0265415   0.0084434   0.0082273   0.0072872
           55          56          57          58          59          60
    1   0.0072293   0.0011413   0.0005177   0.0004154   0.0001336   0.0001289
           61          62          63          64          65          66
    1   0.0000991   0.0000640   0.0000544   0.0000537   0.0000406   0.0000326
           67          68          69          70          71          72
    1   0.0000299   0.0000244   0.0000205   0.0000198   0.0000180   0.0000162
           73          74
    1   0.0000154   0.0000132
  
*** Unpaired Electrons
 Yamaguchi Nd:         1.27
 Head-Gordon Nu:       1.12
 Head-Gordon Nu_nl:    1.01
  
**************************************************
 RAS-CI total energy for state   6:  -3476.998533972648
  Excitation energy (eV) =  5.587899933859
  Warning: not all configurations have same symmetry
  State symmetry: *B1u   (D2h      )
  <S^2>      :  0.7500
  Dipole Moment:    0.0000 X    -0.0000 Y     0.0000 Z
  Trans. Moment:   -0.0000 X     0.0000 Y     0.0000 Z
  Strength   :  0.000000
  Natural transition orbitals ( 1 -> 6 ):
   e-/hole pair  1 alpha:  ampl =  0.012317 (  0.0%)   [10 : 11]
   e-/hole pair  2 alpha:  ampl =  0.003767 (  0.0%)   [9 : 12]
   e-/hole pair  1 beta :  ampl =  0.919792 ( 84.6%)   [10 : 11]
   e-/hole pair  2 beta :  ampl =  0.038831 (  0.2%)   [9 : 12]
   Sum of square amplitudes: 0.85

 NATURAL OCCUPATION NUMBERS (higher than 1.0E-05)
            1           2           3           4           5           6
    1   2.0000000   2.0000000   2.0000000   2.0000000   2.0000000   2.0000000
            7           8           9          10          11          12
    1   2.0000000   2.0000000   2.0000000   2.0000000   2.0000000   2.0000000
           13          14          15          16          17          18
    1   2.0000000   2.0000000   2.0000000   2.0000000   2.0000000   2.0000000
           19          20          21          22          23          24
    1   2.0000000   2.0000000   2.0000000   2.0000000   2.0000000   2.0000000
           25          26          27          28          29          30
    1   2.0000000   2.0000000   2.0000000   2.0000000   2.0000000   2.0000000
           31          32          33          34          35          36
    1   2.0000000   2.0000000   2.0000000   2.0000000   2.0000000   2.0000000
           37          38          39          40          41          42
    1   2.0000000   1.9999980   1.9999948   1.9999718   1.9998805   1.9997116
           43          44          45          46          47          48
    1   1.9996788   1.9989796   1.9926583   1.9915052   1.9914748   1.9780016
           49          50          51          52          53          54
    1   1.9740795   1.0134290   0.0265430   0.0084430   0.0082283   0.0072869
           55          56          57          58          59          60
    1   0.0072292   0.0011417   0.0005178   0.0004155   0.0001336   0.0001288
           61          62          63          64          65          66
    1   0.0000991   0.0000641   0.0000544   0.0000537   0.0000406   0.0000326
           67          68          69          70          71          72
    1   0.0000299   0.0000244   0.0000205   0.0000198   0.0000180   0.0000162
           73          74
    1   0.0000155   0.0000132

  Amplitudes : 
  
 | HOLE  | ALPHA      | BETA       | PART  |    AMPLITUDE 
--------------------------------------------------
 |       | 1111111110 | 1111111010 |       |     8.3660955302078E-01
 |       | 1111111110 | 1110111011 |       |     1.5102775085362E-01
 |       | 1111111110 | 1101111110 |       |    -2.9608913640918E-01
 |       | 1110111111 | 1111111010 |       |    -1.5391941862565E-01
--------------------------------------------------
*** Contributions RASCI wfn    Active:  84.08
                                 Hole:   0.12
                                 Part:  15.81

      Mulliken population analysis 
 ---------------------------------------------------
   Atom    Charge (a.u.)   Spin (a.u.)  
 ---------------------------------------------------
   1 Cu    0.161174        0.064310 
   2 Cl   -0.752190       -0.001304 
   3 Cl   -0.328397        0.469149 
   4 Cl   -0.328397        0.469149 
   5 Cl   -0.752190       -0.001304 
 ---------------------------------------------------
   Sum:   -2.000000        1.000000 
 ---------------------------------------------------
 
  
 NATURAL OCCUPATION NUMBERS (higher than 1.0E-05)
            1           2           3           4           5           6
    1   2.0000000   2.0000000   2.0000000   2.0000000   2.0000000   2.0000000
            7           8           9          10          11          12
    1   2.0000000   2.0000000   2.0000000   2.0000000   2.0000000   2.0000000
           13          14          15          16          17          18
    1   2.0000000   2.0000000   2.0000000   2.0000000   2.0000000   2.0000000
           19          20          21          22          23          24
    1   2.0000000   2.0000000   2.0000000   2.0000000   2.0000000   2.0000000
           25          26          27          28          29          30
    1   2.0000000   2.0000000   2.0000000   2.0000000   2.0000000   2.0000000
           31          32          33          34          35          36
    1   2.0000000   2.0000000   2.0000000   2.0000000   2.0000000   2.0000000
           37          38          39          40          41          42
    1   2.0000000   1.9999980   1.9999948   1.9999718   1.9998805   1.9997116
           43          44          45          46          47          48
    1   1.9996788   1.9989796   1.9926583   1.9915052   1.9914748   1.9780016
           49          50          51          52          53          54
    1   1.9740795   1.0134290   0.0265430   0.0084430   0.0082283   0.0072869
           55          56          57          58          59          60
    1   0.0072292   0.0011417   0.0005178   0.0004155   0.0001336   0.0001288
           61          62          63          64          65          66
    1   0.0000991   0.0000641   0.0000544   0.0000537   0.0000406   0.0000326
           67          68          69          70          71          72
    1   0.0000299   0.0000244   0.0000205   0.0000198   0.0000180   0.0000162
           73          74
    1   0.0000155   0.0000132
  
*** Unpaired Electrons
 Yamaguchi Nd:         1.27
 Head-Gordon Nu:       1.12
 Head-Gordon Nu_nl:    1.01
  
**************************************************
 RAS-CI total energy for state   7:  -3476.993864565864
  Excitation energy (eV) =  5.714960957107
  Warning: not all configurations have same symmetry
  State symmetry: *B3g   (D2h      )
  <S^2>      :  0.7500
  Dipole Moment:   -0.0000 X     0.0000 Y    -0.0000 Z
  Trans. Moment:   -0.0000 X    -0.0000 Y    -0.0000 Z
  Strength   :  0.000000
  Natural transition orbitals ( 1 -> 7 ):
   e-/hole pair  1 alpha:  ampl =  0.134765 (  1.8%)   [10 : 11]
   e-/hole pair  2 alpha:  ampl =  0.062879 (  0.4%)   [9 : 12]
   e-/hole pair  1 beta :  ampl =  0.916572 ( 84.0%)   [10 : 11]
   e-/hole pair  2 beta :  ampl =  0.121435 (  1.5%)   [9 : 12]
   Sum of square amplitudes: 0.91

 NATURAL OCCUPATION NUMBERS (higher than 1.0E-05)
            1           2           3           4           5           6
    1   2.0000000   2.0000000   2.0000000   2.0000000   2.0000000   2.0000000
            7           8           9          10          11          12
    1   2.0000000   2.0000000   2.0000000   2.0000000   2.0000000   2.0000000
           13          14          15          16          17          18
    1   2.0000000   2.0000000   2.0000000   2.0000000   2.0000000   2.0000000
           19          20          21          22          23          24
    1   2.0000000   2.0000000   2.0000000   2.0000000   2.0000000   2.0000000
           25          26          27          28          29          30
    1   2.0000000   2.0000000   2.0000000   2.0000000   2.0000000   2.0000000
           31          32          33          34          35          36
    1   2.0000000   2.0000000   2.0000000   2.0000000   2.0000000   2.0000000
           37          38          39          40          41          42
    1   2.0000000   1.9999755   1.9999150   1.9998640   1.9996514   1.9993007
           43          44          45          46          47          48
    1   1.9993007   1.9986471   1.9873682   1.9873682   1.9860455   1.9455629
           49          50          51          52          53          54
    1   1.9279806   1.0651295   0.0544146   0.0138635   0.0124979   0.0124979
           55          56          57          58          59          60
    1   0.0071223   0.0015324   0.0003920   0.0003270   0.0003270   0.0001758
           61          62          63          64          65          66
    1   0.0000963   0.0000962   0.0000962   0.0000734   0.0000413   0.0000366
           67          68          69          70          71          72
    1   0.0000335   0.0000325   0.0000300   0.0000300   0.0000263   0.0000177
           73          74
    1   0.0000113   0.0000112

  Amplitudes : 
  
 | HOLE  | ALPHA      | BETA       | PART  |    AMPLITUDE 
--------------------------------------------------
 |       | 1111111110 | 1111111100 |       |    -2.4047440189466E-01
 |       | 1111111110 | 1111101110 |       |     8.6003212336160E-01
 |       | 1111111110 | 1110101111 |       |     1.4984561133512E-01
 |       | 1110111111 | 1111101110 |       |    -1.6006061997120E-01
--------------------------------------------------
*** Contributions RASCI wfn    Active:  85.90
                                 Hole:   0.55
                                 Part:  13.55

      Mulliken population analysis 
 ---------------------------------------------------
   Atom    Charge (a.u.)   Spin (a.u.)  
 ---------------------------------------------------
   1 Cu    0.309980        0.239512 
   2 Cl   -0.577495        0.190122 
   3 Cl   -0.577495        0.190122 
   4 Cl   -0.577495        0.190122 
   5 Cl   -0.577495        0.190122 
 ---------------------------------------------------
   Sum:   -2.000000        1.000000 
 ---------------------------------------------------
 
  
 NATURAL OCCUPATION NUMBERS (higher than 1.0E-05)
            1           2           3           4           5           6
    1   2.0000000   2.0000000   2.0000000   2.0000000   2.0000000   2.0000000
            7           8           9          10          11          12
    1   2.0000000   2.0000000   2.0000000   2.0000000   2.0000000   2.0000000
           13          14          15          16          17          18
    1   2.0000000   2.0000000   2.0000000   2.0000000   2.0000000   2.0000000
           19          20          21          22          23          24
    1   2.0000000   2.0000000   2.0000000   2.0000000   2.0000000   2.0000000
           25          26          27          28          29          30
    1   2.0000000   2.0000000   2.0000000   2.0000000   2.0000000   2.0000000
           31          32          33          34          35          36
    1   2.0000000   2.0000000   2.0000000   2.0000000   2.0000000   2.0000000
           37          38          39          40          41          42
    1   2.0000000   1.9999755   1.9999150   1.9998640   1.9996514   1.9993007
           43          44          45          46          47          48
    1   1.9993007   1.9986471   1.9873682   1.9873682   1.9860455   1.9455629
           49          50          51          52          53          54
    1   1.9279806   1.0651295   0.0544146   0.0138635   0.0124979   0.0124979
           55          56          57          58          59          60
    1   0.0071223   0.0015324   0.0003920   0.0003270   0.0003270   0.0001758
           61          62          63          64          65          66
    1   0.0000963   0.0000962   0.0000962   0.0000734   0.0000413   0.0000366
           67          68          69          70          71          72
    1   0.0000335   0.0000325   0.0000300   0.0000300   0.0000263   0.0000177
           73          74
    1   0.0000113   0.0000112
  
*** Unpaired Electrons
 Yamaguchi Nd:         1.53
 Head-Gordon Nu:       1.21
 Head-Gordon Nu_nl:    1.04
  
**************************************************
 RAS-CI total energy for state   8:  -3476.960240575825
  Excitation energy (eV) =  6.629916277532
  Warning: not all configurations have same symmetry
  State symmetry: *B3u   (D2h      )
  <S^2>      :  0.7500
  Dipole Moment:    0.0000 X    -0.0000 Y    -0.0000 Z
  Trans. Moment:    0.0000 X     0.0000 Y    -0.0000 Z
  Strength   :  0.000000
  Natural transition orbitals ( 1 -> 8 ):
   e-/hole pair  1 alpha:  ampl =  0.012114 (  0.0%)   [10 : 11]
   e-/hole pair  2 alpha:  ampl =  0.003986 (  0.0%)   [9 : 12]
   e-/hole pair  1 beta :  ampl =  0.919736 ( 84.6%)   [10 : 11]
   e-/hole pair  2 beta :  ampl =  0.059957 (  0.4%)   [9 : 12]
   Sum of square amplitudes: 0.85

 NATURAL OCCUPATION NUMBERS (higher than 1.0E-05)
            1           2           3           4           5           6
    1   2.0000000   2.0000000   2.0000000   2.0000000   2.0000000   2.0000000
            7           8           9          10          11          12
    1   2.0000000   2.0000000   2.0000000   2.0000000   2.0000000   2.0000000
           13          14          15          16          17          18
    1   2.0000000   2.0000000   2.0000000   2.0000000   2.0000000   2.0000000
           19          20          21          22          23          24
    1   2.0000000   2.0000000   2.0000000   2.0000000   2.0000000   2.0000000
           25          26          27          28          29          30
    1   2.0000000   2.0000000   2.0000000   2.0000000   2.0000000   2.0000000
           31          32          33          34          35          36
    1   2.0000000   2.0000000   2.0000000   2.0000000   2.0000000   2.0000000
           37          38          39          40          41          42
    1   2.0000000   1.9999978   1.9999786   1.9998854   1.9996238   1.9995480
           43          44          45          46          47          48
    1   1.9995480   1.9917494   1.9917494   1.9908225   1.9836051   1.9798187
           49          50          51          52          53          54
    1   1.9755476   1.0216625   0.0311037   0.0081997   0.0081997   0.0077379
           55          56          57          58          59          60
    1   0.0070568   0.0030751   0.0001601   0.0001601   0.0001465   0.0000940
           61          62          63          64          65          66
    1   0.0000506   0.0000502   0.0000502   0.0000417   0.0000412   0.0000372
           67          68          69          70          71          72
    1   0.0000288   0.0000288   0.0000282   0.0000180   0.0000144   0.0000135
           73          74          75
    1   0.0000124   0.0000124   0.0000109

  Amplitudes : 
  
 | HOLE  | ALPHA      | BETA       | PART  |    AMPLITUDE 
--------------------------------------------------
 |       | 1111111110 | 1111011110 |       |     8.3684039781269E-01
 |       | 1111111110 | 1110011111 |       |     1.5064659165332E-01
 |       | 1111111110 | 0111111110 |       |    -3.0234484415241E-01
 |       | 1110111111 | 1111011110 |       |    -1.5129774029391E-01
 |       | 0111111110 | 1111011110 |  60   |     1.0125987725814E-01
--------------------------------------------------
*** Contributions RASCI wfn    Active:  83.74
                                 Hole:   1.02
                                 Part:  15.24

      Mulliken population analysis 
 ---------------------------------------------------
   Atom    Charge (a.u.)   Spin (a.u.)  
 ---------------------------------------------------
   1 Cu    0.154081        0.046068 
   2 Cl   -0.538520        0.238483 
   3 Cl   -0.538520        0.238483 
   4 Cl   -0.538520        0.238483 
   5 Cl   -0.538520        0.238483 
 ---------------------------------------------------
   Sum:   -2.000000        1.000000 
 ---------------------------------------------------
 
  
 NATURAL OCCUPATION NUMBERS (higher than 1.0E-05)
            1           2           3           4           5           6
    1   2.0000000   2.0000000   2.0000000   2.0000000   2.0000000   2.0000000
            7           8           9          10          11          12
    1   2.0000000   2.0000000   2.0000000   2.0000000   2.0000000   2.0000000
           13          14          15          16          17          18
    1   2.0000000   2.0000000   2.0000000   2.0000000   2.0000000   2.0000000
           19          20          21          22          23          24
    1   2.0000000   2.0000000   2.0000000   2.0000000   2.0000000   2.0000000
           25          26          27          28          29          30
    1   2.0000000   2.0000000   2.0000000   2.0000000   2.0000000   2.0000000
           31          32          33          34          35          36
    1   2.0000000   2.0000000   2.0000000   2.0000000   2.0000000   2.0000000
           37          38          39          40          41          42
    1   2.0000000   1.9999978   1.9999786   1.9998854   1.9996238   1.9995480
           43          44          45          46          47          48
    1   1.9995480   1.9917494   1.9917494   1.9908225   1.9836051   1.9798187
           49          50          51          52          53          54
    1   1.9755476   1.0216625   0.0311037   0.0081997   0.0081997   0.0077379
           55          56          57          58          59          60
    1   0.0070568   0.0030751   0.0001601   0.0001601   0.0001465   0.0000940
           61          62          63          64          65          66
    1   0.0000506   0.0000502   0.0000502   0.0000417   0.0000412   0.0000372
           67          68          69          70          71          72
    1   0.0000288   0.0000288   0.0000282   0.0000180   0.0000144   0.0000135
           73          74          75
    1   0.0000124   0.0000124   0.0000109
  
*** Unpaired Electrons
 Yamaguchi Nd:         1.31
 Head-Gordon Nu:       1.13
 Head-Gordon Nu_nl:    1.01
  
**************************************************
 RAS-CI total energy for state   9:  -3476.922953278508
  Excitation energy (eV) =  7.644555260739
  Warning: not all configurations have same symmetry
  State symmetry: *Au    (D2h      )
  <S^2>      :  0.7500
  Dipole Moment:    0.0000 X    -0.0000 Y     0.0000 Z
  Trans. Moment:   -0.0000 X     0.0000 Y     0.0000 Z
  Strength   :  0.000000
  Natural transition orbitals ( 1 -> 9 ):
   e-/hole pair  1 alpha:  ampl =  0.425744 ( 18.1%)   [10 : 11]
   e-/hole pair  2 alpha:  ampl =  0.023016 (  0.1%)   [9 : 12]
   e-/hole pair  1 beta :  ampl =  0.723480 ( 52.3%)   [10 : 11]
   e-/hole pair  2 beta :  ampl =  0.055007 (  0.3%)   [9 : 12]
   Sum of square amplitudes: 0.71

 NATURAL OCCUPATION NUMBERS (higher than 1.0E-05)
            1           2           3           4           5           6
    1   2.0000000   2.0000000   2.0000000   2.0000000   2.0000000   2.0000000
            7           8           9          10          11          12
    1   2.0000000   2.0000000   2.0000000   2.0000000   2.0000000   2.0000000
           13          14          15          16          17          18
    1   2.0000000   2.0000000   2.0000000   2.0000000   2.0000000   2.0000000
           19          20          21          22          23          24
    1   2.0000000   2.0000000   2.0000000   2.0000000   2.0000000   2.0000000
           25          26          27          28          29          30
    1   2.0000000   2.0000000   2.0000000   2.0000000   2.0000000   2.0000000
           31          32          33          34          35          36
    1   2.0000000   2.0000000   2.0000000   2.0000000   2.0000000   2.0000000
           37          38          39          40          41          42
    1   2.0000000   1.9999860   1.9999686   1.9999319   1.9995964   1.9994947
           43          44          45          46          47          48
    1   1.9989018   1.9946261   1.9910339   1.9905367   1.9369148   1.9330058
           49          50          51          52          53          54
    1   1.0746001   1.0669369   0.9863980   0.0065441   0.0048399   0.0044158
           55          56          57          58          59          60
    1   0.0042695   0.0033620   0.0019237   0.0005882   0.0004412   0.0002812
           61          62          63          64          65          66
    1   0.0002578   0.0001715   0.0001294   0.0001111   0.0001062   0.0001006
           67          68          69          70          71          72
    1   0.0000885   0.0000753   0.0000672   0.0000413   0.0000365   0.0000361
           73          74          75          76          77          78
    1   0.0000228   0.0000146   0.0000142   0.0000132   0.0000126   0.0000121

  Amplitudes : 
  
 | HOLE  | ALPHA      | BETA       | PART  |    AMPLITUDE 
--------------------------------------------------
 |       | 1111111110 | 1111111001 |       |     4.7487921418239E-01
 |       | 1111111110 | 1111101011 |       |    -1.3221683875341E-01
 |       | 1111111110 | 1101111101 |       |     4.4285687048034E-01
 |       | 1111111110 | 1101101111 |       |     4.0534569460978E-01
 |       | 1111111101 | 1111111010 |       |     1.9575334776878E-01
 |       | 1111111101 | 1101111110 |       |     1.8663703414713E-01
 |       | 1111111011 | 1111111100 |       |    -2.7912586641240E-01
 |       | 1111101111 | 1101111110 |       |     1.5337166063451E-01
 |       | 1101111111 | 1111111100 |       |    -2.5621983633219E-01
 |       | 1101111111 | 1111101110 |       |    -2.5197403397441E-01
--------------------------------------------------
*** Contributions RASCI wfn    Active:  93.74
                                 Hole:   0.32
                                 Part:   5.93

      Mulliken population analysis 
 ---------------------------------------------------
   Atom    Charge (a.u.)   Spin (a.u.)  
 ---------------------------------------------------
   1 Cu    0.040675        0.365867 
   2 Cl   -0.573971        0.121486 
   3 Cl   -0.446366        0.195580 
   4 Cl   -0.446366        0.195581 
   5 Cl   -0.573971        0.121486 
 ---------------------------------------------------
   Sum:   -2.000000        1.000000 
 ---------------------------------------------------
 
  
 NATURAL OCCUPATION NUMBERS (higher than 1.0E-05)
            1           2           3           4           5           6
    1   2.0000000   2.0000000   2.0000000   2.0000000   2.0000000   2.0000000
            7           8           9          10          11          12
    1   2.0000000   2.0000000   2.0000000   2.0000000   2.0000000   2.0000000
           13          14          15          16          17          18
    1   2.0000000   2.0000000   2.0000000   2.0000000   2.0000000   2.0000000
           19          20          21          22          23          24
    1   2.0000000   2.0000000   2.0000000   2.0000000   2.0000000   2.0000000
           25          26          27          28          29          30
    1   2.0000000   2.0000000   2.0000000   2.0000000   2.0000000   2.0000000
           31          32          33          34          35          36
    1   2.0000000   2.0000000   2.0000000   2.0000000   2.0000000   2.0000000
           37          38          39          40          41          42
    1   2.0000000   1.9999860   1.9999686   1.9999319   1.9995964   1.9994947
           43          44          45          46          47          48
    1   1.9989018   1.9946261   1.9910339   1.9905367   1.9369148   1.9330058
           49          50          51          52          53          54
    1   1.0746001   1.0669369   0.9863980   0.0065441   0.0048399   0.0044158
           55          56          57          58          59          60
    1   0.0042695   0.0033620   0.0019237   0.0005882   0.0004412   0.0002812
           61          62          63          64          65          66
    1   0.0002578   0.0001715   0.0001294   0.0001111   0.0001062   0.0001006
           67          68          69          70          71          72
    1   0.0000885   0.0000753   0.0000672   0.0000413   0.0000365   0.0000361
           73          74          75          76          77          78
    1   0.0000228   0.0000146   0.0000142   0.0000132   0.0000126   0.0000121
  
*** Unpaired Electrons
 Yamaguchi Nd:         3.35
 Head-Gordon Nu:       3.03
 Head-Gordon Nu_nl:    3.01
  
**************************************************
 RAS-CI total energy for state  10:  -3476.922953224970
  Excitation energy (eV) =  7.644556717609
  Warning: not all configurations have same symmetry
  State symmetry: *Au    (D2h      )
  <S^2>      :  0.7500
  Dipole Moment:   -0.0000 X    -0.0000 Y    -0.0000 Z
  Trans. Moment:    0.0000 X     0.0000 Y    -0.0000 Z
  Strength   :  0.000000
  Natural transition orbitals ( 1 -> 10 ):
   e-/hole pair  1 alpha:  ampl =  0.425755 ( 18.1%)   [10 : 11]
   e-/hole pair  2 alpha:  ampl =  0.023016 (  0.1%)   [9 : 12]
   e-/hole pair  1 beta :  ampl =  0.723504 ( 52.3%)   [10 : 11]
   e-/hole pair  2 beta :  ampl =  0.054973 (  0.3%)   [9 : 12]
   Sum of square amplitudes: 0.71

 NATURAL OCCUPATION NUMBERS (higher than 1.0E-05)
            1           2           3           4           5           6
    1   2.0000000   2.0000000   2.0000000   2.0000000   2.0000000   2.0000000
            7           8           9          10          11          12
    1   2.0000000   2.0000000   2.0000000   2.0000000   2.0000000   2.0000000
           13          14          15          16          17          18
    1   2.0000000   2.0000000   2.0000000   2.0000000   2.0000000   2.0000000
           19          20          21          22          23          24
    1   2.0000000   2.0000000   2.0000000   2.0000000   2.0000000   2.0000000
           25          26          27          28          29          30
    1   2.0000000   2.0000000   2.0000000   2.0000000   2.0000000   2.0000000
           31          32          33          34          35          36
    1   2.0000000   2.0000000   2.0000000   2.0000000   2.0000000   2.0000000
           37          38          39          40          41          42
    1   2.0000000   1.9999861   1.9999685   1.9999319   1.9995978   1.9994930
           43          44          45          46          47          48
    1   1.9988991   1.9946327   1.9909876   1.9904900   1.9368907   1.9329847
           49          50          51          52          53          54
    1   1.0746607   1.0670049   0.9864090   0.0065394   0.0048405   0.0044163
           55          56          57          58          59          60
    1   0.0042699   0.0033619   0.0019233   0.0005887   0.0004408   0.0002797
           61          62          63          64          65          66
    1   0.0002578   0.0001716   0.0001294   0.0001109   0.0001062   0.0001007
           67          68          69          70          71          72
    1   0.0000884   0.0000753   0.0000672   0.0000413   0.0000365   0.0000361
           73          74          75          76          77          78
    1   0.0000228   0.0000145   0.0000142   0.0000132   0.0000126   0.0000121

  Amplitudes : 
  
 | HOLE  | ALPHA      | BETA       | PART  |    AMPLITUDE 
--------------------------------------------------
 |       | 1111111110 | 1111110101 |       |    -4.7500477257743E-01
 |       | 1111111110 | 1111100111 |       |     1.3221706008147E-01
 |       | 1111111110 | 1011111101 |       |     4.4280161790368E-01
 |       | 1111111110 | 1011101111 |       |     4.0528433254017E-01
 |       | 1111111101 | 1111110110 |       |    -1.9581935325535E-01
 |       | 1111111101 | 1011111110 |       |     1.8660683612226E-01
 |       | 1111110111 | 1111111100 |       |     2.7918541932184E-01
 |       | 1111101111 | 1011111110 |       |     1.5333685610724E-01
 |       | 1011111111 | 1111111100 |       |    -2.5619478178130E-01
 |       | 1011111111 | 1111101110 |       |    -2.5194747643279E-01
--------------------------------------------------
*** Contributions RASCI wfn    Active:  93.75
                                 Hole:   0.32
                                 Part:   5.93

      Mulliken population analysis 
 ---------------------------------------------------
[...]
   102    2.938068327048e-12
   103    1.090203694103e-02
   104   -5.935363717954e-16
   105    2.110241189353e-13
   106   -3.573660348526e-02
   107   -8.320406863493e-12
   108    6.410348025403e-02
   109   -1.142776199678e-14
   110    6.780139567233e-13
   111   -1.294332130989e-01
   112   -4.986788759709e-11
   113    5.730976176485e-15
   114   -2.459185199227e-13
   115   -1.817018815426e-04
   116    1.911652538315e-14
   117   -5.233554101578e-18
   118   -1.809606284264e-12
   119    6.077829800129e-03
   120   -1.444598305932e-02
   121   -7.532538364613e-03
   122    9.426609113964e-02
   123   -2.874061242621e-01
   124    2.239177862529e-01
   125    3.080421334678e-11
   126    7.760510352596e-02
   127   -2.410126820296e-13
   128    8.090673964123e-12
   129    1.819627969158e-02
   130   -2.475610712155e-14
   131   -1.512111096058e-11
   132   -1.972029215978e-02
   133   -7.005594815551e-14
   134   -1.993151477198e-10
   135   -5.559747737310e-01
   136    2.097287803595e-12
   137    2.170575941207e-10
   138    6.391517383441e-01
   139   -2.891774057113e-12
   140   -1.090203689524e-02
   141   -2.158468014473e-15
   142    2.104550361443e-13
   143    3.573660350340e-02
   144    2.806591764548e-12
   145   -6.410348014166e-02
   146   -1.493232234193e-14
   147    6.654992390205e-13
   148    1.294332131018e-01
   149    8.606837464953e-12
   150   -6.353024753654e-15
   151   -2.584014816356e-13
   152   -1.817018864786e-04
   153   -1.912223010454e-14
   154   -5.310843854817e-16
   155    7.217078497324e-13
   156    6.077829794229e-03
   157    2.574202136174e-12
   158    5.484328269301e-15
   159   -1.722313264230e-11
   160    5.584022133576e-11
   161    1.200776977850e-10
   162   -2.716780272971e-11
   163   -7.410554661496e-02
   164    2.467992311254e-14
   165   -5.073315031967e-12
   166   -1.884602213390e-02
   167    2.143488995048e-15
   168    2.209411473220e-12
   169    2.773741695563e-02
   170    8.961832524802e-15
   171    2.367603890718e-10
   172    4.959247196150e-01
   173   -2.207766564406e-13
   174   -3.175556484436e-10
   175   -4.929913072742e-01
   176    3.072586409833e-13
   177   -2.320512098447e-11
   178   -1.878513840942e-14
   179   -9.120770047494e-15
   180    2.095127890622e-11
   181   -4.140733831636e-02
   182   -3.870975068265e-11
   183   -6.254287209165e-14
   184    7.491138482538e-14
   185    2.682547239896e-11
   186   -1.841182066099e-01
   187    2.215249282406e-16
   188    2.985228763405e-12
   189    1.412829633412e-03
   190   -1.349075910862e-15
   191    4.302107095738e-15
   192   -2.519341939927e-12
   193   -4.490643974559e-03
Sym=X
Ene= 0.845943
Spin=Alpha
Occup=0
     1   -1.090736651990e-15
     2    2.352452239284e-15
     3   -1.022980875856e-14
     4    8.870956671872e-16
     5   -7.722777308406e-14
     6    1.643401360318e-14
     7   -6.076230045067e-14
     8    6.576986026492e-15
     9    2.859147138506e-13
    10    1.750834961584e-13
    11   -1.893422497955e-14
    12   -7.771946579352e-13
    13    1.830802338924e-15
    14   -3.764390488031e-16
    15   -6.339245866298e-13
    16    3.581700732616e-13
    17   -6.803821593905e-14
    18    8.764817311562e-12
    19   -5.106539897563e-15
    20   -5.692154824269e-02
    21    5.603677244448e-13
    22    7.312400689072e-15
    23   -1.438613045443e-15
    24   -7.566673244161e-15
    25   -6.254928854659e-02
    26    6.743078317939e-13
    27    1.158394916840e-14
    28   -7.096044740397e-15
    29    3.225089699269e-14
    30    2.014686342915e-01
    31   -2.466415960356e-12
    32   -6.722514541221e-14
    33    3.506980088113e-14
    34   -4.533996603284e-14
    35    3.367262943613e-01
    36    4.815453591434e-12
    37    2.209088177818e-13
    38    9.241057805820e-15
    39    1.920563206075e-16
    40   -3.417104990246e-15
    41    6.990198114313e-16
    42   -3.748191075583e-14
    43   -3.297062197641e-15
    44    8.746637523242e-15
    45    1.519580971128e-15
    46    3.232452743060e-14
    47    1.854193778776e-14
    48   -2.102072100256e-13
    49    6.209367486208e-13
    50   -5.284851496887e-13
    51    1.717181339396e-13
    52    1.086081857973e-14
    53   -8.927600670928e-02
    54    4.332551234118e-14
    55    3.759627364768e-15
    56   -8.191177607854e-03
    57   -6.426468149007e-14
    58   -7.163409573752e-15
    59   -2.871985844907e-02
    60   -1.160562562174e-12
    61   -6.715306200829e-14
    62    7.835106920836e-01
    63    1.292710127789e-12
    64    6.291381126601e-14
    65   -1.065536232561e+00
    66    1.218155283179e-14
    67   -6.687300350693e-02
    68    1.999316510959e-13
    69    7.277299077472e-14
    70   -1.380960494870e-14
    71    1.656091163717e-13
    72   -2.357181100526e-01
    73    1.377994940377e-13
    74    2.755887446800e-13
    75   -6.593616048242e-14
    76   -2.222611934776e-03
    77    1.938090609176e-14
    78   -3.952537212366e-16
    79    3.430090267917e-03
    80   -1.065579373870e-13
    81   -1.560722295560e-14
    82    3.077988672732e-15
    83   -5.629047216003e-15
    84   -2.843148300624e-15
    85    3.667913050924e-14
    86   -1.179602090959e-13
    87    1.694876759259e-13
    88   -2.091174426952e-13
    89   -2.622146176029e-14
    90   -2.475498972476e-12
    91   -5.002733127901e-14
    92   -7.197902203407e-15
    93    1.606119751085e-13
    94    6.449480327125e-14
    95    1.160336383707e-14
    96   -3.117478497572e-12
    97    1.441190657994e-12
    98    1.676676713798e-13
    99    2.610262006542e-11
   100   -1.477183118740e-12
   101   -1.995456548634e-13
   102   -3.025935058076e-11
   103   -1.217063949862e-14
   104   -4.126283159320e-03
   105   -5.160871729970e-13
   106    1.381126777280e-14
   107    9.314990980212e-14
   108   -4.808362949017e-14
   109   -3.846726035985e-02
   110   -3.523750735646e-12
   111    5.580696928574e-14
   112    4.032564714662e-13
   113   -1.005857723502e-13
   114    4.990370535513e-15
   115   -1.599130492103e-16
   116   -1.168544427887e-13
   117    8.522449682678e-04
   118    9.621100381847e-15
   119   -3.497994990334e-15
   120    3.699879428013e-15
   121    1.747805359821e-15
   122   -2.397567551815e-14
   123    7.171183160482e-14
   124    9.782982432659e-15
   125   -1.833214794546e-13
   126   -2.187586221706e-14
   127   -2.830034817602e-12
   128   -4.479363100099e-14
   129   -3.333524543092e-15
   130   -7.360969472847e-13
   131    6.079249766913e-14
   132   -3.218238197548e-15
   133    2.027815415584e-12
   134    1.253756973979e-12
   135    1.876731160245e-13
   136    1.746874866981e-11
   137   -1.279993894327e-12
   138   -2.238034594469e-13
   139   -2.127575893240e-11
   140   -9.021777932152e-15
   141   -4.126283158472e-03
   142    1.803918125987e-12
   143   -1.290131321729e-14
   144   -9.391212852660e-14
   145   -1.731296427393e-14
   146   -3.846726035569e-02
   147    7.825087799951e-12
   148   -3.387092439908e-14
   149   -4.151325747223e-13
   150   -1.903642174450e-14
   151    4.549189488856e-15
   152    7.946106122303e-16
   153   -1.289671494598e-13
   154   -8.522449682123e-04
   155    1.132862594886e-14
   156   -6.224816396043e-16
   157   -3.489546402512e-14
   158   -1.966826335560e-14
   159    2.270529296787e-13
   160   -6.693150701611e-13
   161    4.001919608723e-13
   162    1.985506302522e-13
   163    3.753188688744e-14
   164    8.927600670878e-02
   165    4.762279288797e-14
   166    8.571559845384e-15
   167    8.191177608311e-03
   168   -6.023657777039e-14
   169   -1.042009331442e-14
   170    2.871985844810e-02
   171   -1.406960592175e-12
   172   -2.600460756049e-13
   173   -7.835106920806e-01
   174    1.604982786632e-12
   175    2.670114737986e-13
   176    1.065536232560e+00
   177   -2.004960707478e-15
   178   -6.687300350860e-02
   179   -7.416077300870e-13
   180   -9.546607466388e-14
   181    1.216340825140e-14
   182   -1.586613717921e-13
   183   -2.357181100589e-01
   184   -5.196433561228e-13
   185   -3.137573515483e-13
   186    5.083373644804e-14
   187    2.222611934968e-03
   188    1.424873514458e-14
   189    3.806109509105e-16
   190   -3.430090267865e-03
   191   -3.831769428662e-13
   192   -1.229881247389e-14
   193   -5.867525730119e-17
Sym=X
Ene= 0.845943
Spin=Alpha
Occup=0
     1    3.924314985429e-16
     2   -7.446637589648e-16
     3    3.616876755757e-15
     4   -9.184604906696e-16
     5    3.374329931752e-14
     6   -1.607435140924e-14
     7   -2.710740343922e-15
     8    6.534399112701e-14
     9    1.087243729462e-12
    10    7.653020028734e-15
    11   -1.886460604945e-13
    12   -2.927026855886e-12
    13    1.111479665344e-15
    14    1.230877176947e-16
    15   -2.432029143820e-12
    16    3.380977408752e-14
    17   -4.388645186626e-13
    18    3.071052914609e-11
    19    1.409688517449e-15
    20   -4.530646691148e-13
    21    5.692154824268e-02
    22    2.339136683193e-15
    23    3.814751476795e-16
    24    2.947368901841e-15
    25   -5.514685930130e-13
    26    6.254928854647e-02
    27    1.367338336585e-15
    28    3.860421445120e-15
    29   -1.210659737047e-14
    30    2.058533898897e-12
    31   -2.014686342916e-01
    32   -7.829242040381e-15
    33   -2.013422378300e-14
    34    1.998024952338e-14
    35   -5.178829587393e-12
    36   -3.367262943612e-01
    37    3.365437717788e-14
    38   -3.614603236306e-14
    39    3.107884207944e-14
    40   -4.027808364909e-16
    41    4.143431395012e-15
    42    1.578252254282e-13
    43   -1.492507839582e-16
    44    7.924918318366e-16
    45    1.022601608463e-14
    46    2.460034966263e-15
    47    1.237088402304e-15
    48   -1.608265358691e-14
    49    4.918228698099e-14
    50   -4.727613005797e-14
    51    1.373136684741e-14
    52    2.292528716570e-13
    53   -1.249869652220e-11
    54    3.419179567563e-15
    55    5.495855731295e-14
    56   -1.910420606432e-12
    57   -4.947443680194e-15
    58   -7.207853211175e-14
    59    2.597054515885e-14
    60   -9.465073617811e-14
    61   -1.576553957796e-12
    62    9.850292803648e-11
    63    1.161895816610e-13
    64    1.625022124969e-12
    65   -1.185394005176e-10
    66    3.586837289326e-15
    67   -5.630745869567e-12
    68    4.126283158763e-03
    69    7.996734021312e-15
    70   -1.039009360867e-13
    71    1.746174764530e-14
    72   -2.537695054095e-11
    73    3.846726035757e-02
    74    2.698339685618e-14
    75   -4.548168511234e-13
    76   -4.424579192613e-13
    77   -5.585366804460e-16
    78   -4.989280125067e-15
    79    4.801393657661e-13
    80   -8.522449682259e-04
    81   -1.301990264096e-15
    82    1.053956505318e-14
    83   -3.710196371290e-14
    84   -2.073133788393e-14
    85    2.417520907053e-13
    86   -7.217341807038e-13
    87    5.536113880566e-13
    88   -2.068657419854e-15
    89   -2.023005411915e-13
    90    8.927600671310e-02
    91   -1.422091571011e-15
    92   -4.947520552462e-14
    93    8.191177608577e-03
    94    4.050256109641e-15
    95    6.655166654329e-14
    96    2.871985844907e-02
    97    7.976546692706e-15
    98    1.406567204643e-12
    99   -7.835106921165e-01
   100    1.982600787547e-16
   101   -1.604892983505e-12
   102    1.065536232604e+00
   103   -9.555657455691e-15
   104    4.094593587800e-13
   105    6.687300351194e-02
   106    9.334658710201e-14
   107    8.310601245992e-15
   108   -1.767761400833e-13
   109    1.872321742091e-13
   110    2.357181100754e-01
   111    3.290882270849e-13
   112    3.585127993319e-14
   113    2.222611935402e-03
   114    1.037075860938e-15
   115   -1.622671406902e-14
   116    3.430090268022e-03
   117   -1.708015781761e-13
   118    4.908550926893e-16
   119   -1.555116852920e-14
   120    3.775240811445e-14
   121    2.124848396547e-14
   122   -2.455143583230e-13
   123    7.294653810047e-13
   124   -5.221581368859e-13
   125   -2.514614857728e-14
   126   -2.090423982717e-13
   127   -8.927600670484e-02
   128   -5.245809596130e-15
   129   -5.096448926444e-14
   130   -8.191177608043e-03
   131    4.510049230292e-15
   132    6.808183568911e-14
   133   -2.871985844758e-02
   134    1.806423599912e-13
   135    1.458990213459e-12
   136    7.835106920476e-01
   137   -1.981652723038e-13
   138   -1.666676131753e-12
   139   -1.065536232517e+00
   140    7.890196327611e-15
   141    1.925959391968e-13
   142    6.687300350322e-02
   143   -9.847204202622e-14
   144   -4.647249333669e-15
   145    1.783882400650e-13
   146    3.997149833346e-13
   147    2.357181100359e-01
   148   -3.392489732666e-13
   149   -2.547848764201e-14
   150   -2.222611934406e-03
   151    1.096831587363e-15
   152   -1.699723517757e-14
   153   -3.430090267827e-03
   154    1.056906840692e-13
   155   -1.932274264360e-17
   156   -1.550452204387e-14
   157   -2.206693433963e-15
   158   -1.153698336555e-15
   159    1.436542925825e-14
   160   -4.253292653133e-14
   161    2.510372696113e-14
   162    9.070919151106e-15
   163    2.079191549259e-13
   164   -1.242109193278e-11
   165    2.396198868355e-15
   166    5.086715862641e-14
   167   -8.419645189384e-13
   168   -3.229802152470e-15
   169   -6.847190025867e-14
   170   -5.692954788139e-12
   171   -6.398426913271e-14
   172   -1.422849628114e-12
   173    1.099334512311e-10
   174    7.236446592267e-14
   175    1.446343956497e-12
   176   -1.306572627868e-10
   177   -7.905898552144e-16
   178    4.627020988579e-12
   179    4.126283159038e-03
   180   -6.474819175308e-15
   181    1.049312220944e-13
   182   -6.861799508156e-15
   183    2.190850278971e-11
   184    3.846726035905e-02
   185   -2.495467301110e-14
   186    4.567435236823e-13
   187   -4.969837475582e-13
   188    5.341747995359e-16
   189   -4.413332486526e-15
   190    4.749620835520e-13
   191    8.522449683151e-04
   192   -9.535216825669e-16
   193    1.116493029970e-14
Sym=X
Ene= 0.853222
Spin=Alpha
Occup=0
     1   -8.925980806525e-03
     2    1.884155669181e-02
     3   -8.647355960435e-02
     4    1.604895773139e-02
     5   -7.712100656146e-01
     6    2.457643294516e-01
     7    4.450818090384e-12
     8   -2.446005802951e-12
     9   -6.137498112950e-15
    10   -1.241734006024e-11
    11    7.172136685853e-12
    12    1.614016006263e-14
    13   -3.269730429719e-12
    14   -4.780856706857e-13
    15    1.868684167635e-14
    16   -2.554983122059e-11
    17    6.636318566762e-12
    18   -2.352843977083e-13
    19   -4.988936147799e-02
    20    6.211419184725e-15
    21    2.450083030004e-15
    22    3.346271965148e-12
    23   -4.037519192048e-13
    24   -7.042874606845e-02
    25    6.409630836744e-15
    26    2.063722537857e-15
    27    2.707713856993e-12
    28   -3.713496439304e-12
    29    3.162528097293e-01
    30   -2.211949006521e-14
    31   -6.146577666225e-15
    32   -1.892741871313e-11
    33    1.791379161914e-11
    34   -4.614199804915e-01
    35   -4.122243347029e-14
    36   -1.589121369016e-14
    37    6.156004659084e-11
    38    3.815487456532e-11
    39   -6.020006315503e-16
    40    4.350030876856e-13
    41   -1.521865287578e-13
    42   -2.488532616509e-16
    43   -8.415509937426e-17
    44   -1.002231380403e-12
    45   -2.508920224074e-13
    46   -8.563927205526e-03
    47   -4.460110200170e-03
    48    5.599278841954e-02
    49   -1.728191294691e-01
    50    5.453914835613e-02
    51   -6.866609823114e-02
    52   -1.585939376492e-11
    53    5.725763959496e-14
    54   -1.696519722296e-02
    55   -3.370562340924e-12
    56    7.200314153035e-15
    57    2.003429079722e-02
    58    6.006374659977e-12
    59    1.086893043004e-14
    60    5.081179231769e-01
    61    1.066617994878e-10
    62   -4.805001206780e-13
    63   -6.533237502606e-01
    64   -1.247593603782e-10
    65    5.887273038311e-13
    66   -1.176467802538e-02
    67   -2.985601097676e-15
    68    1.789902013242e-15
    69   -5.047789140363e-02
    70    1.900203278927e-12
    71   -9.504250686143e-02
    72    4.452430275085e-14
    73    6.657791930054e-15
    74   -1.094491859237e-01
    75    2.063050441851e-12
    76    1.660431055586e-15
    77    4.071365918386e-03
    78    3.946461156809e-14
    79    8.199221620374e-15
    80    1.963237223489e-16
    81   -1.519949071868e-03
    82   -2.186586608082e-13
    83   -8.563927202589e-03
    84   -4.460110198555e-03
    85    5.599278840041e-02
    86   -1.728191294145e-01
    87    5.453914836060e-02
    88    3.034773004623e-12
    89   -6.866609820696e-02
    90    3.032455156843e-14
    91    1.352967395671e-12
    92   -1.696519721873e-02
    93    4.166013321031e-15
    94   -6.101349695617e-13
    95    2.003429079800e-02
    96    5.752908411487e-15
    97   -2.147671728200e-11
    98    5.081179229823e-01
    99   -2.542026214903e-13
   100    3.200383530304e-12
   101   -6.533237500397e-01
   102    3.049794916550e-13
   103   -1.176467802941e-02
   104    1.040119543146e-15
   105   -1.484128354661e-14
   106    5.047789139302e-02
   107   -9.031090123478e-12
   108   -9.504250686322e-02
   109    6.318725980724e-15
   110   -1.210853547145e-14
   111    1.094491858968e-01
   112   -3.578954107063e-11
   113    6.968279823435e-16
   114   -1.613248322796e-13
   115    4.071365918055e-03
   116   -8.423140253524e-15
   117   -1.336975379937e-17
   118   -1.212798675527e-12
   119    1.519949072612e-03
   120   -8.563927203283e-03
   121   -4.460110199285e-03
   122    5.599278840478e-02
   123   -1.728191294240e-01
   124    5.453914836150e-02
   125    2.398879849958e-11
   126    6.866609821789e-02
   127    2.392786559792e-14
   128    6.211070070256e-12
   129    1.696519722038e-02
   130    3.426348743276e-15
   131   -1.260680383317e-11
   132   -2.003429079494e-02
   133    3.518283118361e-15
   134   -1.522802138175e-10
   135   -5.081179230744e-01
   136   -1.964914926036e-13
   137    1.662712809772e-10
   138    6.533237501373e-01
   139    2.232445581055e-13
   140   -1.176467802970e-02
   141   -6.412217034945e-16
   142    2.303439966443e-14
   143    5.047789139341e-02
   144    8.031651334874e-12
   145   -9.504250686516e-02
   146   -2.050646610743e-15
   147    3.623677690487e-14
   148    1.094491858952e-01
   149    3.058627196426e-11
   150    1.534265683944e-15
   151   -4.048250610552e-13
   152   -4.071365917889e-03
   153   -8.141373453834e-15
   154    1.510230165835e-16
   155   -7.581068512008e-13
   156   -1.519949072197e-03
   157   -8.563927200447e-03
   158   -4.460110197677e-03
   159    5.599278838627e-02
   160   -1.728191293669e-01
   161    5.453914827573e-02
   162    6.866609819996e-02
   163    5.390248539416e-12
   164    3.641364755205e-14
   165    1.696519721616e-02
   166    1.717148350312e-12
   167    5.252046482767e-15
   168   -2.003429079134e-02
   169   -6.141989714305e-12
   170    5.058596712234e-15
   171   -5.081179229489e-01
   172   -2.740294561935e-11
   173   -2.972886765943e-13
   174    6.533237499999e-01
   175    4.379238437954e-11
   176    3.342816302182e-13
   177   -1.176467802240e-02
   178    1.657333952842e-14
   179    1.126847308483e-15
   180   -5.047789139048e-02
   181   -3.013616431682e-12
   182   -9.504250684317e-02
   183    4.881879954075e-15
   184    1.587626368780e-15
   185   -1.094491858749e-01
   186   -7.246470716975e-12
   187    8.634005461633e-16
   188   -4.071365918654e-03
   189   -6.998851161731e-14
   190    6.573632530923e-15
   191   -3.202280286628e-16
   192    1.519949074277e-03
   193   -8.409754744525e-13
[5D7F]

======= END OF MOLDEN-FORMATTED INPUT FILE =======


        *************************************************************
        *                                                           *
        *  Thank you very much for using Q-Chem.  Have a nice day.  *
        *                                                           *
        *************************************************************


