                  Welcome to Q-Chem
     A Quantum Leap Into The Future Of Chemistry


 Q-Chem 6.0 (devel), Q-Chem, Inc., Pleasanton, CA (2022)

 E. Epifanovsky,  A. T. B. Gilbert,  Xintian Feng,  Joonho Lee,  Yuezhi Mao,  
 N. Mardirossian,  P. Pokhilko,  A. White,  M. Wormit,  M. P. Coons,  
 A. L. Dempwolff,  Zhengting Gan,  D. Hait,  P. R. Horn,  L. D. Jacobson,  
 I. Kaliman,  J. Kussmann,  A. W. Lange,  Ka Un Lao,  D. S. Levine,  Jie Liu,  
 S. C. McKenzie,  A. F. Morrison,  K. Nanda,  F. Plasser,  D. R. Rehn,  
 M. L. Vidal,  Zhi-Qiang You,  Ying Zhu,  B. Alam,  B. Albrecht,  
 A. Aldossary,  E. Alguire,  J. H. Andersen,  V. Athavale,  D. Barton,  
 K. Begam,  A. Behn,  N. Bellonzi,  Y. A. Bernard,  E. J. Berquist,  
 H. Burton,  A. Carreras,  K. Carter-Fenk,  Romit Chakraborty,  
 Chandrima Chakravarty,  Junhan Chen,  A. D. Chien,  K. D. Closser,  
 V. Cofer-Shabica,  L. Cunha,  S. Dasgupta,  Jia Deng,  M. de Wergifosse,  
 M. Diedenhofen,  Hainam Do,  S. Ehlert,  Po-Tung Fang,  S. Fatehi,  
 Qingguo Feng,  T. Friedhoff,  B. Ganoe,  J. Gayvert,  Qinghui Ge,  
 G. Gidofalvi,  M. Goldey,  J. Gomes,  C. Gonzalez-Espinoza,  S. Gulania,  
 A. Gunina,  J. A. Gyamfi,  M. W. D. Hanson-Heine,  P. H. P. Harbach,  
 A. W. Hauser,  M. F. Herbst,  M. Hernandez Vera,  M. Hodecker,  
 Z. C. Holden,  S. Houck,  Xunkun Huang,  Kerwin Hui,  B. C. Huynh,  
 K. Ikeda,  M. Ivanov,  Hyunjun Ji,  Zuxin Jin,  Hanjie Jiang,  B. Kaduk,  
 S. Kaehler,  R. Kang,  K. Khistyaev,  Jaehoon Kim,  Yongbin Kim,  
 P. Klunzinger,  Z. Koczor-Benda,  Joong Hoon Koh,  D. Kosenkov,  
 Saikiran Kotaru,  L. Koulias,  T. Kowalczyk,  C. M. Krauter,  K. Kue,  
 A. Kunitsa,  T. Kus,  A. Landau,  K. V. Lawler,  D. Lefrancois,  S. Lehtola,  
 Rain Li,  Shaozhi Li,  Yi-Pei Li,  Jiashu Liang,  M. Liebenthal,  
 Hung-Hsuan Lin,  You-Sheng Lin,  Fenglai Liu,  Kuan-Yu Liu,  
 M. Loipersberger,  A. Luenser,  C. Malbon,  A. Manjanath,  P. Manohar,  
 E. Mansoor,  S. F. Manzer,  Shan-Ping Mao,  A. V. Marenich,  T. Markovich,  
 S. Mason,  F. Matz,  S. A. Maurer,  P. F. McLaughlin,  M. F. S. J. Menger,  
 J.-M. Mewes,  S. A. Mewes,  P. Morgante,  Mohammad Mostafanejad,  
 J. W. Mullinax,  K. J. Oosterbaan,  G. Paran,  V. Parravicini,  
 Alexander C. Paul,  Suranjan K. Paul,  F. Pavosevic,  Zheng Pei,  S. Prager,  
 E. I. Proynov,  E. Ramos,  B. Rana,  A. E. Rask,  A. Rettig,  R. M. Richard,  
 F. Rob,  E. Rossomme,  T. Scheele,  M. Scheurer,  M. Schneider,  
 P. E. Schneider,  N. Sergueev,  S. M. Sharada,  Hengyuan Shen,  
 W. Skomorowski,  D. W. Small,  C. J. Stein,  Yingli Su,  Yu-Chuan Su,  
 E. J. Sundstrom,  Zhen Tao,  J. Thirman,  Hung-Yi Tsai,  T. Tsuchimochi,  
 N. M. Tubman,  C. Utku,  S. P. Veccham,  O. Vydrov,  J. Wenzel,  
 Jonathan Wong,  J. Witte,  A. Yamada,  Chou-Hsun Yang,  Kun Yao,  
 S. Yeganeh,  S. R. Yost,  A. Zech,  F. Zeller,  Igor Ying Zhang,  
 Xing Zhang,  Yu Zhang,  D. Zuev,  A. Aspuru-Guzik,  A. T. Bell,  
 N. A. Besley,  K. B. Bravaya,  B. R. Brooks,  D. Casanova,  Jeng-Da Chai,  
 Hsing-Ta Chen,  S. Coriani,  C. J. Cramer,  A. E. DePrince, III,  
 R. A. DiStasio Jr.,  A. Dreuw,  B. D. Dunietz,  T. R. Furlani,  
 W. A. Goddard III,  S. Grimme,  S. Hammes-Schiffer,  T. Head-Gordon,  
 W. J. Hehre,  Chao-Ping Hsu,  T.-C. Jagau,  Yousung Jung,  A. Klamt,  
 Jing Kong,  D. S. Lambrecht,  Xiangyuan Li,  WanZhen Liang,  N. J. Mayhall,  
 C. W. McCurdy,  J. B. Neaton,  T. Neudecker,  C. Ochsenfeld,  
 J. A. Parkhill,  R. Peverati,  V. A. Rassolov,  Haisheng Ren,  Yihan Shao,  
 L. V. Slipchenko,  R. P. Steele,  J. E. Subotnik,  A. J. W. Thom,  
 A. Tkatchenko,  D. G. Truhlar,  T. Van Voorhis,  Fan Wang,  
 T. A. Wesolowski,  K. B. Whaley,  H. L. Woodcock III,  P. M. Zimmerman,  
 S. Faraji,  P. M. W. Gill,  M. Head-Gordon,  J. M. Herbert,  A. I. Krylov

 Contributors to earlier versions of Q-Chem not listed above: 
 R. D. Adamson,  B. Austin,  R. Baer,  J. Baker,  G. J. O. Beran,  
 K. Brandhorst,  S. T. Brown,  E. F. C. Byrd,  Arup K. Chakraborty,  
 G. K. L. Chan,  Chun-Min Chang,  Yunqing Chen,  C.-L. Cheng,  
 Siu Hung Chien,  D. M. Chipman,  D. L. Crittenden,  H. Dachsel,  
 R. J. Doerksen,  A. D. Dutoi,  R. G. Edgar,  J. Fosso-Tande,  
 L. Fusti-Molnar,  D. Ghosh,  A. Ghysels,  A. Golubeva-Zadorozhnaya,  
 J. Gonthier,  M. S. Gordon,  S. R. Gwaltney,  G. Hawkins,  J. E. Herr,  
 A. Heyden,  S. Hirata,  E. G. Hohenstein,  G. Kedziora,  F. J. Keil,  
 C. Kelley,  Jihan Kim,  R. A. King,  R. Z. Khaliullin,  P. P. Korambath,  
 W. Kurlancheek,  A. Laurent,  A. M. Lee,  M. S. Lee,  S. V. Levchenko,  
 Ching Yeh Lin,  D. Liotard,  E. Livshits,  R. C. Lochan,  I. Lotan,  
 L. A. Martinez-Martinez,  P. E. Maslen,  N. Nair,  D. P. O'Neill,  
 D. Neuhauser,  E. Neuscamman,  C. M. Oana,  R. Olivares-Amaya,  R. Olson,  
 T. M. Perrine,  B. Peters,  P. A. Pieniazek,  A. Prociuk,  Y. M. Rhee,  
 J. Ritchie,  M. A. Rohrdanz,  E. Rosta,  N. J. Russ,  H. F. Schaefer III,  
 M. W. Schmidt,  N. E. Schultz,  S. Sharma,  N. Shenvi,  C. D. Sherrill,  
 A. C. Simmonett,  A. Sodt,  T. Stein,  D. Stuck,  K. S. Thanthiriwatte,  
 V. Vanovschi,  L. Vogt,  Tao Wang,  A. Warshel,  M. A. Watson,  
 C. F. Williams,  Q. Wu,  X. Xu,  Jun Yang,  W. Zhang,  Yan Zhao

   Please cite Q-Chem as follows:
  "Software for the frontiers of quantum chemistry:
   An overview of developments in the Q-Chem 5 package"
   J. Chem. Phys. 155, 084801 (2021)
   https://doi.org/10.1063/5.0055522 (open access)

 Q-Chem 6.0.1 for Intel X86 EM64T Linux

 Parts of Q-Chem use Armadillo 9.900.5 (Nocturnal Misbehaviour).
 http://arma.sourceforge.net/

 Q-Chem begins on Tue Oct 24 11:07:35 2023  

 Host: atlas-145
0

     Scratch files written to ./qchem83808//
 Processing $rem in /scratch/abel/SOFTWARE/qchem/config/preferences:
 Processing $rem in /dipc/acebg/.qchemrc:

 Checking the input file for inconsistencies... 	...done.

--------------------------------------------------------------
User input:
--------------------------------------------------------------
$comment
 RAS-SF CALCULATION
$end

$molecule
 READ nf.molecule
$end

$rem
!**CALCULATION TYPE***     
JOBTYPE            sp    
EXCHANGE           HF
CORRELATION        RASCI    !RASCI=Casanova; RASCI2=Zimmerman
BASIS              sto-3g

!***SCF REFERENCE***
!SKIP_SCFMAN        FALSE
UNRESTRICTED       FALSE
!SCF_GUESS          core
!SCF_GUESS_MIX      FALSE
!SCF_GUESS_ALWAYS   FALSE
MAX_SCF_CYCLES     500
!SCF_CONVERGENCE    8
!SCF_ALGORITHM      DIIS !DIIS,DM,DIIS_DM,GDM,DIIS_GDM,GD

!SYMMETRY           TRUE !use of symmetry for calculating integrals
!SYM_IGNORE         FALSE !turn off using symmetry
!SYM_TOL            5 !tolerance for determining point group

!THRESH             14
SCF_FINAL_PRINT     1 !0,1,2,3

!****RAS-SF****
RAS_ROOTS          10       !number of RAS-CI roots to be computed
SET_ITER           100      !number of iterations in RASCI
RAS_ELEC           12       !number of electrons in RAS2
RAS_ELEC_ALPHA     7       !spin-α electrons in RAS2 
RAS_ELEC_BETA      5       !spin-β electrons in RAS2

RAS_ACT            8       !number of orbitals in RAS2 
RAS_ACT_ORB   [3,4,5,6,7,8,9,10]  !user-selected RAS2 orbitals
RAS_OCC            2       !number of orbitals in RAS1
!N_FROZEN_CORE      0     !Number of frozen core orbitals
!N_FROZEN_VIRTUAL   0      !Number of frozen virtual orbitals

RAS_DO_HOLE        TRUE   !presence of hole excitations in RAS-CI wave function
RAS_DO_PART        TRUE   !presence of particle excitations
!RAS_AMPL_PRINT     10     !threshold (×10 2 ) for the CI amplitudes

!RAS_GUESS_CS       0      !number of closed shell guess conﬁgurations
!RAS_SPIN_MULT      0      !spin multiplicity: 0=any, 2n+1=defined 
!RAS_SRDFT          FALSE  !short-range density functional RAS-CI
!RAS_NFRAG          0     !fragments of excitation analysis in RASCI

RAS_PRINT          2      !level of information
RAS_NATORB         TRUE   !computation of the natural orbital occupancies
!RAS_NATORB_STATE  0      !Saves NO of i RAS computed state in .fchk ﬁle
!RAS_FOD            TRUE

!****RAS-SOC****
CALC_SOC           TRUE   !calculate SOC for EOM-CC, RAS-CI, ADC, TDDFT/TDA and TDDFT
!RAS_SOC_2E        TRUE   !two-electron mean-ﬁeld contribution, default=true
RAS_SOC_SYM_DENS   TRUE   !averaging of α and β densities

!****MEMORY****
MEM_TOTAL          60000 !Default 2000 MB
MEM_STATIC         16000  !Default 64 MB

!**Molecular Properties and Analysis **                                                                                          
!GUI                2
STATE_ANALYSIS     TRUE
MOLDEN_FORMAT      TRUE
PRINT_ORBITALS     20
$end                                           

--------------------------------------------------------------
 ----------------------------------------------------------------
             Standard Nuclear Orientation (Angstroms)
    I     Atom           X                Y                Z
 ----------------------------------------------------------------
    1      N       0.0000000000     0.0000000000    -0.7407562500
    2      F       0.0000000000     0.0000000000     0.5761437500
 ----------------------------------------------------------------
 Molecular Point Group                 C2v   NOp =  4
 Largest Abelian Subgroup              C2v   NOp =  4
 Nuclear Repulsion Energy =          25.31563845 hartrees
 There are        9 alpha and        7 beta electrons
 Requested basis set is STO-3G
 There are 4 shells and 10 basis functions

 Q-Chem warning in module libmdc/get_mega.C, line 167:

 Allowed MEM_STATIC has been capped at MEM_STATIC=8191.
 Reduce the value of MEM_STATIC to silence this warning.


 Total QAlloc Memory Limit  60000 MB
 Mega-Array Size      8007 MB
 MEM_STATIC part      8191 MB


                       Distance Matrix (Angstroms)
             N (  1)
   F (  2)  1.316900
 
 A cutoff of  1.0D-09 yielded     10 shell pairs
 There are        67 function pairs
 Smallest overlap matrix eigenvalue = 4.44E-01

 Scale SEOQF with 1.000000e+00/1.000000e+00/1.000000e+00

 Standard Electronic Orientation quadrupole field applied
 Nucleus-field energy     =    -0.0000000073 hartrees
 Guess from superposition of atomic densities
 Warning:  Energy on first SCF cycle will be non-variational
 SAD guess density has 16.000000 electrons

 -----------------------------------------------------------------------
  General SCF calculation program by
  Eric Jon Sundstrom, Paul Horn, Yuezhi Mao, Dmitri Zuev, Alec White,
  David Stuck, Shaama M.S., Shane Yost, Joonho Lee, David Small,
  Daniel Levine, Susi Lehtola, Hugh Burton, Evgeny Epifanovsky,
  Bang C. Huynh
 -----------------------------------------------------------------------
 Hartree-Fock
 Orthonormalizing orbitals
 A restricted open-shell SCF calculation will be
 performed using GDM
 SCF converges when RMS gradient is below 1.0e-05
 ---------------------------------------
  Cycle       Energy        RMS Gradient
 ---------------------------------------
    1    -151.5260172399      4.37e-01   Descent step
    2    -151.6795165146      1.51e-01   Dog-leg BFGS step
    3    -151.7262913686      4.37e-02   Normal BFGS step
    4    -151.7287377494      1.65e-02   Normal BFGS step
    5    -151.7292177314      1.92e-03   Normal BFGS step
    6    -151.7292235580      2.87e-04   Normal BFGS step
    7    -151.7292236924      3.76e-05   Normal BFGS step
    8    -151.7292236935      1.08e-06  Convergence criterion met
The disked orbital energies are calculated using alpha and beta Focks
 ---------------------------------------
 Alpha HF Exchange    Energy =  -9.06225509742390
 Beta HF Exchange     Energy =  -7.76616106500821
 Nuclear Attraction   Energy =   0.00000000000000
 One-Electron (alpha) Energy = -139.39830220814287
 One-Electron (beta)  Energy = -122.47711971030947
 Total Coulomb        Energy = 101.65897594044657
 Final Alpha MO Eigenvalues
            1           2           3           4           5           6
    1 -26.0392302 -15.4400658  -1.6114650  -1.0235922  -0.6188444  -0.6188444
            7           8           9          10
    1  -0.5763405  -0.4482345  -0.4482345   0.5360168
 Final Beta MO Eigenvalues
            1           2           3           4           5           6
    1 -26.0332875 -15.3974681  -1.5681129  -0.8217490  -0.5423953  -0.5423953
            7           8           9          10
    1  -0.4840428   0.3089278   0.3089278   0.6095163
 SCF time:   CPU 0.09s  wall 1.00s 
<S^2> =          2.000000000
 SCF   energy in the final basis set =     -151.7292236935
 Total energy in the final basis set =     -151.7292236935
  
     ##========================================##
     ||                                        ||
     ||              R A S M A N 2             ||
     ||________________________________________||
     ||                                        ||
     ||  Author:                               ||
     ||                                        ||
     ||        David Casanova (2010)           ||
     ||                                        ||
     ##========================================##
  
Setting single-point xc-functionals (if necessary)

  ***************************************************
  *  RAS-CI Dimensions:                             *
  *                                                 *
  *  Active Elec.:  12 ( 7, 5)   Active Orb.:   8   *
  *  Doubly Occ. :   2           Doubly Vir.:   0   *
  *  Frozen Occ. :   0           Frozen Vir.:   0   *
  *                                                 *
  *  Total CI configurations:      1008             * 
  *    Active configurations:       448             * 
  *      Hole configurations:       560             * 
  *  Particle configurations:         0             * 
  *                                                 *
  *   Requested states:       10                    *
  *  Spin multiplicity: Any multiplicity            *
  *                                                 *
  ***************************************************
-----------------------------------------
    Memory requirements of RASCI

 Each CI-vector requires      0.01 MiB 
 Max. subspace vectors           1000      

 Reduced Lists                0.00 MiB 
 Excitation Lists             0.00 MiB 
 Excitation Lists Sign        0.00 MiB 
 CI-space (Max)              15.40 MiB 
 Integrals                    0.09 MiB 
 Memory required (Max)       15.41 MiB 
 Memory available          7811.55 MiB 

    Disk requirements of RASCI

 Fock matrix                  0.00 MiB 
 2-electron integrals         0.09 MiB 
 CI-space                    15.38 MiB 
 Disk required               15.47 MiB 
-----------------------------------------
  
RAS1 HF-like energy:           -104.8170744453
 Computing integrals
 Computing J and K matrices
 Computing addressing
 Making amplitude guesses
 
Direct CI diagonalization
 ---------------------------------------------------
 Iter    Rts Conv    Rts Left    Ttl Dev     Max Dev
 ---------------------------------------------------
   1         0          10      0.163706    0.030755
   2         0          10      0.131700    0.019851
   3         0          10      0.115312    0.027663
   4         0          10      0.080430    0.012296
   5         0          10      0.048564    0.009044
   6         0          10      0.066921    0.019398
   7         0          10      0.034228    0.016303
   8         0          10      0.046638    0.019251
   9         0          10      0.036839    0.016335
  10         0          10      0.039394    0.011747
  11         0          10      0.049944    0.017510
  12         0          10      0.041331    0.014132
  13         0          10      0.049220    0.015878
  14         0          10      0.028294    0.010117
  15         0          10      0.042462    0.016156
  16         0          10      0.025456    0.009283
  17         0          10      0.041483    0.017600
  18         0          10      0.033341    0.013691
  19         0          10      0.028085    0.011965
  20         0          10      0.017766    0.007113
  21         1           9      0.016142    0.006971
  22         1           9      0.008505    0.003290
  23         1           9      0.010212    0.004386
  24         1           9      0.004532    0.001893
  25         1           9      0.003533    0.001483
  26         1           9      0.009386    0.007425
  27         1           9      0.005620    0.004200
  28         2           8      0.008967    0.007793
  29         2           8      0.005037    0.003871
  30         4           6      0.006117    0.005069
  31         4           6      0.004027    0.003509
  32         5           5      0.003827    0.003354
  33         5           5      0.002285    0.002092
  34         5           5      0.001931    0.001750
  35         5           5      0.001773    0.001658
  36         5           5      0.001403    0.001313
  37         7           3      0.000968    0.000933
  38         7           3      0.000872    0.000845
  39         7           3      0.000566    0.000544
  40         7           3      0.000247    0.000235
  41         7           3      0.000230    0.000215
  42         7           3      0.000128    0.000121
  43         8           2      0.000107    0.000099
  44         8           2      0.000051    0.000045
  45         9           1      0.000054    0.000049
  46         9           1      0.000018    0.000013
  47         9           1      0.000021    0.000016
  48         9           1      0.000012    0.000007
  49         9           1      0.000008    0.000004
  50         9           1      0.000007    0.000002
  51         9           1      0.000006    0.000001
  52         9           1      0.000006    0.000002
  53        10           0      0.000005    0.000001    Roots Converged
 ---------------------------------------------------
   
**************************************************
 RAS-CI total energy for state   1:   -151.792835128455
  Excitation energy (eV) =  0.000000000000
  State symmetry: A2    (C2v      )
  <S^2>      :  2.0000
  Dipole Moment:   -0.0000 X    -0.0000 Y    -0.2627 Z
 NATURAL OCCUPATION NUMBERS (higher than 1.0E-05)
            1           2           3           4           5           6
    1   1.9999999   1.9999997   1.9995137   1.9941375   1.9859708   1.9859708
            7           8           9          10
    1   1.9514392   1.0135500   1.0135500   0.0558684
 Created directory ./qchem83808/plots

  Amplitudes : 
  
 | HOLE  | ALPHA    | BETA     | PART  |    AMPLITUDE 
--------------------------------------------------
 |       | 11111110 | 11111000 |       |     9.7256618808621E-01
--------------------------------------------------
*** Contributions RASCI wfn    Active: 100.00
                                 Hole:   0.00
                                 Part:   0.00

      Mulliken population analysis 
 ---------------------------------------------------
   Atom    Charge (a.u.)   Spin (a.u.)  
 ---------------------------------------------------
   1  N   -0.000435        1.813017 
   2  F    0.000435        0.186983 
 ---------------------------------------------------
   Sum:   -0.000000        2.000000 
 ---------------------------------------------------
 
  
 NATURAL OCCUPATION NUMBERS (higher than 1.0E-05)
            1           2           3           4           5           6
    1   1.9999999   1.9999997   1.9995137   1.9941375   1.9859708   1.9859708
            7           8           9          10
    1   1.9514392   1.0135500   1.0135500   0.0558684
  
*** Unpaired Electrons
 Yamaguchi Nd:         2.27
 Head-Gordon Nu:       2.11
 Head-Gordon Nu_nl:    2.02
  
**************************************************
 RAS-CI total energy for state   2:   -151.519221818166
  Excitation energy (eV) =  7.445396982928
  State symmetry: B2    (C2v      )
  <S^2>      :  2.0000
  Dipole Moment:   -0.0000 X    -0.0000 Y    -0.1725 Z
  Trans. Moment:    0.3597 X     0.0083 Y    -0.0000 Z
  Strength   :  0.023618
  Natural transition orbitals ( 1 -> 2 ):
   e-/hole pair  1 alpha:  ampl =  0.110367 (  1.2%)   [8 : 9]
   e-/hole pair  2 alpha:  ampl =  0.009718 (  0.0%)   [7 : 10]
   e-/hole pair  1 beta :  ampl =  0.959055 ( 92.0%)   [8 : 9]
   e-/hole pair  2 beta :  ampl =  0.060922 (  0.4%)   [7 : 10]
   Sum of square amplitudes: 0.94

 NATURAL OCCUPATION NUMBERS (higher than 1.0E-05)
            1           2           3           4           5           6
    1   1.9999994   1.9999960   1.9987052   1.9980988   1.9920287   1.9703462
            7           8           9          10
    1   1.9651344   1.0162478   1.0071184   0.0523250

  Amplitudes : 
  
 | HOLE  | ALPHA    | BETA     | PART  |    AMPLITUDE 
--------------------------------------------------
 |       | 11111110 | 11110100 |       |     9.6302167342821E-01
 |       | 11111110 | 10111100 |       |    -1.4984816606618E-01
 |       | 11110111 | 10111100 |       |     1.1122919159338E-01
--------------------------------------------------
*** Contributions RASCI wfn    Active: 100.00
                                 Hole:   0.00
                                 Part:   0.00

      Mulliken population analysis 
 ---------------------------------------------------
   Atom    Charge (a.u.)   Spin (a.u.)  
 ---------------------------------------------------
   1  N   -0.105540        1.556304 
   2  F    0.105540        0.443696 
 ---------------------------------------------------
   Sum:   -0.000000        2.000000 
 ---------------------------------------------------
 
  
 NATURAL OCCUPATION NUMBERS (higher than 1.0E-05)
            1           2           3           4           5           6
    1   1.9999994   1.9999960   1.9987052   1.9980988   1.9920287   1.9703462
            7           8           9          10
    1   1.9651344   1.0162478   1.0071184   0.0523250
  
*** Unpaired Electrons
 Yamaguchi Nd:         2.25
 Head-Gordon Nu:       2.10
 Head-Gordon Nu_nl:    2.02
  
**************************************************
 RAS-CI total energy for state   3:   -151.519221818163
  Excitation energy (eV) =  7.445396983009
  State symmetry: B1    (C2v      )
  <S^2>      :  2.0000
  Dipole Moment:   -0.0000 X     0.0000 Y    -0.1725 Z
  Trans. Moment:    0.0083 X    -0.3597 Y    -0.0000 Z
  Strength   :  0.023618
  Natural transition orbitals ( 1 -> 3 ):
   e-/hole pair  1 alpha:  ampl =  0.110368 (  1.2%)   [8 : 9]
   e-/hole pair  2 alpha:  ampl =  0.009718 (  0.0%)   [7 : 10]
   e-/hole pair  1 beta :  ampl =  0.959055 ( 92.0%)   [8 : 9]
   e-/hole pair  2 beta :  ampl =  0.060922 (  0.4%)   [7 : 10]
   Sum of square amplitudes: 0.94

 NATURAL OCCUPATION NUMBERS (higher than 1.0E-05)
            1           2           3           4           5           6
    1   1.9999994   1.9999960   1.9987052   1.9980988   1.9920287   1.9703462
            7           8           9          10
    1   1.9651344   1.0162478   1.0071184   0.0523250

  Amplitudes : 
  
 | HOLE  | ALPHA    | BETA     | PART  |    AMPLITUDE 
--------------------------------------------------
 |       | 11111110 | 11110010 |       |     9.6302167345517E-01
 |       | 11111110 | 10111010 |       |    -1.4984816487760E-01
 |       | 11110111 | 10111010 |       |     1.1122912547151E-01
--------------------------------------------------
*** Contributions RASCI wfn    Active: 100.00
                                 Hole:   0.00
                                 Part:   0.00

      Mulliken population analysis 
 ---------------------------------------------------
   Atom    Charge (a.u.)   Spin (a.u.)  
 ---------------------------------------------------
   1  N   -0.105540        1.556304 
   2  F    0.105540        0.443696 
 ---------------------------------------------------
   Sum:   -0.000000        2.000000 
 ---------------------------------------------------
 
  
 NATURAL OCCUPATION NUMBERS (higher than 1.0E-05)
            1           2           3           4           5           6
    1   1.9999994   1.9999960   1.9987052   1.9980988   1.9920287   1.9703462
            7           8           9          10
    1   1.9651344   1.0162478   1.0071184   0.0523250
  
*** Unpaired Electrons
 Yamaguchi Nd:         2.25
 Head-Gordon Nu:       2.10
 Head-Gordon Nu_nl:    2.02
  
**************************************************
 RAS-CI total energy for state   4:   -151.470396231363
  Excitation energy (eV) =  8.774008797501
  State symmetry: A1    (C2v      )
  <S^2>      :  2.0000
  Dipole Moment:   -0.0000 X    -0.0000 Y    -1.1750 Z
  Trans. Moment:    0.0000 X     0.0000 Y     0.0000 Z
  Strength   :  0.000000
  Natural transition orbitals ( 1 -> 4 ):
   e-/hole pair  1 alpha:  ampl =  0.000502 (  0.0%)   [8 : 9]
   e-/hole pair  2 alpha:  ampl =  0.000502 (  0.0%)   [7 : 10]
   e-/hole pair  1 beta :  ampl =  0.650589 ( 42.3%)   [8 : 9]
   e-/hole pair  2 beta :  ampl =  0.650589 ( 42.3%)   [7 : 10]
   Sum of square amplitudes: 0.85

 NATURAL OCCUPATION NUMBERS (higher than 1.0E-05)
            1           2           3           4           5           6
    1   2.0000000   1.9999998   1.9997569   1.9957458   1.9793775   1.5009112
            7           8           9          10
    1   1.5009112   1.4968845   1.4968845   0.0295286

  Amplitudes : 
  
 | HOLE  | ALPHA    | BETA     | PART  |    AMPLITUDE 
--------------------------------------------------
 |       | 11111110 | 11101100 |       |     6.5364395440006E-01
 |       | 11111110 | 11100101 |       |    -1.6657561688935E-01
 |       | 11111110 | 11011010 |       |    -6.5364395439242E-01
 |       | 11111110 | 11010011 |       |     1.6657561688740E-01
 |       | 11110111 | 11101100 |       |     1.8954895552151E-01
 |       | 11110111 | 11011010 |       |    -1.8954895551931E-01
--------------------------------------------------
*** Contributions RASCI wfn    Active: 100.00
                                 Hole:   0.00
                                 Part:   0.00

      Mulliken population analysis 
 ---------------------------------------------------
   Atom    Charge (a.u.)   Spin (a.u.)  
 ---------------------------------------------------
   1  N   -0.355628        0.983720 
   2  F    0.355628        1.016280 
 ---------------------------------------------------
   Sum:   -0.000000        2.000000 
 ---------------------------------------------------
 
  
 NATURAL OCCUPATION NUMBERS (higher than 1.0E-05)
            1           2           3           4           5           6
    1   2.0000000   1.9999998   1.9997569   1.9957458   1.9793775   1.5009112
            7           8           9          10
    1   1.5009112   1.4968845   1.4968845   0.0295286
  
*** Unpaired Electrons
 Yamaguchi Nd:         3.11
 Head-Gordon Nu:       2.06
 Head-Gordon Nu_nl:    2.26
  
**************************************************
 RAS-CI total energy for state   5:   -151.470396231363
  Excitation energy (eV) =  8.774008797503
  State symmetry: A2    (C2v      )
  <S^2>      :  2.0000
  Dipole Moment:   -0.0000 X    -0.0000 Y    -1.1750 Z
  Trans. Moment:   -0.0000 X    -0.0000 Y     0.0000 Z
  Strength   :  0.000000
  Natural transition orbitals ( 1 -> 5 ):
   e-/hole pair  1 alpha:  ampl =  0.000502 (  0.0%)   [8 : 9]
   e-/hole pair  2 alpha:  ampl =  0.000502 (  0.0%)   [7 : 10]
   e-/hole pair  1 beta :  ampl =  0.650589 ( 42.3%)   [8 : 9]
   e-/hole pair  2 beta :  ampl =  0.650589 ( 42.3%)   [7 : 10]
   Sum of square amplitudes: 0.85

 NATURAL OCCUPATION NUMBERS (higher than 1.0E-05)
            1           2           3           4           5           6
    1   2.0000000   1.9999998   1.9997569   1.9957458   1.9793775   1.5009112
            7           8           9          10
    1   1.5009112   1.4968845   1.4968845   0.0295286

  Amplitudes : 
  
 | HOLE  | ALPHA    | BETA     | PART  |    AMPLITUDE 
--------------------------------------------------
 |       | 11111110 | 11101010 |       |     6.5364395439643E-01
 |       | 11111110 | 11100011 |       |    -1.6657561688842E-01
 |       | 11111110 | 11011100 |       |     6.5364395439604E-01
 |       | 11111110 | 11010101 |       |    -1.6657561688833E-01
 |       | 11110111 | 11101010 |       |     1.8954895552047E-01
 |       | 11110111 | 11011100 |       |     1.8954895552037E-01
--------------------------------------------------
*** Contributions RASCI wfn    Active: 100.00
                                 Hole:   0.00
                                 Part:   0.00

      Mulliken population analysis 
 ---------------------------------------------------
   Atom    Charge (a.u.)   Spin (a.u.)  
 ---------------------------------------------------
   1  N   -0.355628        0.983720 
   2  F    0.355628        1.016280 
 ---------------------------------------------------
   Sum:   -0.000000        2.000000 
 ---------------------------------------------------
 
  
 NATURAL OCCUPATION NUMBERS (higher than 1.0E-05)
            1           2           3           4           5           6
    1   2.0000000   1.9999998   1.9997569   1.9957458   1.9793775   1.5009112
            7           8           9          10
    1   1.5009112   1.4968845   1.4968845   0.0295286
  
*** Unpaired Electrons
 Yamaguchi Nd:         3.11
 Head-Gordon Nu:       2.06
 Head-Gordon Nu_nl:    2.26
  
**************************************************
 RAS-CI total energy for state   6:   -151.467331571001
  Excitation energy (eV) =  8.857402448880
  State symmetry: A1    (C2v      )
  <S^2>      :  2.0000
  Dipole Moment:   -0.0000 X    -0.0000 Y    -1.1744 Z
  Trans. Moment:    0.0000 X    -0.0000 Y     0.0000 Z
  Strength   :  0.000000
  Natural transition orbitals ( 1 -> 6 ):
   e-/hole pair  1 alpha:  ampl =  0.001125 (  0.0%)   [8 : 9]
   e-/hole pair  2 alpha:  ampl =  0.001125 (  0.0%)   [7 : 10]
   e-/hole pair  1 beta :  ampl =  0.650429 ( 42.3%)   [8 : 9]
   e-/hole pair  2 beta :  ampl =  0.650429 ( 42.3%)   [7 : 10]
   Sum of square amplitudes: 0.85

 NATURAL OCCUPATION NUMBERS (higher than 1.0E-05)
            1           2           3           4           5           6
    1   2.0000000   1.9999997   1.9995866   1.9953528   1.9793940   1.5009901
            7           8           9          10
    1   1.5009901   1.4970614   1.4970614   0.0295640

  Amplitudes : 
  
 | HOLE  | ALPHA    | BETA     | PART  |    AMPLITUDE 
--------------------------------------------------
 |       | 11111110 | 11101100 |       |     6.5401726414961E-01
 |       | 11111110 | 11100101 |       |    -1.6685884892528E-01
 |       | 11111110 | 11011010 |       |     6.5401726415726E-01
 |       | 11111110 | 11010011 |       |    -1.6685884892723E-01
 |       | 11110111 | 11101100 |       |     1.8962094842278E-01
 |       | 11110111 | 11011010 |       |     1.8962094842500E-01
--------------------------------------------------
*** Contributions RASCI wfn    Active: 100.00
                                 Hole:   0.00
                                 Part:   0.00

      Mulliken population analysis 
 ---------------------------------------------------
   Atom    Charge (a.u.)   Spin (a.u.)  
 ---------------------------------------------------
   1  N   -0.355583        0.983755 
   2  F    0.355583        1.016245 
 ---------------------------------------------------
   Sum:   -0.000000        2.000000 
 ---------------------------------------------------
 
  
 NATURAL OCCUPATION NUMBERS (higher than 1.0E-05)
            1           2           3           4           5           6
    1   2.0000000   1.9999997   1.9995866   1.9953528   1.9793940   1.5009901
            7           8           9          10
    1   1.5009901   1.4970614   1.4970614   0.0295640
  
*** Unpaired Electrons
 Yamaguchi Nd:         3.11
 Head-Gordon Nu:       2.06
 Head-Gordon Nu_nl:    2.26
  
**************************************************
 RAS-CI total energy for state   7:   -151.459296410018
  Excitation energy (eV) =  9.076050303684
  State symmetry: B2    (C2v      )
  <S^2>      :  2.0000
  Dipole Moment:   -0.0000 X    -0.0000 Y    -0.3811 Z
  Trans. Moment:   -0.1082 X    -0.0025 Y    -0.0000 Z
  Strength   :  0.002607
  Natural transition orbitals ( 1 -> 7 ):
   e-/hole pair  1 alpha:  ampl =  0.924003 ( 85.4%)   [8 : 9]
   e-/hole pair  2 alpha:  ampl =  0.038444 (  0.1%)   [7 : 10]
   e-/hole pair  1 beta :  ampl =  0.142088 (  2.0%)   [8 : 9]
   e-/hole pair  2 beta :  ampl =  0.035281 (  0.1%)   [7 : 10]
   Sum of square amplitudes: 0.88

 NATURAL OCCUPATION NUMBERS (higher than 1.0E-05)
            1           2           3           4           5           6
    1   1.9999999   1.9999994   1.9987837   1.9893334   1.9711885   1.9500311
            7           8           9          10
    1   1.8691885   1.0281895   1.0028665   0.1904196

  Amplitudes : 
  
 | HOLE  | ALPHA    | BETA     | PART  |    AMPLITUDE 
--------------------------------------------------
 |       | 11111110 | 11110100 |       |    -1.2679406303568E-01
 |       | 11111011 | 11111000 |       |     8.4415239727635E-01
 |       | 11111011 | 11101010 |       |    -1.4594615042479E-01
 |       | 11111011 | 11011100 |       |     2.4110340403278E-01
 |       | 11011111 | 11111000 |       |     3.5208078925597E-01
 |       | 11011111 | 11011100 |       |    -1.0052173748292E-01
--------------------------------------------------
*** Contributions RASCI wfn    Active: 100.00
                                 Hole:   0.00
                                 Part:   0.00

      Mulliken population analysis 
 ---------------------------------------------------
   Atom    Charge (a.u.)   Spin (a.u.)  
 ---------------------------------------------------
   1  N   -0.068570        1.606034 
   2  F    0.068570        0.393966 
 ---------------------------------------------------
   Sum:   -0.000000        2.000000 
 ---------------------------------------------------
 
  
 NATURAL OCCUPATION NUMBERS (higher than 1.0E-05)
            1           2           3           4           5           6
    1   1.9999999   1.9999994   1.9987837   1.9893334   1.9711885   1.9500311
            7           8           9          10
    1   1.8691885   1.0281895   1.0028665   0.1904196
  
*** Unpaired Electrons
 Yamaguchi Nd:         2.77
 Head-Gordon Nu:       2.38
 Head-Gordon Nu_nl:    2.19
  
**************************************************
 RAS-CI total energy for state   8:   -151.459296409756
  Excitation energy (eV) =  9.076050310801
  State symmetry: B1    (C2v      )
  <S^2>      :  2.0000
  Dipole Moment:   -0.0000 X    -0.0000 Y    -0.3811 Z
  Trans. Moment:   -0.0025 X     0.1082 Y     0.0000 Z
  Strength   :  0.002607
  Natural transition orbitals ( 1 -> 8 ):
   e-/hole pair  1 alpha:  ampl =  0.924003 ( 85.4%)   [8 : 9]
   e-/hole pair  2 alpha:  ampl =  0.038444 (  0.1%)   [7 : 10]
   e-/hole pair  1 beta :  ampl =  0.142087 (  2.0%)   [8 : 9]
   e-/hole pair  2 beta :  ampl =  0.035278 (  0.1%)   [7 : 10]
   Sum of square amplitudes: 0.88

 NATURAL OCCUPATION NUMBERS (higher than 1.0E-05)
            1           2           3           4           5           6
    1   1.9999999   1.9999994   1.9987836   1.9893324   1.9711879   1.9500333
            7           8           9          10
    1   1.8691886   1.0281902   1.0028641   0.1904206

  Amplitudes : 
  
 | HOLE  | ALPHA    | BETA     | PART  |    AMPLITUDE 
--------------------------------------------------
 |       | 11111110 | 11110010 |       |    -1.2679406070409E-01
 |       | 11111101 | 11111000 |       |    -8.4415421088060E-01
 |       | 11111101 | 11101010 |       |     2.4110301257882E-01
 |       | 11111101 | 11011100 |       |    -1.4594523364800E-01
 |       | 11101111 | 11111000 |       |    -3.5207734730423E-01
 |       | 11101111 | 11101010 |       |    -1.0052329286151E-01
--------------------------------------------------
*** Contributions RASCI wfn    Active: 100.00
                                 Hole:   0.00
                                 Part:   0.00

      Mulliken population analysis 
 ---------------------------------------------------
   Atom    Charge (a.u.)   Spin (a.u.)  
 ---------------------------------------------------
   1  N   -0.068562        1.606035 
   2  F    0.068562        0.393965 
 ---------------------------------------------------
   Sum:   -0.000000        2.000000 
 ---------------------------------------------------
 
  
 NATURAL OCCUPATION NUMBERS (higher than 1.0E-05)
            1           2           3           4           5           6
    1   1.9999999   1.9999994   1.9987836   1.9893324   1.9711879   1.9500333
            7           8           9          10
    1   1.8691886   1.0281902   1.0028641   0.1904206
  
*** Unpaired Electrons
 Yamaguchi Nd:         2.77
 Head-Gordon Nu:       2.38
 Head-Gordon Nu_nl:    2.19
  
**************************************************
 RAS-CI total energy for state   9:   -151.442122514286
  Excitation energy (eV) =  9.543375783329
  State symmetry: A2    (C2v      )
  <S^2>      :  2.0000
  Dipole Moment:    0.0000 X     0.0000 Y    -0.9946 Z
  Trans. Moment:    0.0000 X     0.0000 Y     0.3574 Z
  Strength   :  0.029871
  Natural transition orbitals ( 1 -> 9 ):
   e-/hole pair  1 alpha:  ampl =  0.284481 (  8.1%)   [8 : 9]
   e-/hole pair  2 alpha:  ampl =  0.086177 (  0.7%)   [7 : 10]
   e-/hole pair  1 beta :  ampl =  0.601607 ( 36.2%)   [8 : 9]
   e-/hole pair  2 beta :  ampl =  0.601607 ( 36.2%)   [7 : 10]
   Sum of square amplitudes: 0.84

 NATURAL OCCUPATION NUMBERS (higher than 1.0E-05)
            1           2           3           4           5           6
    1   1.9999998   1.9999991   1.9985479   1.9883189   1.8663824   1.6160162
            7           8           9          10
    1   1.6160162   1.3816468   1.3816468   0.1514259

  Amplitudes : 
  
 | HOLE  | ALPHA    | BETA     | PART  |    AMPLITUDE 
--------------------------------------------------
 |       | 11111110 | 11111000 |       |     1.3259800599624E-01
 |       | 11111110 | 11110001 |       |    -1.5458820661051E-01
 |       | 11111110 | 11101010 |       |     6.1487434058068E-01
 |       | 11111110 | 11100011 |       |    -1.4113801223553E-01
 |       | 11111110 | 11011100 |       |    -6.1487434057349E-01
 |       | 11111110 | 11010101 |       |     1.4113801223986E-01
 |       | 11111110 | 11001110 |       |     1.3173747531223E-01
 |       | 11110111 | 11111000 |       |    -2.5561033274546E-01
 |       | 11110111 | 11101010 |       |     1.5332915691506E-01
 |       | 11110111 | 11011100 |       |    -1.5332915692220E-01
--------------------------------------------------
*** Contributions RASCI wfn    Active: 100.00
                                 Hole:   0.00
                                 Part:   0.00

      Mulliken population analysis 
 ---------------------------------------------------
   Atom    Charge (a.u.)   Spin (a.u.)  
 ---------------------------------------------------
   1  N   -0.284283        1.233374 
   2  F    0.284283        0.766626 
 ---------------------------------------------------
   Sum:   -0.000000        2.000000 
 ---------------------------------------------------
 
  
 NATURAL OCCUPATION NUMBERS (higher than 1.0E-05)
            1           2           3           4           5           6
    1   1.9999998   1.9999991   1.9985479   1.9883189   1.8663824   1.6160162
            7           8           9          10
    1   1.6160162   1.3816468   1.3816468   0.1514259
  
*** Unpaired Electrons
 Yamaguchi Nd:         3.51
 Head-Gordon Nu:       2.30
 Head-Gordon Nu_nl:    2.37
  
**************************************************
 RAS-CI total energy for state  10:   -151.260864289892
  Excitation energy (eV) = 14.475663016014
  State symmetry: B2    (C2v      )
  <S^2>      :  2.0000
  Dipole Moment:    0.0000 X     0.0000 Y    -0.8008 Z
  Trans. Moment:   -0.0528 X    -0.0012 Y    -0.0000 Z
  Strength   :  0.000989
  Natural transition orbitals ( 1 -> 10 ):
   e-/hole pair  1 alpha:  ampl =  0.652326 ( 42.6%)   [8 : 9]
   e-/hole pair  2 alpha:  ampl =  0.054259 (  0.3%)   [7 : 10]
   e-/hole pair  1 beta :  ampl =  0.170330 (  2.9%)   [8 : 9]
   e-/hole pair  2 beta :  ampl =  0.136252 (  1.9%)   [7 : 10]
   Sum of square amplitudes: 0.48

 NATURAL OCCUPATION NUMBERS (higher than 1.0E-05)
            1           2           3           4           5           6
    1   1.9999999   1.9999994   1.9987429   1.9778153   1.9711333   1.7763219
            7           8           9          10
    1   1.3380319   1.2040026   0.9949483   0.7390045

  Amplitudes : 
  
 | HOLE  | ALPHA    | BETA     | PART  |    AMPLITUDE 
--------------------------------------------------
 |       | 11111110 | 11011001 |       |     1.7406998265747E-01
 |       | 11111110 | 10111100 |       |     1.3462660183166E-01
 |       | 11111101 | 11011010 |       |    -4.9544274668229E-01
 |       | 11111011 | 11111000 |       |    -2.1213282567489E-01
 |       | 11111011 | 11101010 |       |     4.4494934063908E-01
 |       | 11011111 | 11111000 |       |     6.2249136490547E-01
 |       | 11011111 | 11110001 |       |     1.0539977470333E-01
--------------------------------------------------
*** Contributions RASCI wfn    Active: 100.00
                                 Hole:   0.00
                                 Part:   0.00

      Mulliken population analysis 
 ---------------------------------------------------
   Atom    Charge (a.u.)   Spin (a.u.)  
 ---------------------------------------------------
   1  N   -0.204788        1.512988 
   2  F    0.204788        0.487012 
 ---------------------------------------------------
   Sum:   -0.000000        2.000000 
 ---------------------------------------------------
 
  
 NATURAL OCCUPATION NUMBERS (higher than 1.0E-05)
            1           2           3           4           5           6
    1   1.9999999   1.9999994   1.9987429   1.9778153   1.9711333   1.7763219
            7           8           9          10
    1   1.3380319   1.2040026   0.9949483   0.7390045
  
*** Unpaired Electrons
 Yamaguchi Nd:         4.28
 Head-Gordon Nu:       3.47
 Head-Gordon Nu_nl:    3.73
  
--------------------------------------------------
 Interstate Transition Properties
--------------------------------------------------
State A: Root  1
State B: Root  2
  
Angular momentum components
< B | Lx | A > =     0.024231985i
< B | Ly | A > =    -1.048245547i
< B | Lz | A > =     0.000000000i
  
Norm of one-particle transition density matrix
||gamma^AB||_total       =  0.967388
||gamma^AB||_symmetrized =  0.684685
||gamma^AB||_anti-symm   =  0.683408
  
Spin-orbit couplings
 Using HF (reference) density for the 2-elec mean-field SOC contribution
KET: S',Sz' (Root   1) =  1.000 1.000
BRA: S ,Sz  (Root   2) =  1.000 1.000
Clebsh-Gordan coefficient: < 1.000, 1.000; 1.000, 0.000| 1.000, 1.000> =  0.707
 Computing 1e-SO integrals
 1e Reduced matrix elements (cm-1)
<S|| Hso(L-) ||S'> =   -57.7741732213     1.3355486245
<S|| Hso(L0) ||S'> =     0.0000000000    -0.0000000000
<S|| Hso(L+) ||S'> =   -57.7741732213    -1.3355486245
 1-elec SOC matrix (cm-1): < B(S,Sz) | Hso(1e) | A(S',Sz') >
                     |Sz'=-1.00>              |Sz'= 0.00>              |Sz'= 1.00>
 <Sz=-1.00|    0.000000    0.000000i   -40.852510   -0.944375i    -0.000000   -0.000000i
 <Sz= 0.00|   40.852510   -0.944375i     0.000000    0.000000i   -40.852510   -0.944375i
 <Sz= 1.00|   -0.000000    0.000000i    40.852510   -0.944375i     0.000000   -0.000000i
1-elec SOCC =    81.726847260 cm-1
 Computing 2e-SOMF integrals
 Averagin spin alpha/beta reference densities
 2e-SOMF Reduced matrix elements (cm-1)
<S|| Hso(L-) ||S'> =    23.5712499719    -0.5448896751
<S|| Hso(L0) ||S'> =     0.0000000000     0.0000000000
<S|| Hso(L+) ||S'> =    23.5712499719     0.5448896751
 2-elec mean-field SOC matrix (cm-1): < B(S,Sz) | Hso(2e-mf) | A(S',Sz') >
                     |Sz'=-1.00>              |Sz'= 0.00>              |Sz'= 1.00>
 <Sz=-1.00|   -0.000000   -0.000000i    16.667391    0.385295i     0.000000    0.000000i
 <Sz= 0.00|  -16.667391    0.385295i    -0.000000   -0.000000i    16.667391    0.385295i
 <Sz= 1.00|    0.000000   -0.000000i   -16.667391    0.385295i    -0.000000    0.000000i
 Total mean-field SOC matrix (cm-1): < B(S,Sz) | Hsomf | A(S',Sz') >
                     |Sz'=-1.00>              |Sz'= 0.00>              |Sz'= 1.00>
 <Sz=-1.00|    0.000000    0.000000i   -24.185119   -0.559080i    -0.000000   -0.000000i
 <Sz= 0.00|   24.185119   -0.559080i     0.000000    0.000000i   -24.185119   -0.559080i
 <Sz= 1.00|   -0.000000    0.000000i    24.185119   -0.559080i     0.000000   -0.000000i
Mean-Field SOCC =    48.383160302 cm-1
   
**************************************************
State A: Root  1
State B: Root  3
  
Angular momentum components
< B | Lx | A > =    -1.048245974i
< B | Ly | A > =    -0.024231995i
< B | Lz | A > =    -0.000000000i
  
Norm of one-particle transition density matrix
||gamma^AB||_total       =  0.967388
||gamma^AB||_symmetrized =  0.684685
||gamma^AB||_anti-symm   =  0.683408
  
Spin-orbit couplings
 Using HF (reference) density for the 2-elec mean-field SOC contribution
KET: S',Sz' (Root   1) =  1.000 1.000
BRA: S ,Sz  (Root   3) =  1.000 1.000
Clebsh-Gordan coefficient: < 1.000, 1.000; 1.000, 0.000| 1.000, 1.000> =  0.707
 Reading 1e-SO integrals
 1e Reduced matrix elements (cm-1)
<S|| Hso(L-) ||S'> =    -1.3355494007   -57.7742068112
<S|| Hso(L0) ||S'> =     0.0000000000    -0.0000000000
<S|| Hso(L+) ||S'> =    -1.3355494007    57.7742068112
 1-elec SOC matrix (cm-1): < B(S,Sz) | Hso(1e) | A(S',Sz') >
                     |Sz'=-1.00>              |Sz'= 0.00>              |Sz'= 1.00>
 <Sz=-1.00|    0.000000    0.000000i    -0.944376   40.852533i    -0.000000    0.000000i
 <Sz= 0.00|    0.944376   40.852533i     0.000000   -0.000000i    -0.944376   40.852533i
 <Sz= 1.00|   -0.000000   -0.000000i     0.944376   40.852533i     0.000000   -0.000000i
1-elec SOCC =    81.726894776 cm-1
 Reading 2e-SOMF integrals
 2e-SOMF Reduced matrix elements (cm-1)
<S|| Hso(L-) ||S'> =     0.5448899422    23.5712615307
<S|| Hso(L0) ||S'> =     0.0000000000     0.0000000000
<S|| Hso(L+) ||S'> =     0.5448899422   -23.5712615307
 2-elec mean-field SOC matrix (cm-1): < B(S,Sz) | Hso(2e-mf) | A(S',Sz') >
                     |Sz'=-1.00>              |Sz'= 0.00>              |Sz'= 1.00>
 <Sz=-1.00|   -0.000000   -0.000000i     0.385295  -16.667399i     0.000000   -0.000000i
 <Sz= 0.00|   -0.385295  -16.667399i    -0.000000    0.000000i     0.385295  -16.667399i
 <Sz= 1.00|    0.000000    0.000000i    -0.385295  -16.667399i    -0.000000    0.000000i
 Total mean-field SOC matrix (cm-1): < B(S,Sz) | Hsomf | A(S',Sz') >
                     |Sz'=-1.00>              |Sz'= 0.00>              |Sz'= 1.00>
 <Sz=-1.00|    0.000000    0.000000i    -0.559081   24.185135i    -0.000000    0.000000i
 <Sz= 0.00|    0.559081   24.185135i     0.000000   -0.000000i    -0.559081   24.185135i
 <Sz= 1.00|   -0.000000   -0.000000i     0.559081   24.185135i     0.000000   -0.000000i
Mean-Field SOCC =    48.383191466 cm-1
   
**************************************************
State A: Root  1
State B: Root  4
  
Angular momentum components
< B | Lx | A > =    -0.000000000i
< B | Ly | A > =     0.000000000i
< B | Lz | A > =    -0.000000000i
  
Norm of one-particle transition density matrix
||gamma^AB||_total       =  0.921818
||gamma^AB||_symmetrized =  0.690688
||gamma^AB||_anti-symm   =  0.610491
  
Spin-orbit couplings
 Using HF (reference) density for the 2-elec mean-field SOC contribution
KET: S',Sz' (Root   1) =  1.000 1.000
BRA: S ,Sz  (Root   4) =  1.000 1.000
Clebsh-Gordan coefficient: < 1.000, 1.000; 1.000, 0.000| 1.000, 1.000> =  0.707
 Reading 1e-SO integrals
 1e Reduced matrix elements (cm-1)
<S|| Hso(L-) ||S'> =    -0.0000000008     0.0000000000
<S|| Hso(L0) ||S'> =     0.0000000000    -0.0000000004
<S|| Hso(L+) ||S'> =    -0.0000000008    -0.0000000000
 1-elec SOC matrix (cm-1): < B(S,Sz) | Hso(1e) | A(S',Sz') >
                     |Sz'=-1.00>              |Sz'= 0.00>              |Sz'= 1.00>
 <Sz=-1.00|    0.000000    0.000000i    -0.000000   -0.000000i    -0.000000   -0.000000i
 <Sz= 0.00|    0.000000   -0.000000i     0.000000    0.000000i    -0.000000   -0.000000i
 <Sz= 1.00|   -0.000000   -0.000000i     0.000000   -0.000000i     0.000000   -0.000000i
1-elec SOCC =     0.000000001 cm-1
 Reading 2e-SOMF integrals
 2e-SOMF Reduced matrix elements (cm-1)
<S|| Hso(L-) ||S'> =     0.0000000003    -0.0000000000
<S|| Hso(L0) ||S'> =     0.0000000000     0.0000000001
<S|| Hso(L+) ||S'> =     0.0000000003     0.0000000000
 2-elec mean-field SOC matrix (cm-1): < B(S,Sz) | Hso(2e-mf) | A(S',Sz') >
                     |Sz'=-1.00>              |Sz'= 0.00>              |Sz'= 1.00>
 <Sz=-1.00|   -0.000000   -0.000000i     0.000000    0.000000i     0.000000    0.000000i
 <Sz= 0.00|   -0.000000    0.000000i    -0.000000   -0.000000i     0.000000    0.000000i
 <Sz= 1.00|    0.000000    0.000000i    -0.000000    0.000000i    -0.000000    0.000000i
 Total mean-field SOC matrix (cm-1): < B(S,Sz) | Hsomf | A(S',Sz') >
                     |Sz'=-1.00>              |Sz'= 0.00>              |Sz'= 1.00>
 <Sz=-1.00|    0.000000    0.000000i    -0.000000   -0.000000i    -0.000000   -0.000000i
 <Sz= 0.00|    0.000000   -0.000000i     0.000000    0.000000i    -0.000000   -0.000000i
 <Sz= 1.00|   -0.000000   -0.000000i     0.000000   -0.000000i     0.000000   -0.000000i
Mean-Field SOCC =     0.000000001 cm-1
   
**************************************************
State A: Root  1
State B: Root  5
  
Angular momentum components
< B | Lx | A > =    -0.000000000i
< B | Ly | A > =    -0.000000000i
< B | Lz | A > =    -0.000000000i
  
Norm of one-particle transition density matrix
||gamma^AB||_total       =  0.921818
||gamma^AB||_symmetrized =  0.690688
||gamma^AB||_anti-symm   =  0.610491
  
Spin-orbit couplings
 Using HF (reference) density for the 2-elec mean-field SOC contribution
KET: S',Sz' (Root   1) =  1.000 1.000
BRA: S ,Sz  (Root   5) =  1.000 1.000
Clebsh-Gordan coefficient: < 1.000, 1.000; 1.000, 0.000| 1.000, 1.000> =  0.707
 Reading 1e-SO integrals
 1e Reduced matrix elements (cm-1)
<S|| Hso(L-) ||S'> =     0.0000000000    -0.0000000000
<S|| Hso(L0) ||S'> =     0.0000000000     0.0000000000
<S|| Hso(L+) ||S'> =     0.0000000000     0.0000000000
 1-elec SOC matrix (cm-1): < B(S,Sz) | Hso(1e) | A(S',Sz') >
                     |Sz'=-1.00>              |Sz'= 0.00>              |Sz'= 1.00>
 <Sz=-1.00|   -0.000000   -0.000000i     0.000000    0.000000i     0.000000    0.000000i
 <Sz= 0.00|   -0.000000    0.000000i    -0.000000   -0.000000i     0.000000    0.000000i
 <Sz= 1.00|    0.000000    0.000000i    -0.000000    0.000000i    -0.000000    0.000000i
1-elec SOCC =     0.000000000 cm-1
 Reading 2e-SOMF integrals
 2e-SOMF Reduced matrix elements (cm-1)
<S|| Hso(L-) ||S'> =    -0.0000000000     0.0000000000
<S|| Hso(L0) ||S'> =     0.0000000000    -0.0000000000
<S|| Hso(L+) ||S'> =    -0.0000000000    -0.0000000000
 2-elec mean-field SOC matrix (cm-1): < B(S,Sz) | Hso(2e-mf) | A(S',Sz') >
                     |Sz'=-1.00>              |Sz'= 0.00>              |Sz'= 1.00>
 <Sz=-1.00|    0.000000    0.000000i    -0.000000   -0.000000i    -0.000000   -0.000000i
 <Sz= 0.00|    0.000000   -0.000000i     0.000000    0.000000i    -0.000000   -0.000000i
 <Sz= 1.00|   -0.000000   -0.000000i     0.000000   -0.000000i     0.000000   -0.000000i
 Total mean-field SOC matrix (cm-1): < B(S,Sz) | Hsomf | A(S',Sz') >
                     |Sz'=-1.00>              |Sz'= 0.00>              |Sz'= 1.00>
 <Sz=-1.00|   -0.000000   -0.000000i     0.000000    0.000000i     0.000000    0.000000i
 <Sz= 0.00|   -0.000000    0.000000i    -0.000000   -0.000000i     0.000000    0.000000i
 <Sz= 1.00|    0.000000    0.000000i    -0.000000    0.000000i    -0.000000    0.000000i
Mean-Field SOCC =     0.000000000 cm-1
   
**************************************************
State A: Root  1
State B: Root  6
  
Angular momentum components
< B | Lx | A > =    -0.000000000i
< B | Ly | A > =    -0.000000000i
< B | Lz | A > =    -0.000000000i
  
Norm of one-particle transition density matrix
||gamma^AB||_total       =  0.921594
||gamma^AB||_symmetrized =  0.610334
||gamma^AB||_anti-symm   =  0.690526
  
Spin-orbit couplings
 Using HF (reference) density for the 2-elec mean-field SOC contribution
KET: S',Sz' (Root   1) =  1.000 1.000
BRA: S ,Sz  (Root   6) =  1.000 1.000
Clebsh-Gordan coefficient: < 1.000, 1.000; 1.000, 0.000| 1.000, 1.000> =  0.707
 Reading 1e-SO integrals
 1e Reduced matrix elements (cm-1)
<S|| Hso(L-) ||S'> =     0.0000000000    -0.0000000000
<S|| Hso(L0) ||S'> =     0.0000000000   -70.6676122560
<S|| Hso(L+) ||S'> =     0.0000000000     0.0000000000
 1-elec SOC matrix (cm-1): < B(S,Sz) | Hso(1e) | A(S',Sz') >
                     |Sz'=-1.00>              |Sz'= 0.00>              |Sz'= 1.00>
 <Sz=-1.00|   -0.000000   49.969548i     0.000000    0.000000i     0.000000   -0.000000i
 <Sz= 0.00|   -0.000000    0.000000i    -0.000000   -0.000000i     0.000000    0.000000i
 <Sz= 1.00|    0.000000   -0.000000i    -0.000000    0.000000i    -0.000000  -49.969548i
1-elec SOCC =    70.667612256 cm-1
 Reading 2e-SOMF integrals
 2e-SOMF Reduced matrix elements (cm-1)
<S|| Hso(L-) ||S'> =    -0.0000000000     0.0000000000
<S|| Hso(L0) ||S'> =     0.0000000000    20.4707568694
<S|| Hso(L+) ||S'> =    -0.0000000000    -0.0000000000
 2-elec mean-field SOC matrix (cm-1): < B(S,Sz) | Hso(2e-mf) | A(S',Sz') >
                     |Sz'=-1.00>              |Sz'= 0.00>              |Sz'= 1.00>
 <Sz=-1.00|    0.000000  -14.475011i    -0.000000   -0.000000i    -0.000000    0.000000i
 <Sz= 0.00|    0.000000   -0.000000i     0.000000    0.000000i    -0.000000   -0.000000i
 <Sz= 1.00|   -0.000000    0.000000i     0.000000   -0.000000i     0.000000   14.475011i
 Total mean-field SOC matrix (cm-1): < B(S,Sz) | Hsomf | A(S',Sz') >
                     |Sz'=-1.00>              |Sz'= 0.00>              |Sz'= 1.00>
 <Sz=-1.00|   -0.000000   35.494537i     0.000000    0.000000i     0.000000   -0.000000i
 <Sz= 0.00|   -0.000000    0.000000i    -0.000000   -0.000000i     0.000000    0.000000i
 <Sz= 1.00|    0.000000   -0.000000i    -0.000000    0.000000i    -0.000000  -35.494537i
Mean-Field SOCC =    50.196855387 cm-1
   
**************************************************
State A: Root  1
State B: Root  7
  
Angular momentum components
< B | Lx | A > =    -0.008430735i
< B | Ly | A > =     0.365247711i
< B | Lz | A > =    -0.000000000i
  
Norm of one-particle transition density matrix
||gamma^AB||_total       =  0.936771
||gamma^AB||_symmetrized =  0.666384
||gamma^AB||_anti-symm   =  0.658387
  
Spin-orbit couplings
 Using HF (reference) density for the 2-elec mean-field SOC contribution
KET: S',Sz' (Root   1) =  1.000 1.000
BRA: S ,Sz  (Root   7) =  1.000 1.000
Clebsh-Gordan coefficient: < 1.000, 1.000; 1.000, 0.000| 1.000, 1.000> =  0.707
 Reading 1e-SO integrals
 1e Reduced matrix elements (cm-1)
<S|| Hso(L-) ||S'> =    34.6444057001    -0.7996704502
<S|| Hso(L0) ||S'> =     0.0000000000    -0.0000000000
<S|| Hso(L+) ||S'> =    34.6444057001     0.7996704502
 1-elec SOC matrix (cm-1): < B(S,Sz) | Hso(1e) | A(S',Sz') >
                     |Sz'=-1.00>              |Sz'= 0.00>              |Sz'= 1.00>
 <Sz=-1.00|   -0.000000    0.000000i    24.497294    0.565452i     0.000000    0.000000i
 <Sz= 0.00|  -24.497294    0.565452i    -0.000000   -0.000000i    24.497294    0.565452i
 <Sz= 1.00|    0.000000   -0.000000i   -24.497294    0.565452i    -0.000000   -0.000000i
1-elec SOCC =    49.007638571 cm-1
 Reading 2e-SOMF integrals
 2e-SOMF Reduced matrix elements (cm-1)
<S|| Hso(L-) ||S'> =    -9.9548505800     0.2297802395
<S|| Hso(L0) ||S'> =     0.0000000000     0.0000000000
<S|| Hso(L+) ||S'> =    -9.9548505800    -0.2297802395
 2-elec mean-field SOC matrix (cm-1): < B(S,Sz) | Hso(2e-mf) | A(S',Sz') >
                     |Sz'=-1.00>              |Sz'= 0.00>              |Sz'= 1.00>
 <Sz=-1.00|    0.000000   -0.000000i    -7.039142   -0.162479i    -0.000000   -0.000000i
 <Sz= 0.00|    7.039142   -0.162479i     0.000000    0.000000i    -7.039142   -0.162479i
 <Sz= 1.00|   -0.000000    0.000000i     7.039142   -0.162479i     0.000000    0.000000i
 Total mean-field SOC matrix (cm-1): < B(S,Sz) | Hsomf | A(S',Sz') >
                     |Sz'=-1.00>              |Sz'= 0.00>              |Sz'= 1.00>
 <Sz=-1.00|   -0.000000    0.000000i    17.458152    0.402973i     0.000000    0.000000i
 <Sz= 0.00|  -17.458152    0.402973i    -0.000000   -0.000000i    17.458152    0.402973i
 <Sz= 1.00|    0.000000   -0.000000i   -17.458152    0.402973i    -0.000000   -0.000000i
Mean-Field SOCC =    34.925603986 cm-1
   
**************************************************
State A: Root  1
State B: Root  8
  
Angular momentum components
< B | Lx | A > =     0.365252764i
< B | Ly | A > =     0.008430852i
< B | Lz | A > =     0.000000000i
  
Norm of one-particle transition density matrix
||gamma^AB||_total       =  0.936771
||gamma^AB||_symmetrized =  0.666383
||gamma^AB||_anti-symm   =  0.658387
  
Spin-orbit couplings
 Using HF (reference) density for the 2-elec mean-field SOC contribution
KET: S',Sz' (Root   1) =  1.000 1.000
BRA: S ,Sz  (Root   8) =  1.000 1.000
Clebsh-Gordan coefficient: < 1.000, 1.000; 1.000, 0.000| 1.000, 1.000> =  0.707
 Reading 1e-SO integrals
 1e Reduced matrix elements (cm-1)
<S|| Hso(L-) ||S'> =     0.7996729903    34.6445154625
<S|| Hso(L0) ||S'> =     0.0000000000    -0.0000000000
<S|| Hso(L+) ||S'> =     0.7996729903   -34.6445154625
 1-elec SOC matrix (cm-1): < B(S,Sz) | Hso(1e) | A(S',Sz') >
                     |Sz'=-1.00>              |Sz'= 0.00>              |Sz'= 1.00>
 <Sz=-1.00|   -0.000000    0.000000i     0.565454  -24.497372i     0.000000   -0.000000i
 <Sz= 0.00|   -0.565454  -24.497372i    -0.000000    0.000000i     0.565454  -24.497372i
 <Sz= 1.00|    0.000000    0.000000i    -0.565454  -24.497372i    -0.000000   -0.000000i
1-elec SOCC =    49.007793840 cm-1
 Reading 2e-SOMF integrals
 2e-SOMF Reduced matrix elements (cm-1)
<S|| Hso(L-) ||S'> =    -0.2297810900    -9.9548873313
<S|| Hso(L0) ||S'> =     0.0000000000     0.0000000000
<S|| Hso(L+) ||S'> =    -0.2297810900     9.9548873313
 2-elec mean-field SOC matrix (cm-1): < B(S,Sz) | Hso(2e-mf) | A(S',Sz') >
                     |Sz'=-1.00>              |Sz'= 0.00>              |Sz'= 1.00>
 <Sz=-1.00|    0.000000   -0.000000i    -0.162480    7.039168i    -0.000000    0.000000i
 <Sz= 0.00|    0.162480    7.039168i     0.000000   -0.000000i    -0.162480    7.039168i
 <Sz= 1.00|   -0.000000   -0.000000i     0.162480    7.039168i     0.000000    0.000000i
 Total mean-field SOC matrix (cm-1): < B(S,Sz) | Hsomf | A(S',Sz') >
                     |Sz'=-1.00>              |Sz'= 0.00>              |Sz'= 1.00>
 <Sz=-1.00|   -0.000000    0.000000i     0.402974  -17.458203i     0.000000   -0.000000i
 <Sz= 0.00|   -0.402974  -17.458203i    -0.000000    0.000000i     0.402974  -17.458203i
 <Sz= 1.00|    0.000000    0.000000i    -0.402974  -17.458203i    -0.000000   -0.000000i
Mean-Field SOCC =    34.925707267 cm-1
   
**************************************************
State A: Root  1
State B: Root  9
  
Angular momentum components
< B | Lx | A > =     0.000000000i
< B | Ly | A > =    -0.000000000i
< B | Lz | A > =    -0.000000000i
  
Norm of one-particle transition density matrix
||gamma^AB||_total       =  0.918830
||gamma^AB||_symmetrized =  0.675410
||gamma^AB||_anti-symm   =  0.622953
  
Spin-orbit couplings
 Using HF (reference) density for the 2-elec mean-field SOC contribution
KET: S',Sz' (Root   1) =  1.000 1.000
BRA: S ,Sz  (Root   9) =  1.000 1.000
Clebsh-Gordan coefficient: < 1.000, 1.000; 1.000, 0.000| 1.000, 1.000> =  0.707
 Reading 1e-SO integrals
 1e Reduced matrix elements (cm-1)
<S|| Hso(L-) ||S'> =    -0.0000000000    -0.0000000000
<S|| Hso(L0) ||S'> =     0.0000000000     0.0000000000
<S|| Hso(L+) ||S'> =    -0.0000000000     0.0000000000
 1-elec SOC matrix (cm-1): < B(S,Sz) | Hso(1e) | A(S',Sz') >
                     |Sz'=-1.00>              |Sz'= 0.00>              |Sz'= 1.00>
 <Sz=-1.00|    0.000000   -0.000000i    -0.000000    0.000000i    -0.000000    0.000000i
 <Sz= 0.00|    0.000000    0.000000i     0.000000   -0.000000i    -0.000000    0.000000i
 <Sz= 1.00|   -0.000000   -0.000000i     0.000000    0.000000i     0.000000    0.000000i
1-elec SOCC =     0.000000000 cm-1
 Reading 2e-SOMF integrals
 2e-SOMF Reduced matrix elements (cm-1)
<S|| Hso(L-) ||S'> =     0.0000000000     0.0000000000
<S|| Hso(L0) ||S'> =     0.0000000000    -0.0000000000
<S|| Hso(L+) ||S'> =     0.0000000000    -0.0000000000
 2-elec mean-field SOC matrix (cm-1): < B(S,Sz) | Hso(2e-mf) | A(S',Sz') >
                     |Sz'=-1.00>              |Sz'= 0.00>              |Sz'= 1.00>
 <Sz=-1.00|   -0.000000    0.000000i     0.000000   -0.000000i     0.000000   -0.000000i
 <Sz= 0.00|   -0.000000   -0.000000i    -0.000000    0.000000i     0.000000   -0.000000i
 <Sz= 1.00|    0.000000    0.000000i    -0.000000   -0.000000i    -0.000000   -0.000000i
 Total mean-field SOC matrix (cm-1): < B(S,Sz) | Hsomf | A(S',Sz') >
                     |Sz'=-1.00>              |Sz'= 0.00>              |Sz'= 1.00>
 <Sz=-1.00|    0.000000   -0.000000i    -0.000000    0.000000i    -0.000000    0.000000i
 <Sz= 0.00|    0.000000    0.000000i     0.000000   -0.000000i    -0.000000    0.000000i
 <Sz= 1.00|   -0.000000   -0.000000i     0.000000    0.000000i     0.000000    0.000000i
Mean-Field SOCC =     0.000000000 cm-1
   
**************************************************
State A: Root  1
State B: Root 10
  
Angular momentum components
< B | Lx | A > =     0.014368760i
< B | Ly | A > =    -0.621700946i
< B | Lz | A > =     0.000000000i
  
Norm of one-particle transition density matrix
||gamma^AB||_total       =  0.690218
||gamma^AB||_symmetrized =  0.485944
||gamma^AB||_anti-symm   =  0.490162
  
Spin-orbit couplings
 Using HF (reference) density for the 2-elec mean-field SOC contribution
KET: S',Sz' (Root   1) =  1.000 1.000
BRA: S ,Sz  (Root  10) =  1.000 1.000
Clebsh-Gordan coefficient: < 1.000, 1.000; 1.000, 0.000| 1.000, 1.000> =  0.707
 Reading 1e-SO integrals
 1e Reduced matrix elements (cm-1)
<S|| Hso(L-) ||S'> =    44.7246053039    -1.0336756295
<S|| Hso(L0) ||S'> =     0.0000000000     0.0000000000
<S|| Hso(L+) ||S'> =    44.7246053039     1.0336756295
 1-elec SOC matrix (cm-1): < B(S,Sz) | Hso(1e) | A(S',Sz') >
                     |Sz'=-1.00>              |Sz'= 0.00>              |Sz'= 1.00>
 <Sz=-1.00|   -0.000000    0.000000i    31.625072    0.730919i     0.000000    0.000000i
 <Sz= 0.00|  -31.625072    0.730919i    -0.000000   -0.000000i    31.625072    0.730919i
 <Sz= 1.00|    0.000000   -0.000000i   -31.625072    0.730919i    -0.000000    0.000000i
1-elec SOCC =    63.267034147 cm-1
 Reading 2e-SOMF integrals
 2e-SOMF Reduced matrix elements (cm-1)
<S|| Hso(L-) ||S'> =   -16.4128813276     0.3793347157
<S|| Hso(L0) ||S'> =     0.0000000000     0.0000000000
<S|| Hso(L+) ||S'> =   -16.4128813276    -0.3793347157
 2-elec mean-field SOC matrix (cm-1): < B(S,Sz) | Hso(2e-mf) | A(S',Sz') >
                     |Sz'=-1.00>              |Sz'= 0.00>              |Sz'= 1.00>
 <Sz=-1.00|    0.000000   -0.000000i   -11.605660   -0.268230i    -0.000000   -0.000000i
 <Sz= 0.00|   11.605660   -0.268230i     0.000000    0.000000i   -11.605660   -0.268230i
 <Sz= 1.00|   -0.000000    0.000000i    11.605660   -0.268230i     0.000000    0.000000i
 Total mean-field SOC matrix (cm-1): < B(S,Sz) | Hsomf | A(S',Sz') >
                     |Sz'=-1.00>              |Sz'= 0.00>              |Sz'= 1.00>
 <Sz=-1.00|   -0.000000   -0.000000i    20.019412    0.462689i     0.000000    0.000000i
 <Sz= 0.00|  -20.019412    0.462689i    -0.000000   -0.000000i    20.019412    0.462689i
 <Sz= 1.00|    0.000000   -0.000000i   -20.019412    0.462689i    -0.000000    0.000000i
Mean-Field SOCC =    40.049516265 cm-1
   
**************************************************
State A: Root  2
State B: Root  1
  
Angular momentum components
< B | Lx | A > =    -0.024231985i
< B | Ly | A > =     1.048245547i
< B | Lz | A > =    -0.000000000i
  
Norm of one-particle transition density matrix
||gamma^AB||_total       =  0.967388
||gamma^AB||_symmetrized =  0.684685
||gamma^AB||_anti-symm   =  0.683408
  
Spin-orbit couplings
 Using HF (reference) density for the 2-elec mean-field SOC contribution
KET: S',Sz' (Root   2) =  1.000 1.000
BRA: S ,Sz  (Root   1) =  1.000 1.000
Clebsh-Gordan coefficient: < 1.000, 1.000; 1.000, 0.000| 1.000, 1.000> =  0.707
 Reading 1e-SO integrals
 1e Reduced matrix elements (cm-1)
<S|| Hso(L-) ||S'> =    57.7741732213    -1.3355486245
<S|| Hso(L0) ||S'> =     0.0000000000     0.0000000000
<S|| Hso(L+) ||S'> =    57.7741732213     1.3355486245
 1-elec SOC matrix (cm-1): < B(S,Sz) | Hso(1e) | A(S',Sz') >
                     |Sz'=-1.00>              |Sz'= 0.00>              |Sz'= 1.00>
 <Sz=-1.00|   -0.000000   -0.000000i    40.852510    0.944375i     0.000000    0.000000i
 <Sz= 0.00|  -40.852510    0.944375i    -0.000000   -0.000000i    40.852510    0.944375i
 <Sz= 1.00|    0.000000   -0.000000i   -40.852510    0.944375i    -0.000000    0.000000i
1-elec SOCC =    81.726847260 cm-1
 Reading 2e-SOMF integrals
 2e-SOMF Reduced matrix elements (cm-1)
<S|| Hso(L-) ||S'> =   -23.5712499719     0.5448896751
<S|| Hso(L0) ||S'> =     0.0000000000    -0.0000000000
<S|| Hso(L+) ||S'> =   -23.5712499719    -0.5448896751
 2-elec mean-field SOC matrix (cm-1): < B(S,Sz) | Hso(2e-mf) | A(S',Sz') >
                     |Sz'=-1.00>              |Sz'= 0.00>              |Sz'= 1.00>
 <Sz=-1.00|    0.000000    0.000000i   -16.667391   -0.385295i    -0.000000   -0.000000i
 <Sz= 0.00|   16.667391   -0.385295i     0.000000    0.000000i   -16.667391   -0.385295i
 <Sz= 1.00|   -0.000000    0.000000i    16.667391   -0.385295i     0.000000   -0.000000i
 Total mean-field SOC matrix (cm-1): < B(S,Sz) | Hsomf | A(S',Sz') >
                     |Sz'=-1.00>              |Sz'= 0.00>              |Sz'= 1.00>
 <Sz=-1.00|   -0.000000   -0.000000i    24.185119    0.559080i     0.000000    0.000000i
 <Sz= 0.00|  -24.185119    0.559080i    -0.000000   -0.000000i    24.185119    0.559080i
 <Sz= 1.00|    0.000000   -0.000000i   -24.185119    0.559080i    -0.000000    0.000000i
Mean-Field SOCC =    48.383160302 cm-1
   
**************************************************
State A: Root  2
State B: Root  3
  
Angular momentum components
< B | Lx | A > =     0.000000000i
< B | Ly | A > =     0.000000000i
< B | Lz | A > =    -1.000000000i
  
Norm of one-particle transition density matrix
||gamma^AB||_total       =  0.977304
||gamma^AB||_symmetrized =  0.691379
||gamma^AB||_anti-symm   =  0.690737
  
Spin-orbit couplings
 Using HF (reference) density for the 2-elec mean-field SOC contribution
KET: S',Sz' (Root   2) =  1.000 1.000
BRA: S ,Sz  (Root   3) =  1.000 1.000
Clebsh-Gordan coefficient: < 1.000, 1.000; 1.000, 0.000| 1.000, 1.000> =  0.707
 Reading 1e-SO integrals
 1e Reduced matrix elements (cm-1)
<S|| Hso(L-) ||S'> =    -0.0000000000     0.0000000000
<S|| Hso(L0) ||S'> =     0.0000000000    80.6207033542
<S|| Hso(L+) ||S'> =    -0.0000000000    -0.0000000000
 1-elec SOC matrix (cm-1): < B(S,Sz) | Hso(1e) | A(S',Sz') >
                     |Sz'=-1.00>              |Sz'= 0.00>              |Sz'= 1.00>
 <Sz=-1.00|    0.000000  -57.007446i    -0.000000   -0.000000i    -0.000000    0.000000i
 <Sz= 0.00|    0.000000    0.000000i     0.000000    0.000000i    -0.000000   -0.000000i
 <Sz= 1.00|   -0.000000    0.000000i     0.000000   -0.000000i     0.000000   57.007446i
1-elec SOCC =    80.620703354 cm-1
 Reading 2e-SOMF integrals
 2e-SOMF Reduced matrix elements (cm-1)
<S|| Hso(L-) ||S'> =     0.0000000000    -0.0000000000
<S|| Hso(L0) ||S'> =     0.0000000000   -34.6066542242
<S|| Hso(L+) ||S'> =     0.0000000000     0.0000000000
 2-elec mean-field SOC matrix (cm-1): < B(S,Sz) | Hso(2e-mf) | A(S',Sz') >
                     |Sz'=-1.00>              |Sz'= 0.00>              |Sz'= 1.00>
 <Sz=-1.00|   -0.000000   24.470600i     0.000000    0.000000i     0.000000   -0.000000i
 <Sz= 0.00|   -0.000000   -0.000000i    -0.000000   -0.000000i     0.000000    0.000000i
 <Sz= 1.00|    0.000000   -0.000000i    -0.000000    0.000000i    -0.000000  -24.470600i
 Total mean-field SOC matrix (cm-1): < B(S,Sz) | Hsomf | A(S',Sz') >
                     |Sz'=-1.00>              |Sz'= 0.00>              |Sz'= 1.00>
 <Sz=-1.00|    0.000000  -32.536846i    -0.000000   -0.000000i    -0.000000    0.000000i
 <Sz= 0.00|    0.000000    0.000000i     0.000000    0.000000i    -0.000000   -0.000000i
 <Sz= 1.00|   -0.000000    0.000000i     0.000000   -0.000000i     0.000000   32.536846i
Mean-Field SOCC =    46.014049130 cm-1
   
**************************************************
State A: Root  2
State B: Root  4
  
Angular momentum components
< B | Lx | A > =    -0.306349436i
< B | Ly | A > =     0.019200015i
< B | Lz | A > =    -0.000000000i
  
Norm of one-particle transition density matrix
||gamma^AB||_total       =  0.668130
||gamma^AB||_symmetrized =  0.473616
||gamma^AB||_anti-symm   =  0.471259
  
Spin-orbit couplings
 Using HF (reference) density for the 2-elec mean-field SOC contribution
KET: S',Sz' (Root   2) =  1.000 1.000
BRA: S ,Sz  (Root   4) =  1.000 1.000
Clebsh-Gordan coefficient: < 1.000, 1.000; 1.000, 0.000| 1.000, 1.000> =  0.707
 Reading 1e-SO integrals
 1e Reduced matrix elements (cm-1)
<S|| Hso(L-) ||S'> =     3.8818114873   -61.9369701914
<S|| Hso(L0) ||S'> =     0.0000000000    -0.0000000000
<S|| Hso(L+) ||S'> =     3.8818114873    61.9369701914
 1-elec SOC matrix (cm-1): < B(S,Sz) | Hso(1e) | A(S',Sz') >
                     |Sz'=-1.00>              |Sz'= 0.00>              |Sz'= 1.00>
 <Sz=-1.00|   -0.000000    0.000000i     2.744855   43.796052i     0.000000    0.000000i
 <Sz= 0.00|   -2.744855   43.796052i    -0.000000   -0.000000i     2.744855   43.796052i
 <Sz= 1.00|    0.000000   -0.000000i    -2.744855   43.796052i    -0.000000   -0.000000i
1-elec SOCC =    87.763964552 cm-1
 Reading 2e-SOMF integrals
 2e-SOMF Reduced matrix elements (cm-1)
<S|| Hso(L-) ||S'> =    -1.3801311586    22.0209411788
<S|| Hso(L0) ||S'> =     0.0000000000     0.0000000000
<S|| Hso(L+) ||S'> =    -1.3801311586   -22.0209411788
 2-elec mean-field SOC matrix (cm-1): < B(S,Sz) | Hso(2e-mf) | A(S',Sz') >
                     |Sz'=-1.00>              |Sz'= 0.00>              |Sz'= 1.00>
 <Sz=-1.00|    0.000000   -0.000000i    -0.975900  -15.571157i    -0.000000   -0.000000i
 <Sz= 0.00|    0.975900  -15.571157i     0.000000    0.000000i    -0.975900  -15.571157i
 <Sz= 1.00|   -0.000000    0.000000i     0.975900  -15.571157i     0.000000    0.000000i
 Total mean-field SOC matrix (cm-1): < B(S,Sz) | Hsomf | A(S',Sz') >
                     |Sz'=-1.00>              |Sz'= 0.00>              |Sz'= 1.00>
 <Sz=-1.00|   -0.000000    0.000000i     1.768955   28.224895i     0.000000    0.000000i
 <Sz= 0.00|   -1.768955   28.224895i    -0.000000   -0.000000i     1.768955   28.224895i
 <Sz= 1.00|    0.000000   -0.000000i    -1.768955   28.224895i    -0.000000   -0.000000i
Mean-Field SOCC =    56.560547674 cm-1
   
**************************************************
State A: Root  2
State B: Root  5
  
Angular momentum components
< B | Lx | A > =     0.019200015i
< B | Ly | A > =     0.306349436i
< B | Lz | A > =    -0.000000000i
  
Norm of one-particle transition density matrix
||gamma^AB||_total       =  0.668130
||gamma^AB||_symmetrized =  0.473616
||gamma^AB||_anti-symm   =  0.471259
  
Spin-orbit couplings
 Using HF (reference) density for the 2-elec mean-field SOC contribution
KET: S',Sz' (Root   2) =  1.000 1.000
BRA: S ,Sz  (Root   5) =  1.000 1.000
Clebsh-Gordan coefficient: < 1.000, 1.000; 1.000, 0.000| 1.000, 1.000> =  0.707
 Reading 1e-SO integrals
 1e Reduced matrix elements (cm-1)
<S|| Hso(L-) ||S'> =    61.9369701911     3.8818114873
<S|| Hso(L0) ||S'> =     0.0000000000     0.0000000000
<S|| Hso(L+) ||S'> =    61.9369701911    -3.8818114873
 1-elec SOC matrix (cm-1): < B(S,Sz) | Hso(1e) | A(S',Sz') >
                     |Sz'=-1.00>              |Sz'= 0.00>              |Sz'= 1.00>
 <Sz=-1.00|   -0.000000   -0.000000i    43.796052   -2.744855i     0.000000   -0.000000i
 <Sz= 0.00|  -43.796052   -2.744855i    -0.000000    0.000000i    43.796052   -2.744855i
 <Sz= 1.00|    0.000000    0.000000i   -43.796052   -2.744855i    -0.000000    0.000000i
1-elec SOCC =    87.763964551 cm-1
 Reading 2e-SOMF integrals
 2e-SOMF Reduced matrix elements (cm-1)
<S|| Hso(L-) ||S'> =   -22.0209411786    -1.3801311586
<S|| Hso(L0) ||S'> =     0.0000000000    -0.0000000000
<S|| Hso(L+) ||S'> =   -22.0209411786     1.3801311586
 2-elec mean-field SOC matrix (cm-1): < B(S,Sz) | Hso(2e-mf) | A(S',Sz') >
                     |Sz'=-1.00>              |Sz'= 0.00>              |Sz'= 1.00>
 <Sz=-1.00|    0.000000    0.000000i   -15.571157    0.975900i    -0.000000    0.000000i
 <Sz= 0.00|   15.571157    0.975900i     0.000000   -0.000000i   -15.571157    0.975900i
 <Sz= 1.00|   -0.000000   -0.000000i    15.571157    0.975900i     0.000000   -0.000000i
 Total mean-field SOC matrix (cm-1): < B(S,Sz) | Hsomf | A(S',Sz') >
                     |Sz'=-1.00>              |Sz'= 0.00>              |Sz'= 1.00>
 <Sz=-1.00|   -0.000000   -0.000000i    28.224895   -1.768955i     0.000000   -0.000000i
 <Sz= 0.00|  -28.224895   -1.768955i    -0.000000    0.000000i    28.224895   -1.768955i
 <Sz= 1.00|    0.000000    0.000000i   -28.224895   -1.768955i    -0.000000    0.000000i
Mean-Field SOCC =    56.560547674 cm-1
   
**************************************************
State A: Root  2
State B: Root  6
  
Angular momentum components
< B | Lx | A > =    -0.327032442i
< B | Ly | A > =    -0.007559913i
< B | Lz | A > =     0.000000000i
  
Norm of one-particle transition density matrix
||gamma^AB||_total       =  0.668007
||gamma^AB||_symmetrized =  0.473492
||gamma^AB||_anti-symm   =  0.471210
  
Spin-orbit couplings
 Using HF (reference) density for the 2-elec mean-field SOC contribution
KET: S',Sz' (Root   2) =  1.000 1.000
BRA: S ,Sz  (Root   6) =  1.000 1.000
Clebsh-Gordan coefficient: < 1.000, 1.000; 1.000, 0.000| 1.000, 1.000> =  0.707
 Reading 1e-SO integrals
 1e Reduced matrix elements (cm-1)
<S|| Hso(L-) ||S'> =    -1.4318627275   -61.9406015965
<S|| Hso(L0) ||S'> =     0.0000000000     0.0000000000
<S|| Hso(L+) ||S'> =    -1.4318627275    61.9406015965
 1-elec SOC matrix (cm-1): < B(S,Sz) | Hso(1e) | A(S',Sz') >
                     |Sz'=-1.00>              |Sz'= 0.00>              |Sz'= 1.00>
 <Sz=-1.00|    0.000000   -0.000000i    -1.012480   43.798619i    -0.000000    0.000000i
 <Sz= 0.00|    1.012480   43.798619i     0.000000   -0.000000i    -1.012480   43.798619i
 <Sz= 1.00|   -0.000000   -0.000000i     1.012480   43.798619i     0.000000    0.000000i
1-elec SOCC =    87.620640913 cm-1
 Reading 2e-SOMF integrals
 2e-SOMF Reduced matrix elements (cm-1)
<S|| Hso(L-) ||S'> =     0.5090925482    22.0227107661
<S|| Hso(L0) ||S'> =     0.0000000000    -0.0000000000
<S|| Hso(L+) ||S'> =     0.5090925482   -22.0227107661
 2-elec mean-field SOC matrix (cm-1): < B(S,Sz) | Hso(2e-mf) | A(S',Sz') >
                     |Sz'=-1.00>              |Sz'= 0.00>              |Sz'= 1.00>
 <Sz=-1.00|   -0.000000    0.000000i     0.359983  -15.572408i     0.000000   -0.000000i
 <Sz= 0.00|   -0.359983  -15.572408i    -0.000000    0.000000i     0.359983  -15.572408i
 <Sz= 1.00|    0.000000    0.000000i    -0.359983  -15.572408i    -0.000000   -0.000000i
 Total mean-field SOC matrix (cm-1): < B(S,Sz) | Hsomf | A(S',Sz') >
                     |Sz'=-1.00>              |Sz'= 0.00>              |Sz'= 1.00>
 <Sz=-1.00|    0.000000   -0.000000i    -0.652497   28.226211i    -0.000000    0.000000i
 <Sz= 0.00|    0.652497   28.226211i     0.000000   -0.000000i    -0.652497   28.226211i
 <Sz= 1.00|   -0.000000   -0.000000i     0.652497   28.226211i     0.000000    0.000000i
Mean-Field SOCC =    56.467504162 cm-1
   
**************************************************
State A: Root  2
State B: Root  7
  
Angular momentum components
< B | Lx | A > =    -0.000000000i
< B | Ly | A > =    -0.000000000i
< B | Lz | A > =     0.000000000i
  
Norm of one-particle transition density matrix
||gamma^AB||_total       =  0.254196
||gamma^AB||_symmetrized =  0.242933
||gamma^AB||_anti-symm   =  0.074828
  
Spin-orbit couplings
 Using HF (reference) density for the 2-elec mean-field SOC contribution
KET: S',Sz' (Root   2) =  1.000 1.000
BRA: S ,Sz  (Root   7) =  1.000 1.000
Clebsh-Gordan coefficient: < 1.000, 1.000; 1.000, 0.000| 1.000, 1.000> =  0.707
 Reading 1e-SO integrals
 1e Reduced matrix elements (cm-1)
<S|| Hso(L-) ||S'> =     0.0000000000     0.0000000000
<S|| Hso(L0) ||S'> =     0.0000000000    -0.0007601639
<S|| Hso(L+) ||S'> =     0.0000000000    -0.0000000000
 1-elec SOC matrix (cm-1): < B(S,Sz) | Hso(1e) | A(S',Sz') >
                     |Sz'=-1.00>              |Sz'= 0.00>              |Sz'= 1.00>
 <Sz=-1.00|   -0.000000    0.000538i     0.000000   -0.000000i     0.000000   -0.000000i
 <Sz= 0.00|   -0.000000   -0.000000i    -0.000000   -0.000000i     0.000000   -0.000000i
 <Sz= 1.00|    0.000000   -0.000000i    -0.000000   -0.000000i    -0.000000   -0.000538i
1-elec SOCC =     0.000760164 cm-1
 Reading 2e-SOMF integrals
 2e-SOMF Reduced matrix elements (cm-1)
<S|| Hso(L-) ||S'> =    -0.0000000000    -0.0000000000
<S|| Hso(L0) ||S'> =     0.0000000000     0.0003096717
<S|| Hso(L+) ||S'> =    -0.0000000000     0.0000000000
 2-elec mean-field SOC matrix (cm-1): < B(S,Sz) | Hso(2e-mf) | A(S',Sz') >
                     |Sz'=-1.00>              |Sz'= 0.00>              |Sz'= 1.00>
 <Sz=-1.00|    0.000000   -0.000219i    -0.000000    0.000000i    -0.000000    0.000000i
 <Sz= 0.00|    0.000000    0.000000i     0.000000    0.000000i    -0.000000    0.000000i
 <Sz= 1.00|   -0.000000    0.000000i     0.000000    0.000000i     0.000000    0.000219i
 Total mean-field SOC matrix (cm-1): < B(S,Sz) | Hsomf | A(S',Sz') >
                     |Sz'=-1.00>              |Sz'= 0.00>              |Sz'= 1.00>
 <Sz=-1.00|   -0.000000    0.000319i     0.000000   -0.000000i     0.000000   -0.000000i
 <Sz= 0.00|   -0.000000   -0.000000i    -0.000000   -0.000000i     0.000000   -0.000000i
 <Sz= 1.00|    0.000000   -0.000000i    -0.000000   -0.000000i    -0.000000   -0.000319i
Mean-Field SOCC =     0.000450492 cm-1
   
**************************************************
State A: Root  2
State B: Root  8
  
Angular momentum components
< B | Lx | A > =    -0.000000000i
< B | Ly | A > =     0.000000000i
< B | Lz | A > =    -0.000000000i
  
Norm of one-particle transition density matrix
||gamma^AB||_total       =  0.156047
||gamma^AB||_symmetrized =  0.108915
||gamma^AB||_anti-symm   =  0.111751
  
Spin-orbit couplings
 Using HF (reference) density for the 2-elec mean-field SOC contribution
KET: S',Sz' (Root   2) =  1.000 1.000
BRA: S ,Sz  (Root   8) =  1.000 1.000
Clebsh-Gordan coefficient: < 1.000, 1.000; 1.000, 0.000| 1.000, 1.000> =  0.707
 Reading 1e-SO integrals
 1e Reduced matrix elements (cm-1)
<S|| Hso(L-) ||S'> =    -0.0000000000    -0.0000000000
<S|| Hso(L0) ||S'> =     0.0000000000   -22.0660760983
<S|| Hso(L+) ||S'> =    -0.0000000000     0.0000000000
 1-elec SOC matrix (cm-1): < B(S,Sz) | Hso(1e) | A(S',Sz') >
                     |Sz'=-1.00>              |Sz'= 0.00>              |Sz'= 1.00>
 <Sz=-1.00|    0.000000   15.603072i    -0.000000    0.000000i    -0.000000   -0.000000i
 <Sz= 0.00|    0.000000    0.000000i     0.000000   -0.000000i    -0.000000    0.000000i
 <Sz= 1.00|   -0.000000   -0.000000i     0.000000    0.000000i     0.000000  -15.603072i
[...]
 <Sz= 1.00|   -0.000000    0.000000i     0.000000   -0.000000i     0.000000    0.000066i
1-elec SOCC =     0.000093488 cm-1
 Reading 2e-SOMF integrals
 2e-SOMF Reduced matrix elements (cm-1)
<S|| Hso(L-) ||S'> =     0.0000000000    -0.0000000007
<S|| Hso(L0) ||S'> =     0.0000000000    -0.0000741702
<S|| Hso(L+) ||S'> =     0.0000000000     0.0000000007
 2-elec mean-field SOC matrix (cm-1): < B(S,Sz) | Hso(2e-mf) | A(S',Sz') >
                     |Sz'=-1.00>              |Sz'= 0.00>              |Sz'= 1.00>
 <Sz=-1.00|   -0.000000    0.000052i     0.000000    0.000000i     0.000000   -0.000000i
 <Sz= 0.00|   -0.000000    0.000000i    -0.000000   -0.000000i     0.000000    0.000000i
 <Sz= 1.00|    0.000000   -0.000000i    -0.000000    0.000000i    -0.000000   -0.000052i
 Total mean-field SOC matrix (cm-1): < B(S,Sz) | Hsomf | A(S',Sz') >
                     |Sz'=-1.00>              |Sz'= 0.00>              |Sz'= 1.00>
 <Sz=-1.00|    0.000000   -0.000014i    -0.000000   -0.000000i    -0.000000    0.000000i
 <Sz= 0.00|    0.000000   -0.000000i     0.000000    0.000000i    -0.000000   -0.000000i
 <Sz= 1.00|   -0.000000    0.000000i     0.000000   -0.000000i     0.000000    0.000014i
Mean-Field SOCC =     0.000019317 cm-1
   
**************************************************
State A: Root 10
State B: Root  8
  
Angular momentum components
< B | Lx | A > =     0.000000000i
< B | Ly | A > =     0.000000000i
< B | Lz | A > =     0.000001150i
  
Norm of one-particle transition density matrix
||gamma^AB||_total       =  0.772528
||gamma^AB||_symmetrized =  0.535937
||gamma^AB||_anti-symm   =  0.556391
  
Spin-orbit couplings
 Using HF (reference) density for the 2-elec mean-field SOC contribution
KET: S',Sz' (Root  10) =  1.000 1.000
BRA: S ,Sz  (Root   8) =  1.000 1.000
Clebsh-Gordan coefficient: < 1.000, 1.000; 1.000, 0.000| 1.000, 1.000> =  0.707
 Reading 1e-SO integrals
 1e Reduced matrix elements (cm-1)
<S|| Hso(L-) ||S'> =     0.0000000021     0.0000000002
<S|| Hso(L0) ||S'> =     0.0000000000     3.1416555608
<S|| Hso(L+) ||S'> =     0.0000000021    -0.0000000002
 1-elec SOC matrix (cm-1): < B(S,Sz) | Hso(1e) | A(S',Sz') >
                     |Sz'=-1.00>              |Sz'= 0.00>              |Sz'= 1.00>
 <Sz=-1.00|   -0.000000   -2.221486i     0.000000   -0.000000i     0.000000    0.000000i
 <Sz= 0.00|   -0.000000   -0.000000i    -0.000000    0.000000i     0.000000   -0.000000i
 <Sz= 1.00|    0.000000    0.000000i    -0.000000   -0.000000i    -0.000000    2.221486i
1-elec SOCC =     3.141655561 cm-1
 Reading 2e-SOMF integrals
 2e-SOMF Reduced matrix elements (cm-1)
<S|| Hso(L-) ||S'> =    -0.0000000008    -0.0000000001
<S|| Hso(L0) ||S'> =     0.0000000000    -2.4924952775
<S|| Hso(L+) ||S'> =    -0.0000000008     0.0000000001
 2-elec mean-field SOC matrix (cm-1): < B(S,Sz) | Hso(2e-mf) | A(S',Sz') >
                     |Sz'=-1.00>              |Sz'= 0.00>              |Sz'= 1.00>
 <Sz=-1.00|    0.000000    1.762460i    -0.000000    0.000000i    -0.000000   -0.000000i
 <Sz= 0.00|    0.000000    0.000000i     0.000000   -0.000000i    -0.000000    0.000000i
 <Sz= 1.00|   -0.000000   -0.000000i     0.000000    0.000000i     0.000000   -1.762460i
 Total mean-field SOC matrix (cm-1): < B(S,Sz) | Hsomf | A(S',Sz') >
                     |Sz'=-1.00>              |Sz'= 0.00>              |Sz'= 1.00>
 <Sz=-1.00|   -0.000000   -0.459026i     0.000000   -0.000000i     0.000000    0.000000i
 <Sz= 0.00|   -0.000000   -0.000000i    -0.000000    0.000000i     0.000000   -0.000000i
 <Sz= 1.00|    0.000000    0.000000i    -0.000000   -0.000000i    -0.000000    0.459026i
Mean-Field SOCC =     0.649160283 cm-1
   
**************************************************
State A: Root 10
State B: Root  9
  
Angular momentum components
< B | Lx | A > =     0.005137526i
< B | Ly | A > =    -0.222288147i
< B | Lz | A > =     0.000000000i
  
Norm of one-particle transition density matrix
||gamma^AB||_total       =  0.408139
||gamma^AB||_symmetrized =  0.287543
||gamma^AB||_anti-symm   =  0.289649
  
Spin-orbit couplings
 Using HF (reference) density for the 2-elec mean-field SOC contribution
KET: S',Sz' (Root  10) =  1.000 1.000
BRA: S ,Sz  (Root   9) =  1.000 1.000
Clebsh-Gordan coefficient: < 1.000, 1.000; 1.000, 0.000| 1.000, 1.000> =  0.707
 Reading 1e-SO integrals
 1e Reduced matrix elements (cm-1)
<S|| Hso(L-) ||S'> =   -19.0549884834     0.4403991288
<S|| Hso(L0) ||S'> =     0.0000000000     0.0000000000
<S|| Hso(L+) ||S'> =   -19.0549884834    -0.4403991288
 1-elec SOC matrix (cm-1): < B(S,Sz) | Hso(1e) | A(S',Sz') >
                     |Sz'=-1.00>              |Sz'= 0.00>              |Sz'= 1.00>
 <Sz=-1.00|    0.000000   -0.000000i   -13.473912   -0.311409i    -0.000000   -0.000000i
 <Sz= 0.00|   13.473912   -0.311409i     0.000000    0.000000i   -13.473912   -0.311409i
 <Sz= 1.00|   -0.000000    0.000000i    13.473912   -0.311409i     0.000000    0.000000i
1-elec SOCC =    26.955019477 cm-1
 Reading 2e-SOMF integrals
 2e-SOMF Reduced matrix elements (cm-1)
<S|| Hso(L-) ||S'> =     6.1297979674    -0.1416719662
<S|| Hso(L0) ||S'> =     0.0000000000    -0.0000000000
<S|| Hso(L+) ||S'> =     6.1297979674     0.1416719662
 2-elec mean-field SOC matrix (cm-1): < B(S,Sz) | Hso(2e-mf) | A(S',Sz') >
                     |Sz'=-1.00>              |Sz'= 0.00>              |Sz'= 1.00>
 <Sz=-1.00|   -0.000000    0.000000i     4.334422    0.100177i     0.000000    0.000000i
 <Sz= 0.00|   -4.334422    0.100177i    -0.000000   -0.000000i     4.334422    0.100177i
 <Sz= 1.00|    0.000000   -0.000000i    -4.334422    0.100177i    -0.000000   -0.000000i
 Total mean-field SOC matrix (cm-1): < B(S,Sz) | Hsomf | A(S',Sz') >
                     |Sz'=-1.00>              |Sz'= 0.00>              |Sz'= 1.00>
 <Sz=-1.00|    0.000000   -0.000000i    -9.139490   -0.211232i    -0.000000   -0.000000i
 <Sz= 0.00|    9.139490   -0.211232i     0.000000    0.000000i    -9.139490   -0.211232i
 <Sz= 1.00|   -0.000000    0.000000i     9.139490   -0.211232i     0.000000    0.000000i
Mean-Field SOCC =    18.283861069 cm-1
   
**************************************************
RAS-CI timing summary (seconds)
  CPU time         19.42s
  System time       0.00s
  Wall time        59.91s
Detailed CPU timing summary
     Fock matrix         :         0.0057 s
     Integrals           :         0.0129 s
     Addressing matrices :         0.0002 s
     Guesses             :         0.0004 s
     Iterations          :        19.1153 s
     Properties          :         0.2882 s
     RAS-CI(2) correction:         0.0000 s
  
 
 --------------------------------------------------------------
             Orbital Energies (a.u.) and Symmetries
 --------------------------------------------------------------
 
 Alpha MOs, Restricted
 -- Doubly Occupied --           
-26.039 -15.440  -1.611  -1.024  -0.619  -0.619  -0.576
  1 A1    2 A1    3 A1    4 A1    1 B1    1 B2    5 A1                         
 -- Singly Occupied (Occupied) --
 -0.448  -0.448
  2 B1    2 B2                                                                 
 -- Virtual --                   
  0.536
  6 A1                                                                         
 
 Beta MOs, Restricted
 -- Doubly Occupied --           
-26.039 -15.440  -1.611  -1.024  -0.619  -0.619  -0.576
  1 A1    2 A1    3 A1    4 A1    1 B1    1 B2    5 A1                         
 -- Singly Occupied (Vacant) --  
 -0.448  -0.448
  2 B1    2 B2                                                                 
 -- Virtual --                   
  0.536
  6 A1                                                                         
 --------------------------------------------------------------
 

                        RESTRICTED (RHF) MOLECULAR ORBITAL COEFFICIENTS
                         1         2         3         4         5         6
 eigenvalues:        -26.039   -15.440    -1.611    -1.024    -0.619    -0.619
   1  N     s        0.00045   0.99482  -0.07211  -0.21795  -0.00000  -0.00000
   2  N     s       -0.00346   0.02167   0.22089   0.84651   0.00000  -0.00000
   3  N     px       0.00000  -0.00000   0.00000  -0.00000   0.21527  -0.00000
   4  N     py       0.00000  -0.00000   0.00000   0.00000  -0.00000  -0.21527
   5  N     pz      -0.00378   0.00346   0.12185   0.06026  -0.00000   0.00000
   6  F     s        0.99482   0.00050  -0.23917   0.10558   0.00000  -0.00000
   7  F     s        0.02174  -0.00408   0.89699  -0.49032  -0.00000  -0.00000
   8  F     px       0.00000  -0.00000   0.00000   0.00000   0.95207  -0.00000
   9  F     py       0.00000  -0.00000   0.00000   0.00000  -0.00000  -0.95207
  10  F     pz      -0.00266   0.00260  -0.10032  -0.37328   0.00000  -0.00000
                         7         8         9        10
 eigenvalues:         -0.576    -0.448    -0.448     0.536
   1  N     s       -0.11551   0.00000  -0.00000  -0.08284
   2  N     s        0.51496  -0.00000  -0.00000   0.43239
   3  N     px      -0.00000   0.98342  -0.00000  -0.00000
   4  N     py      -0.00000  -0.00000  -0.98342  -0.00000
   5  N     pz      -0.56910   0.00000  -0.00000   0.94519
   6  F     s       -0.02596   0.00000  -0.00000   0.07799
   7  F     s        0.13877  -0.00000   0.00000  -0.46587
   8  F     px      -0.00000  -0.32714   0.00000  -0.00000
   9  F     py      -0.00000   0.00000   0.32714  -0.00000
  10  F     pz       0.61398  -0.00000   0.00000   0.80621
 

======= MOLECULAR ORBITALS IN MOLDEN FORMAT =======
[Molden Format]
[Atoms] (Angs)
  N      1    7      0.00000000      0.00000000     -0.74075625
  F      2    9      0.00000000      0.00000000      0.57614375
[GTO]
1    0
S    3    1.000000
   9.91061690E+01    1.54328970E-01 
   1.80523120E+01    5.35328140E-01 
   4.88566020E+00    4.44634540E-01 
SP   3    1.000000
   3.78045590E+00   -9.99672300E-02   1.55916270E-01 
   8.78496600E-01    3.99512830E-01   6.07683720E-01 
   2.85714400E-01    7.00115470E-01   3.91957390E-01 

2    0
S    3    1.000000
   1.66679130E+02    1.54328970E-01 
   3.03608120E+01    5.35328140E-01 
   8.21682070E+00    4.44634540E-01 
SP   3    1.000000
   6.46480320E+00   -9.99672300E-02   1.55916270E-01 
   1.50228120E+00    3.99512830E-01   6.07683720E-01 
   4.88588500E-01    7.00115470E-01   3.91957390E-01 

[MO]
Sym=X
Ene= -26.039230
Spin=Alpha
Occup=1
     1    4.509532044778e-04
     2   -3.463868950833e-03
     3    1.142486939685e-17
     4    1.615175148350e-18
     5   -3.777204482879e-03
     6    9.948184547558e-01
     7    2.173737744026e-02
     8    6.008870784115e-17
     9    1.808399053410e-17
    10   -2.658862285441e-03
Sym=X
Ene= -15.440066
Spin=Alpha
Occup=1
     1    9.948206829511e-01
     2    2.166624407490e-02
     3   -5.055703675676e-17
     4   -3.339518371776e-17
     5    3.462999361820e-03
     6    4.967690505116e-04
     7   -4.077472593801e-03
     8   -2.321579119647e-16
     9   -1.026569460070e-16
    10    2.604261923873e-03
Sym=X
Ene= -1.611465
Spin=Alpha
Occup=1
     1   -7.210636844259e-02
     2    2.208935451052e-01
     3    3.917449874213e-16
     4    9.478736200143e-17
     5    1.218515282771e-01
     6   -2.391674963772e-01
     7    8.969900791719e-01
     8    1.447202402768e-15
     9    2.995115283700e-16
    10   -1.003179203065e-01
Sym=X
Ene= -1.023592
Spin=Alpha
Occup=1
     1   -2.179521319469e-01
     2    8.465092108097e-01
     3   -3.705546194260e-18
     4    3.046234237552e-17
     5    6.025773740396e-02
     6    1.055756209963e-01
     7   -4.903237879530e-01
     8    3.641166313682e-17
     9    4.605131211556e-16
    10   -3.732819889460e-01
Sym=X
Ene= -0.618844
Spin=Alpha
Occup=1
     1   -2.549213264282e-15
     2    3.580683358849e-15
     3    2.152689240056e-01
     4   -2.277375133635e-17
     5   -4.766964375451e-15
     6    3.293511210285e-16
     7   -1.172991219914e-15
     8    9.520678087603e-01
     9   -1.327422601092e-15
    10    4.942632153708e-15
Sym=X
Ene= -0.618844
Spin=Alpha
Occup=1
     1   -3.970066006215e-16
     2   -5.922957457979e-16
     3   -1.658901321703e-16
     4   -2.152689240338e-01
     5    1.401196505706e-15
     6   -6.150393229642e-18
     7   -1.841502203409e-16
     8   -1.064606912284e-15
     9   -9.520678087509e-01
    10   -1.658042397277e-15
Sym=X
Ene= -0.576341
Spin=Alpha
Occup=1
     1   -1.155133542003e-01
     2    5.149612414298e-01
     3   -1.711320183112e-15
     4   -4.244778938774e-16
     5   -5.691010989087e-01
     6   -2.596077022853e-02
     7    1.387668568835e-01
     8   -8.129614732276e-15
     9   -2.392404566820e-15
    10    6.139827532477e-01
Sym=X
Ene= -0.448234
Spin=Alpha
Occup=1
     1    2.963556143916e-16
     2   -8.444508725600e-17
     3    9.834185414822e-01
     4   -2.229420363326e-15
     5    1.163238547182e-16
     6    1.970073891407e-16
     7   -1.598657823784e-16
     8   -3.271385408292e-01
     9    1.055209293492e-15
    10   -4.299770737960e-17
Sym=X
Ene= -0.448234
Spin=Alpha
Occup=1
     1   -2.529085137418e-16
     2   -6.735939693978e-17
     3   -1.832114477219e-15
     4   -9.834185414760e-01
     5   -1.533988976134e-16
     6   -2.492874080451e-16
     7    2.699016210527e-16
     8    1.320309430159e-15
     9    3.271385408565e-01
    10    2.073630028792e-16
Sym=X
Ene= 0.536017
Spin=Alpha
Occup=0
     1   -8.283563252191e-02
     2    4.323880640801e-01
     3   -7.894752195497e-17
     4   -8.830376032444e-17
     5    9.451867675104e-01
     6    7.798506573818e-02
     7   -4.658725223289e-01
     8   -9.629217412928e-17
     9   -9.057338164261e-18
    10    8.062053887094e-01

======= END OF MOLDEN-FORMAT MOLECULAR ORBITALS =======

          Ground-State Mulliken Net Atomic Charges

     Atom                 Charge (a.u.)
  ----------------------------------------
      1 N                     0.074662
      2 F                    -0.074662
  ----------------------------------------
  Sum of atomic charges =     0.000000

 -----------------------------------------------------------------
                    Cartesian Multipole Moments
 -----------------------------------------------------------------
    Charge (ESU x 10^10)
                -0.0000
    Dipole Moment (Debye)
         X       0.0000      Y       0.0000      Z       0.2309
       Tot       0.2309
    Quadrupole Moments (Debye-Ang)
        XX      -8.4773     XY       0.0000     YY      -8.4773
        XZ       0.0000     YZ       0.0000     ZZ      -9.9171
    Octopole Moments (Debye-Ang^2)
       XXX       0.0000    XXY       0.0000    XYY       0.0000
       YYY       0.0000    XXZ       1.2951    XYZ      -0.0000
       YYZ       1.2951    XZZ       0.0000    YZZ       0.0000
       ZZZ       5.2379
    Hexadecapole Moments (Debye-Ang^3)
      XXXX      -4.2279   XXXY       0.0000   XXYY      -1.4093
      XYYY       0.0000   YYYY      -4.2279   XXXZ       0.0000
      XXYZ       0.0000   XYYZ       0.0000   YYYZ       0.0000
      XXZZ      -5.4637   XYZZ       0.0000   YYZZ      -5.4637
      XZZZ       0.0000   YZZZ       0.0000   ZZZZ     -29.0190
 -----------------------------------------------------------------
 Mayer SCF Bond Order, atomic valence on the diagonal:

            1           2
    1   1.2142011   1.2142011
    2   1.2142011   1.2142011


 Total job time:  62.33s(wall), 19.62s(cpu) 
 Tue Oct 24 11:08:38 2023

======= MOLDEN-FORMATTED INPUT FILE FOLLOWS =======
[Molden Format]
[Atoms] (Angs)
  N      1    7      0.00000000      0.00000000     -0.74075625
  F      2    9      0.00000000      0.00000000      0.57614375
[GTO]
1    0
S    3    1.000000
   9.91061690E+01    1.54328970E-01 
   1.80523120E+01    5.35328140E-01 
   4.88566020E+00    4.44634540E-01 
SP   3    1.000000
   3.78045590E+00   -9.99672300E-02   1.55916270E-01 
   8.78496600E-01    3.99512830E-01   6.07683720E-01 
   2.85714400E-01    7.00115470E-01   3.91957390E-01 

2    0
S    3    1.000000
   1.66679130E+02    1.54328970E-01 
   3.03608120E+01    5.35328140E-01 
   8.21682070E+00    4.44634540E-01 
SP   3    1.000000
   6.46480320E+00   -9.99672300E-02   1.55916270E-01 
   1.50228120E+00    3.99512830E-01   6.07683720E-01 
   4.88588500E-01    7.00115470E-01   3.91957390E-01 

[MO]
Sym=X
Ene= -26.039230
Spin=Alpha
Occup=1
     1    4.509532044778e-04
     2   -3.463868950833e-03
     3    1.142486939685e-17
     4    1.615175148350e-18
     5   -3.777204482879e-03
     6    9.948184547558e-01
     7    2.173737744026e-02
     8    6.008870784115e-17
     9    1.808399053410e-17
    10   -2.658862285441e-03
Sym=X
Ene= -15.440066
Spin=Alpha
Occup=1
     1    9.948206829511e-01
     2    2.166624407490e-02
     3   -5.055703675676e-17
     4   -3.339518371776e-17
     5    3.462999361820e-03
     6    4.967690505116e-04
     7   -4.077472593801e-03
     8   -2.321579119647e-16
     9   -1.026569460070e-16
    10    2.604261923873e-03
Sym=X
Ene= -1.611465
Spin=Alpha
Occup=1
     1   -7.210636844259e-02
     2    2.208935451052e-01
     3    3.917449874213e-16
     4    9.478736200143e-17
     5    1.218515282771e-01
     6   -2.391674963772e-01
     7    8.969900791719e-01
     8    1.447202402768e-15
     9    2.995115283700e-16
    10   -1.003179203065e-01
Sym=X
Ene= -1.023592
Spin=Alpha
Occup=1
     1   -2.179521319469e-01
     2    8.465092108097e-01
     3   -3.705546194260e-18
     4    3.046234237552e-17
     5    6.025773740396e-02
     6    1.055756209963e-01
     7   -4.903237879530e-01
     8    3.641166313682e-17
     9    4.605131211556e-16
    10   -3.732819889460e-01
Sym=X
Ene= -0.618844
Spin=Alpha
Occup=1
     1   -2.549213264282e-15
     2    3.580683358849e-15
     3    2.152689240056e-01
     4   -2.277375133635e-17
     5   -4.766964375451e-15
     6    3.293511210285e-16
     7   -1.172991219914e-15
     8    9.520678087603e-01
     9   -1.327422601092e-15
    10    4.942632153708e-15
Sym=X
Ene= -0.618844
Spin=Alpha
Occup=1
     1   -3.970066006215e-16
     2   -5.922957457979e-16
     3   -1.658901321703e-16
     4   -2.152689240338e-01
     5    1.401196505706e-15
     6   -6.150393229642e-18
     7   -1.841502203409e-16
     8   -1.064606912284e-15
     9   -9.520678087509e-01
    10   -1.658042397277e-15
Sym=X
Ene= -0.576341
Spin=Alpha
Occup=1
     1   -1.155133542003e-01
     2    5.149612414298e-01
     3   -1.711320183112e-15
     4   -4.244778938774e-16
     5   -5.691010989087e-01
     6   -2.596077022853e-02
     7    1.387668568835e-01
     8   -8.129614732276e-15
     9   -2.392404566820e-15
    10    6.139827532477e-01
Sym=X
Ene= -0.448234
Spin=Alpha
Occup=1
     1    2.963556143916e-16
     2   -8.444508725600e-17
     3    9.834185414822e-01
     4   -2.229420363326e-15
     5    1.163238547182e-16
     6    1.970073891407e-16
     7   -1.598657823784e-16
     8   -3.271385408292e-01
     9    1.055209293492e-15
    10   -4.299770737960e-17
Sym=X
Ene= -0.448234
Spin=Alpha
Occup=1
     1   -2.529085137418e-16
     2   -6.735939693978e-17
     3   -1.832114477219e-15
     4   -9.834185414760e-01
     5   -1.533988976134e-16
     6   -2.492874080451e-16
     7    2.699016210527e-16
     8    1.320309430159e-15
     9    3.271385408565e-01
    10    2.073630028792e-16
Sym=X
Ene= 0.536017
Spin=Alpha
Occup=0
     1   -8.283563252191e-02
     2    4.323880640801e-01
     3   -7.894752195497e-17
     4   -8.830376032444e-17
     5    9.451867675104e-01
     6    7.798506573818e-02
     7   -4.658725223289e-01
     8   -9.629217412928e-17
     9   -9.057338164261e-18
    10    8.062053887094e-01

======= END OF MOLDEN-FORMATTED INPUT FILE =======


        *************************************************************
        *                                                           *
        *  Thank you very much for using Q-Chem.  Have a nice day.  *
        *                                                           *
        *************************************************************


