                  Welcome to Q-Chem
     A Quantum Leap Into The Future Of Chemistry


 Q-Chem 6.0 (devel), Q-Chem, Inc., Pleasanton, CA (2022)

 E. Epifanovsky,  A. T. B. Gilbert,  Xintian Feng,  Joonho Lee,  Yuezhi Mao,  
 N. Mardirossian,  P. Pokhilko,  A. White,  M. Wormit,  M. P. Coons,  
 A. L. Dempwolff,  Zhengting Gan,  D. Hait,  P. R. Horn,  L. D. Jacobson,  
 I. Kaliman,  J. Kussmann,  A. W. Lange,  Ka Un Lao,  D. S. Levine,  Jie Liu,  
 S. C. McKenzie,  A. F. Morrison,  K. Nanda,  F. Plasser,  D. R. Rehn,  
 M. L. Vidal,  Zhi-Qiang You,  Ying Zhu,  B. Alam,  B. Albrecht,  
 A. Aldossary,  E. Alguire,  J. H. Andersen,  V. Athavale,  D. Barton,  
 K. Begam,  A. Behn,  N. Bellonzi,  Y. A. Bernard,  E. J. Berquist,  
 H. Burton,  A. Carreras,  K. Carter-Fenk,  Romit Chakraborty,  
 Chandrima Chakravarty,  Junhan Chen,  A. D. Chien,  K. D. Closser,  
 V. Cofer-Shabica,  L. Cunha,  S. Dasgupta,  Jia Deng,  M. de Wergifosse,  
 M. Diedenhofen,  Hainam Do,  S. Ehlert,  Po-Tung Fang,  S. Fatehi,  
 Qingguo Feng,  T. Friedhoff,  B. Ganoe,  J. Gayvert,  Qinghui Ge,  
 G. Gidofalvi,  M. Goldey,  J. Gomes,  C. Gonzalez-Espinoza,  S. Gulania,  
 A. Gunina,  J. A. Gyamfi,  M. W. D. Hanson-Heine,  P. H. P. Harbach,  
 A. W. Hauser,  M. F. Herbst,  M. Hernandez Vera,  M. Hodecker,  
 Z. C. Holden,  S. Houck,  Xunkun Huang,  Kerwin Hui,  B. C. Huynh,  
 K. Ikeda,  M. Ivanov,  Hyunjun Ji,  Zuxin Jin,  Hanjie Jiang,  B. Kaduk,  
 S. Kaehler,  R. Kang,  K. Khistyaev,  Jaehoon Kim,  Yongbin Kim,  
 P. Klunzinger,  Z. Koczor-Benda,  Joong Hoon Koh,  D. Kosenkov,  
 Saikiran Kotaru,  L. Koulias,  T. Kowalczyk,  C. M. Krauter,  K. Kue,  
 A. Kunitsa,  T. Kus,  A. Landau,  K. V. Lawler,  D. Lefrancois,  S. Lehtola,  
 Rain Li,  Shaozhi Li,  Yi-Pei Li,  Jiashu Liang,  M. Liebenthal,  
 Hung-Hsuan Lin,  You-Sheng Lin,  Fenglai Liu,  Kuan-Yu Liu,  
 M. Loipersberger,  A. Luenser,  C. Malbon,  A. Manjanath,  P. Manohar,  
 E. Mansoor,  S. F. Manzer,  Shan-Ping Mao,  A. V. Marenich,  T. Markovich,  
 S. Mason,  F. Matz,  S. A. Maurer,  P. F. McLaughlin,  M. F. S. J. Menger,  
 J.-M. Mewes,  S. A. Mewes,  P. Morgante,  Mohammad Mostafanejad,  
 J. W. Mullinax,  K. J. Oosterbaan,  G. Paran,  V. Parravicini,  
 Alexander C. Paul,  Suranjan K. Paul,  F. Pavosevic,  Zheng Pei,  S. Prager,  
 E. I. Proynov,  E. Ramos,  B. Rana,  A. E. Rask,  A. Rettig,  R. M. Richard,  
 F. Rob,  E. Rossomme,  T. Scheele,  M. Scheurer,  M. Schneider,  
 P. E. Schneider,  N. Sergueev,  S. M. Sharada,  Hengyuan Shen,  
 W. Skomorowski,  D. W. Small,  C. J. Stein,  Yingli Su,  Yu-Chuan Su,  
 E. J. Sundstrom,  Zhen Tao,  J. Thirman,  Hung-Yi Tsai,  T. Tsuchimochi,  
 N. M. Tubman,  C. Utku,  S. P. Veccham,  O. Vydrov,  J. Wenzel,  
 Jonathan Wong,  J. Witte,  A. Yamada,  Chou-Hsun Yang,  Kun Yao,  
 S. Yeganeh,  S. R. Yost,  A. Zech,  F. Zeller,  Igor Ying Zhang,  
 Xing Zhang,  Yu Zhang,  D. Zuev,  A. Aspuru-Guzik,  A. T. Bell,  
 N. A. Besley,  K. B. Bravaya,  B. R. Brooks,  D. Casanova,  Jeng-Da Chai,  
 Hsing-Ta Chen,  S. Coriani,  C. J. Cramer,  A. E. DePrince, III,  
 R. A. DiStasio Jr.,  A. Dreuw,  B. D. Dunietz,  T. R. Furlani,  
 W. A. Goddard III,  S. Grimme,  S. Hammes-Schiffer,  T. Head-Gordon,  
 W. J. Hehre,  Chao-Ping Hsu,  T.-C. Jagau,  Yousung Jung,  A. Klamt,  
 Jing Kong,  D. S. Lambrecht,  Xiangyuan Li,  WanZhen Liang,  N. J. Mayhall,  
 C. W. McCurdy,  J. B. Neaton,  T. Neudecker,  C. Ochsenfeld,  
 J. A. Parkhill,  R. Peverati,  V. A. Rassolov,  Haisheng Ren,  Yihan Shao,  
 L. V. Slipchenko,  R. P. Steele,  J. E. Subotnik,  A. J. W. Thom,  
 A. Tkatchenko,  D. G. Truhlar,  T. Van Voorhis,  Fan Wang,  
 T. A. Wesolowski,  K. B. Whaley,  H. L. Woodcock III,  P. M. Zimmerman,  
 S. Faraji,  P. M. W. Gill,  M. Head-Gordon,  J. M. Herbert,  A. I. Krylov

 Contributors to earlier versions of Q-Chem not listed above: 
 R. D. Adamson,  B. Austin,  R. Baer,  J. Baker,  G. J. O. Beran,  
 K. Brandhorst,  S. T. Brown,  E. F. C. Byrd,  Arup K. Chakraborty,  
 G. K. L. Chan,  Chun-Min Chang,  Yunqing Chen,  C.-L. Cheng,  
 Siu Hung Chien,  D. M. Chipman,  D. L. Crittenden,  H. Dachsel,  
 R. J. Doerksen,  A. D. Dutoi,  R. G. Edgar,  J. Fosso-Tande,  
 L. Fusti-Molnar,  D. Ghosh,  A. Ghysels,  A. Golubeva-Zadorozhnaya,  
 J. Gonthier,  M. S. Gordon,  S. R. Gwaltney,  G. Hawkins,  J. E. Herr,  
 A. Heyden,  S. Hirata,  E. G. Hohenstein,  G. Kedziora,  F. J. Keil,  
 C. Kelley,  Jihan Kim,  R. A. King,  R. Z. Khaliullin,  P. P. Korambath,  
 W. Kurlancheek,  A. Laurent,  A. M. Lee,  M. S. Lee,  S. V. Levchenko,  
 Ching Yeh Lin,  D. Liotard,  E. Livshits,  R. C. Lochan,  I. Lotan,  
 L. A. Martinez-Martinez,  P. E. Maslen,  N. Nair,  D. P. O'Neill,  
 D. Neuhauser,  E. Neuscamman,  C. M. Oana,  R. Olivares-Amaya,  R. Olson,  
 T. M. Perrine,  B. Peters,  P. A. Pieniazek,  A. Prociuk,  Y. M. Rhee,  
 J. Ritchie,  M. A. Rohrdanz,  E. Rosta,  N. J. Russ,  H. F. Schaefer III,  
 M. W. Schmidt,  N. E. Schultz,  S. Sharma,  N. Shenvi,  C. D. Sherrill,  
 A. C. Simmonett,  A. Sodt,  T. Stein,  D. Stuck,  K. S. Thanthiriwatte,  
 V. Vanovschi,  L. Vogt,  Tao Wang,  A. Warshel,  M. A. Watson,  
 C. F. Williams,  Q. Wu,  X. Xu,  Jun Yang,  W. Zhang,  Yan Zhao

   Please cite Q-Chem as follows:
  "Software for the frontiers of quantum chemistry:
   An overview of developments in the Q-Chem 5 package"
   J. Chem. Phys. 155, 084801 (2021)
   https://doi.org/10.1063/5.0055522 (open access)

 Q-Chem 6.0.1 for Intel X86 EM64T Linux

 Parts of Q-Chem use Armadillo 9.900.5 (Nocturnal Misbehaviour).
 http://arma.sourceforge.net/

 Q-Chem begins on Tue Oct 24 11:30:17 2023  

 Host: atlas-201
0

     Scratch files written to ./qchem19291//
 Processing $rem in /scratch/abel/SOFTWARE/qchem/config/preferences:
 Processing $rem in /dipc/acebg/.qchemrc:

 Checking the input file for inconsistencies... 	...done.

--------------------------------------------------------------
User input:
--------------------------------------------------------------
$comment
 RAS-SF CALCULATION
$end

$molecule
 READ o2.molecule
$end

$rem
!**CALCULATION TYPE***     
JOBTYPE            sp    
EXCHANGE           HF
CORRELATION        RASCI    !RASCI=Casanova; RASCI2=Zimmerman
BASIS              sto-3g

!***SCF REFERENCE***
!SKIP_SCFMAN        FALSE
UNRESTRICTED       FALSE
!SCF_GUESS          core
!SCF_GUESS_MIX      FALSE
!SCF_GUESS_ALWAYS   FALSE
MAX_SCF_CYCLES     500
!SCF_CONVERGENCE    8
SCF_ALGORITHM      DIIS_GDM !DIIS,DM,DIIS_DM,GDM,DIIS_GDM,GD

!SYMMETRY           TRUE !use of symmetry for calculating integrals
!SYM_IGNORE         FALSE !turn off using symmetry
!SYM_TOL            5 !tolerance for determining point group

!THRESH             14
SCF_FINAL_PRINT     1 !0,1,2,3

!****RAS-SF****
RAS_ROOTS          10       !number of RAS-CI roots to be computed
SET_ITER           150     !number of iterations in RASCI
RAS_ELEC           8       !number of electrons in RAS2
RAS_ELEC_ALPHA     5       !spin-α electrons in RAS2 
RAS_ELEC_BETA      3      !spin-β electrons in RAS2

RAS_ACT            6       !number of orbitals in RAS2 
RAS_ACT_ORB   [5, 6, 7, 8, 9, 10]  !user-selected RAS2 orbitals
RAS_OCC            4       !number of orbitals in RAS1
!N_FROZEN_CORE      0     !Number of frozen core orbitals
!N_FROZEN_VIRTUAL   0      !Number of frozen virtual orbitals

RAS_DO_HOLE        TRUE   !presence of hole excitations in RAS-CI wave function
RAS_DO_PART        TRUE   !presence of particle excitations
!RAS_AMPL_PRINT     10     !threshold (×10 2 ) for the CI amplitudes

!RAS_GUESS_CS       0      !number of closed shell guess conﬁgurations
!RAS_SPIN_MULT      0      !spin multiplicity: 0=any, 2n+1=defined 
!RAS_SRDFT          FALSE  !short-range density functional RAS-CI
!RAS_NFRAG          0     !fragments of excitation analysis in RASCI

RAS_PRINT          2      !level of information
RAS_NATORB         TRUE   !computation of the natural orbital occupancies
!RAS_NATORB_STATE  0      !Saves NO of i RAS computed state in .fchk ﬁle
!RAS_FOD            TRUE

!****RAS-SOC****
CALC_SOC           TRUE   !calculate SOC for EOM-CC, RAS-CI, ADC, TDDFT/TDA and TDDFT
!RAS_SOC_2E        TRUE   !two-electron mean-ﬁeld contribution, default=true
RAS_SOC_SYM_DENS   TRUE   !averaging of α and β densities

!****MEMORY****
MEM_TOTAL          60000 !Default 2000 MB
MEM_STATIC         16000  !Default 64 MB

!**Molecular Properties and Analysis **                                                                                          
!GUI                2
STATE_ANALYSIS     TRUE
MOLDEN_FORMAT      TRUE
PRINT_ORBITALS     20
$end                                           

--------------------------------------------------------------
 ----------------------------------------------------------------
             Standard Nuclear Orientation (Angstroms)
    I     Atom           X                Y                Z
 ----------------------------------------------------------------
    1      O       0.0000000000     0.0000000000    -0.6037600000
    2      O       0.0000000000     0.0000000000     0.6037600000
 ----------------------------------------------------------------
 Molecular Point Group                 D2h   NOp =  8
 Largest Abelian Subgroup              D2h   NOp =  8
 Nuclear Repulsion Energy =          28.04702323 hartrees
 There are        9 alpha and        7 beta electrons
 Requested basis set is STO-3G
 There are 4 shells and 10 basis functions

 Q-Chem warning in module libmdc/get_mega.C, line 167:

 Allowed MEM_STATIC has been capped at MEM_STATIC=8191.
 Reduce the value of MEM_STATIC to silence this warning.


 Total QAlloc Memory Limit  60000 MB
 Mega-Array Size      8007 MB
 MEM_STATIC part      8191 MB


                       Distance Matrix (Angstroms)
             O (  1)
   O (  2)  1.207520
 
 A cutoff of  1.0D-09 yielded     10 shell pairs
 There are        67 function pairs
 Smallest overlap matrix eigenvalue = 3.59E-01

 Scale SEOQF with 1.000000e+00/1.000000e+00/1.000000e+00

 Standard Electronic Orientation quadrupole field applied
 Nucleus-field energy     =    -0.0000000062 hartrees
 Guess from superposition of atomic densities
 Warning:  Energy on first SCF cycle will be non-variational
 SAD guess density has 16.000000 electrons

 -----------------------------------------------------------------------
  General SCF calculation program by
  Eric Jon Sundstrom, Paul Horn, Yuezhi Mao, Dmitri Zuev, Alec White,
  David Stuck, Shaama M.S., Shane Yost, Joonho Lee, David Small,
  Daniel Levine, Susi Lehtola, Hugh Burton, Evgeny Epifanovsky,
  Bang C. Huynh
 -----------------------------------------------------------------------
 Hartree-Fock
 Orthonormalizing orbitals
 A restricted open-shell SCF calculation will be
 performed using DIIS, GDM
 SCF converges when RMS gradient is below 1.0e-05
 ---------------------------------------
  Cycle       Energy         DIIS error
 ---------------------------------------
    1    -145.9440519879      8.11e-01  
    2    -147.5391993820      4.61e-01  
    3    -147.6273928465      1.25e-01  
    4    -147.6318082558      8.88e-03  Done DIIS. Switching to GDM
 ---------------------------------------
  Cycle       Energy        RMS Gradient
 ---------------------------------------
    1    -147.6318082558      2.37e-02   Normal BFGS step
    2    -147.6321516442      5.06e-03   Normal BFGS step
    3    -147.6321679744      1.10e-05   Normal BFGS step
    4    -147.6321679777      1.92e-07  Convergence criterion met
The disked orbital energies are calculated using alpha and beta Focks
 ---------------------------------------
 Alpha HF Exchange    Energy =  -9.07787385538795
 Beta HF Exchange     Energy =  -7.41293660492874
 Nuclear Attraction   Energy =   0.00000000000000
 One-Electron (alpha) Energy = -139.83564871704451
 One-Electron (beta)  Energy = -120.41545566192434
 Total Coulomb        Energy = 101.06272363744520
 Final Alpha MO Eigenvalues
            1           2           3           4           5           6
    1 -20.4405564 -20.4394746  -1.6152898  -1.0895426  -0.6182523  -0.7154102
            7           8           9          10
    1  -0.7154102  -0.4114877  -0.4114877   0.6935632
 Final Beta MO Eigenvalues
            1           2           3           4           5           6
    1 -20.4104816 -20.4103441  -1.4944935  -0.8957782  -0.5467067  -0.4462812
            7           8           9          10
    1  -0.4462812   0.2698799   0.2698799   0.7754193
 SCF time:   CPU 0.07s  wall 1.00s 
<S^2> =          2.000000000
 SCF   energy in the final basis set =     -147.6321679777
 Total energy in the final basis set =     -147.6321679777
  
     ##========================================##
     ||                                        ||
     ||              R A S M A N 2             ||
     ||________________________________________||
     ||                                        ||
     ||  Author:                               ||
     ||                                        ||
     ||        David Casanova (2010)           ||
     ||                                        ||
     ##========================================##
  
Setting single-point xc-functionals (if necessary)

  ***************************************************
  *  RAS-CI Dimensions:                             *
  *                                                 *
  *  Active Elec.:   8 ( 5, 3)   Active Orb.:   6   *
  *  Doubly Occ. :   4           Doubly Vir.:   0   *
  *  Frozen Occ. :   0           Frozen Vir.:   0   *
  *                                                 *
  *  Total CI configurations:       560             * 
  *    Active configurations:       120             * 
  *      Hole configurations:       440             * 
  *  Particle configurations:         0             * 
  *                                                 *
  *   Requested states:       10                    *
  *  Spin multiplicity: Any multiplicity            *
  *                                                 *
  ***************************************************
-----------------------------------------
    Memory requirements of RASCI

 Each CI-vector requires      0.00 MiB 
 Max. subspace vectors            560      

 Reduced Lists                0.00 MiB 
 Excitation Lists             0.00 MiB 
 Excitation Lists Sign        0.00 MiB 
 CI-space (Max)               4.83 MiB 
 Integrals                    0.05 MiB 
 Memory required (Max)        4.83 MiB 
 Memory available          7811.55 MiB 

    Disk requirements of RASCI

 Fock matrix                  0.00 MiB 
 2-electron integrals         0.05 MiB 
 CI-space                     4.79 MiB 
 Disk required                4.84 MiB 
-----------------------------------------
  
RAS1 HF-like energy:           -127.4419124436
 Computing integrals
 Computing J and K matrices
 Computing addressing
 Making amplitude guesses
 
Direct CI diagonalization
 ---------------------------------------------------
 Iter    Rts Conv    Rts Left    Ttl Dev     Max Dev
 ---------------------------------------------------
   1         0          10      0.138017    0.022541
   2         0          10      0.078921    0.012701
   3         0          10      0.070385    0.015544
   4         0          10      0.022419    0.004798
   5         0          10      0.035032    0.007971
   6         0          10      0.009566    0.002662
   7         0          10      0.017665    0.006197
   8         0          10      0.009666    0.003814
   9         0          10      0.004513    0.001838
  10         0          10      0.006268    0.002526
  11         1           9      0.003532    0.001593
  12         1           9      0.005114    0.002392
  13         3           7      0.008495    0.004174
  14         4           6      0.026897    0.011830
  15         4           6      0.037339    0.017295
  16         4           6      0.014086    0.006540
  17         4           6      0.004873    0.002274
  18         6           4      0.005644    0.002807
  19         7           3      0.000802    0.000374
  20         7           3      0.001120    0.000633
  21         7           3      0.000307    0.000145
  22         7           3      0.000174    0.000084
  23         7           3      0.000155    0.000074
  24         8           2      0.000034    0.000015
  25         8           2      0.000041    0.000020
  26         8           2      0.000009    0.000002
  27         9           1      0.000009    0.000003
  28         9           1      0.000007    0.000001
  29        10           0      0.000007    0.000001    Roots Converged
 ---------------------------------------------------
   
**************************************************
 RAS-CI total energy for state   1:   -147.739714581450
  Excitation energy (eV) =  0.000000000000
  State symmetry: B1g   (D2h      )
  <S^2>      :  2.0000
  Dipole Moment:    0.0000 X     0.0000 Y    -0.0000 Z
 NATURAL OCCUPATION NUMBERS (higher than 1.0E-05)
            1           2           3           4           5           6
    1   2.0000000   1.9999996   1.9996297   1.9975999   1.9600402   1.9560034
            7           8           9          10
    1   1.9560034   1.0431474   1.0431474   0.0444290
 Created directory ./qchem19291/plots

  Amplitudes : 
  
 | HOLE  | ALPHA  | BETA   | PART  |    AMPLITUDE 
--------------------------------------------------
 |       | 111110 | 111000 |       |     9.6684631831444E-01
 |       | 111110 | 100110 |       |    -1.6867857794357E-01
--------------------------------------------------
*** Contributions RASCI wfn    Active:  99.28
                                 Hole:   0.72
                                 Part:   0.00

      Mulliken population analysis 
 ---------------------------------------------------
   Atom    Charge (a.u.)   Spin (a.u.)  
 ---------------------------------------------------
   1  O    0.000000        1.000000 
   2  O    0.000000        1.000000 
 ---------------------------------------------------
   Sum:    0.000000        2.000000 
 ---------------------------------------------------
 
  
 NATURAL OCCUPATION NUMBERS (higher than 1.0E-05)
            1           2           3           4           5           6
    1   2.0000000   1.9999996   1.9996297   1.9975999   1.9600402   1.9560034
            7           8           9          10
    1   1.9560034   1.0431474   1.0431474   0.0444290
  
*** Unpaired Electrons
 Yamaguchi Nd:         2.34
 Head-Gordon Nu:       2.09
 Head-Gordon Nu_nl:    2.02
  
**************************************************
 RAS-CI total energy for state   2:   -147.511568844826
  Excitation energy (eV) =  6.208161354914
  State symmetry: Au    (D2h      )
  <S^2>      :  2.0000
  Dipole Moment:    0.0000 X    -0.0000 Y    -0.0000 Z
  Trans. Moment:   -0.0000 X     0.0000 Y    -0.0000 Z
  Strength   :  0.000000
  Natural transition orbitals ( 1 -> 2 ):
   e-/hole pair  1 alpha:  ampl =  0.000403 (  0.0%)   [6 : 7]
   e-/hole pair  2 alpha:  ampl =  0.000403 (  0.0%)   [5 : 8]
   e-/hole pair  1 beta :  ampl =  0.684977 ( 46.9%)   [6 : 7]
   e-/hole pair  2 beta :  ampl =  0.684977 ( 46.9%)   [5 : 8]
   Sum of square amplitudes: 0.97

 NATURAL OCCUPATION NUMBERS (higher than 1.0E-05)
            1           2           3           4           5           6
    1   2.0000000   1.9999998   1.9992184   1.9985034   1.9754106   1.5007790
            7           8           9          10
    1   1.5007790   1.4980191   1.4980191   0.0292716

  Amplitudes : 
  
 | HOLE  | ALPHA  | BETA   | PART  |    AMPLITUDE 
--------------------------------------------------
 |       | 111110 | 110010 |       |     6.9995665217961E-01
 |       | 111110 | 101100 |       |     6.9995665217960E-01
--------------------------------------------------
*** Contributions RASCI wfn    Active:  99.43
                                 Hole:   0.57
                                 Part:   0.00

      Mulliken population analysis 
 ---------------------------------------------------
   Atom    Charge (a.u.)   Spin (a.u.)  
 ---------------------------------------------------
   1  O    0.000000        1.000000 
   2  O    0.000000        1.000000 
 ---------------------------------------------------
   Sum:    0.000000        2.000000 
 ---------------------------------------------------
 
  
 NATURAL OCCUPATION NUMBERS (higher than 1.0E-05)
            1           2           3           4           5           6
    1   2.0000000   1.9999998   1.9992184   1.9985034   1.9754106   1.5007790
            7           8           9          10
    1   1.5007790   1.4980191   1.4980191   0.0292716
  
*** Unpaired Electrons
 Yamaguchi Nd:         3.11
 Head-Gordon Nu:       2.06
 Head-Gordon Nu_nl:    2.26
  
**************************************************
 RAS-CI total energy for state   3:   -147.511568844826
  Excitation energy (eV) =  6.208161354915
  State symmetry: B1u   (D2h      )
  <S^2>      :  2.0000
  Dipole Moment:    0.0000 X    -0.0000 Y    -0.0000 Z
  Trans. Moment:   -0.0000 X     0.0000 Y     0.0000 Z
  Strength   :  0.000000
  Natural transition orbitals ( 1 -> 3 ):
   e-/hole pair  1 alpha:  ampl =  0.000403 (  0.0%)   [6 : 7]
   e-/hole pair  2 alpha:  ampl =  0.000403 (  0.0%)   [5 : 8]
   e-/hole pair  1 beta :  ampl =  0.684977 ( 46.9%)   [6 : 7]
   e-/hole pair  2 beta :  ampl =  0.684977 ( 46.9%)   [5 : 8]
   Sum of square amplitudes: 0.97

 NATURAL OCCUPATION NUMBERS (higher than 1.0E-05)
            1           2           3           4           5           6
    1   2.0000000   1.9999998   1.9992184   1.9985034   1.9754106   1.5007790
            7           8           9          10
    1   1.5007790   1.4980191   1.4980191   0.0292716

  Amplitudes : 
  
 | HOLE  | ALPHA  | BETA   | PART  |    AMPLITUDE 
--------------------------------------------------
 |       | 111110 | 110100 |       |     6.9995665218079E-01
 |       | 111110 | 101010 |       |    -6.9995665217842E-01
--------------------------------------------------
*** Contributions RASCI wfn    Active:  99.43
                                 Hole:   0.57
                                 Part:   0.00

      Mulliken population analysis 
 ---------------------------------------------------
   Atom    Charge (a.u.)   Spin (a.u.)  
 ---------------------------------------------------
   1  O    0.000000        1.000000 
   2  O    0.000000        1.000000 
 ---------------------------------------------------
   Sum:    0.000000        2.000000 
 ---------------------------------------------------
 
  
 NATURAL OCCUPATION NUMBERS (higher than 1.0E-05)
            1           2           3           4           5           6
    1   2.0000000   1.9999998   1.9992184   1.9985034   1.9754106   1.5007790
            7           8           9          10
    1   1.5007790   1.4980191   1.4980191   0.0292716
  
*** Unpaired Electrons
 Yamaguchi Nd:         3.11
 Head-Gordon Nu:       2.06
 Head-Gordon Nu_nl:    2.26
  
**************************************************
 RAS-CI total energy for state   4:   -147.506768110174
  Excitation energy (eV) =  6.338795991268
  State symmetry: B1u   (D2h      )
  <S^2>      :  2.0000
  Dipole Moment:   -0.0000 X     0.0000 Y    -0.0000 Z
  Trans. Moment:    0.0000 X    -0.0000 Y     0.0000 Z
  Strength   :  0.000000
  Natural transition orbitals ( 1 -> 4 ):
   e-/hole pair  1 alpha:  ampl =  0.001230 (  0.0%)   [6 : 7]
   e-/hole pair  2 alpha:  ampl =  0.001230 (  0.0%)   [5 : 8]
   e-/hole pair  1 beta :  ampl =  0.684915 ( 46.9%)   [6 : 7]
   e-/hole pair  2 beta :  ampl =  0.684915 ( 46.9%)   [5 : 8]
   Sum of square amplitudes: 0.97

 NATURAL OCCUPATION NUMBERS (higher than 1.0E-05)
            1           2           3           4           5           6
    1   2.0000000   1.9999998   1.9991903   1.9984694   1.9754766   1.5007807
            7           8           9          10
    1   1.5007807   1.4978935   1.4978935   0.0295155

  Amplitudes : 
  
 | HOLE  | ALPHA  | BETA   | PART  |    AMPLITUDE 
--------------------------------------------------
 |       | 111110 | 110100 |       |     7.0081107252564E-01
 |       | 111110 | 101010 |       |     7.0081107252802E-01
--------------------------------------------------
*** Contributions RASCI wfn    Active:  99.42
                                 Hole:   0.58
                                 Part:   0.00

      Mulliken population analysis 
 ---------------------------------------------------
   Atom    Charge (a.u.)   Spin (a.u.)  
 ---------------------------------------------------
   1  O    0.000000        1.000000 
   2  O    0.000000        1.000000 
 ---------------------------------------------------
   Sum:    0.000000        2.000000 
 ---------------------------------------------------
 
  
 NATURAL OCCUPATION NUMBERS (higher than 1.0E-05)
            1           2           3           4           5           6
    1   2.0000000   1.9999998   1.9991903   1.9984694   1.9754766   1.5007807
            7           8           9          10
    1   1.5007807   1.4978935   1.4978935   0.0295155
  
*** Unpaired Electrons
 Yamaguchi Nd:         3.11
 Head-Gordon Nu:       2.06
 Head-Gordon Nu_nl:    2.26
  
**************************************************
 RAS-CI total energy for state   5:   -147.430145755112
  Excitation energy (eV) =  8.423796354022
  State symmetry: B2g   (D2h      )
  <S^2>      :  2.0000
  Dipole Moment:   -0.0000 X     0.0000 Y     0.0000 Z
  Trans. Moment:   -0.0000 X    -0.0000 Y     0.0000 Z
  Strength   :  0.000000
  Natural transition orbitals ( 1 -> 5 ):
   e-/hole pair  1 alpha:  ampl =  0.013416 (  0.0%)   [6 : 7]
   e-/hole pair  2 alpha:  ampl =  0.011625 (  0.0%)   [5 : 8]
   e-/hole pair  1 beta :  ampl =  0.958496 ( 91.9%)   [6 : 7]
   e-/hole pair  2 beta :  ampl =  0.079802 (  0.6%)   [5 : 8]
   Sum of square amplitudes: 0.93

 NATURAL OCCUPATION NUMBERS (higher than 1.0E-05)
            1           2           3           4           5           6
    1   1.9999997   1.9999996   1.9986157   1.9966329   1.9965764   1.9782547
            7           8           9          10
    1   1.9712552   1.0267659   1.0027246   0.0291753

  Amplitudes : 
  
 | HOLE  | ALPHA  | BETA   | PART  |    AMPLITUDE 
--------------------------------------------------
 |       | 111110 | 011010 |       |     9.7940341623956E-01
 |       | 011111 | 001110 |       |     1.0254366417028E-01
 |   4   | 111110 | 101110 |       |     1.1394323235242E-01
--------------------------------------------------
*** Contributions RASCI wfn    Active:  97.34
                                 Hole:   2.66
                                 Part:   0.00

      Mulliken population analysis 
 ---------------------------------------------------
   Atom    Charge (a.u.)   Spin (a.u.)  
 ---------------------------------------------------
   1  O    0.000000        1.000000 
   2  O    0.000000        1.000000 
 ---------------------------------------------------
   Sum:    0.000000        2.000000 
 ---------------------------------------------------
 
  
 NATURAL OCCUPATION NUMBERS (higher than 1.0E-05)
            1           2           3           4           5           6
    1   1.9999997   1.9999996   1.9986157   1.9966329   1.9965764   1.9782547
            7           8           9          10
    1   1.9712552   1.0267659   1.0027246   0.0291753
  
*** Unpaired Electrons
 Yamaguchi Nd:         2.17
 Head-Gordon Nu:       2.06
 Head-Gordon Nu_nl:    2.01
  
**************************************************
 RAS-CI total energy for state   6:   -147.430145755112
  Excitation energy (eV) =  8.423796354022
  State symmetry: B3g   (D2h      )
  <S^2>      :  2.0000
  Dipole Moment:    0.0000 X     0.0000 Y    -0.0000 Z
  Trans. Moment:   -0.0000 X    -0.0000 Y    -0.0000 Z
  Strength   :  0.000000
  Natural transition orbitals ( 1 -> 6 ):
   e-/hole pair  1 alpha:  ampl =  0.013416 (  0.0%)   [6 : 7]
   e-/hole pair  2 alpha:  ampl =  0.011625 (  0.0%)   [5 : 8]
   e-/hole pair  1 beta :  ampl =  0.958496 ( 91.9%)   [6 : 7]
   e-/hole pair  2 beta :  ampl =  0.079802 (  0.6%)   [5 : 8]
   Sum of square amplitudes: 0.93

 NATURAL OCCUPATION NUMBERS (higher than 1.0E-05)
            1           2           3           4           5           6
    1   1.9999997   1.9999996   1.9986157   1.9966329   1.9965764   1.9782547
            7           8           9          10
    1   1.9712552   1.0267659   1.0027246   0.0291753

  Amplitudes : 
  
 | HOLE  | ALPHA  | BETA   | PART  |    AMPLITUDE 
--------------------------------------------------
 |       | 111110 | 011100 |       |     9.7940341623956E-01
 |       | 011111 | 010110 |       |     1.0254366417028E-01
 |   4   | 111110 | 110110 |       |     1.1394323235242E-01
--------------------------------------------------
*** Contributions RASCI wfn    Active:  97.34
                                 Hole:   2.66
                                 Part:   0.00

      Mulliken population analysis 
 ---------------------------------------------------
   Atom    Charge (a.u.)   Spin (a.u.)  
 ---------------------------------------------------
   1  O    0.000000        1.000000 
   2  O    0.000000        1.000000 
 ---------------------------------------------------
   Sum:    0.000000        2.000000 
 ---------------------------------------------------
 
  
 NATURAL OCCUPATION NUMBERS (higher than 1.0E-05)
            1           2           3           4           5           6
    1   1.9999997   1.9999996   1.9986157   1.9966329   1.9965764   1.9782547
            7           8           9          10
    1   1.9712552   1.0267659   1.0027246   0.0291753
  
*** Unpaired Electrons
 Yamaguchi Nd:         2.17
 Head-Gordon Nu:       2.06
 Head-Gordon Nu_nl:    2.01
  
**************************************************
 RAS-CI total energy for state   7:   -147.347197109361
  Excitation energy (eV) = 10.680943844974
  State symmetry: Au    (D2h      )
  <S^2>      :  2.0000
  Dipole Moment:   -0.0000 X     0.0000 Y    -0.0000 Z
  Trans. Moment:    0.0000 X    -0.0000 Y     0.6313 Z
  Strength   :  0.104300
  Natural transition orbitals ( 1 -> 7 ):
   e-/hole pair  1 alpha:  ampl =  0.281712 (  7.9%)   [6 : 7]
   e-/hole pair  2 alpha:  ampl =  0.097782 (  1.0%)   [5 : 8]
   e-/hole pair  1 beta :  ampl =  0.635696 ( 40.4%)   [6 : 7]
   e-/hole pair  2 beta :  ampl =  0.635696 ( 40.4%)   [5 : 8]
   Sum of square amplitudes: 0.95

 NATURAL OCCUPATION NUMBERS (higher than 1.0E-05)
            1           2           3           4           5           6
    1   2.0000000   1.9999989   1.9981320   1.9951849   1.8165802   1.5613473
            7           8           9          10
    1   1.5613473   1.4354339   1.4354339   0.1965415

  Amplitudes : 
  
 | HOLE  | ALPHA  | BETA   | PART  |    AMPLITUDE 
--------------------------------------------------
 |       | 111110 | 110010 |       |    -6.3455473983418E-01
 |       | 111110 | 101100 |       |     6.3455473983419E-01
 |       | 111110 | 011001 |       |     2.2486287922845E-01
 |       | 111110 | 000111 |       |     1.1239161166576E-01
 |       | 011111 | 111000 |       |     3.0472465833551E-01
 |       | 011111 | 100110 |       |     1.2004874988042E-01
--------------------------------------------------
*** Contributions RASCI wfn    Active:  98.22
                                 Hole:   1.78
                                 Part:   0.00

      Mulliken population analysis 
 ---------------------------------------------------
   Atom    Charge (a.u.)   Spin (a.u.)  
 ---------------------------------------------------
   1  O    0.000000        1.000000 
   2  O    0.000000        1.000000 
 ---------------------------------------------------
   Sum:    0.000000        2.000000 
 ---------------------------------------------------
 
  
 NATURAL OCCUPATION NUMBERS (higher than 1.0E-05)
            1           2           3           4           5           6
    1   2.0000000   1.9999989   1.9981320   1.9951849   1.8165802   1.5613473
            7           8           9          10
    1   1.5613473   1.4354339   1.4354339   0.1965415
  
*** Unpaired Electrons
 Yamaguchi Nd:         3.69
 Head-Gordon Nu:       2.39
 Head-Gordon Nu_nl:    2.49
  
**************************************************
 RAS-CI total energy for state   8:   -147.299076557864
  Excitation energy (eV) = 11.990370672749
  Warning: not all configurations have same symmetry
  State symmetry: *B3u   (D2h      )
  <S^2>      :  2.0000
  Dipole Moment:    0.0000 X    -0.0000 Y    -0.0000 Z
  Trans. Moment:   -0.0229 X     0.0532 Y     0.0000 Z
  Strength   :  0.000985
  Natural transition orbitals ( 1 -> 8 ):
   e-/hole pair  1 alpha:  ampl =  0.934974 ( 87.4%)   [6 : 7]
   e-/hole pair  2 alpha:  ampl =  0.038449 (  0.1%)   [5 : 8]
   e-/hole pair  1 beta :  ampl =  0.113277 (  1.3%)   [6 : 7]
   e-/hole pair  2 beta :  ampl =  0.022420 (  0.1%)   [5 : 8]
   Sum of square amplitudes: 0.89

 NATURAL OCCUPATION NUMBERS (higher than 1.0E-05)
            1           2           3           4           5           6
    1   2.0000000   1.9999996   1.9973539   1.9863461   1.9785039   1.9545931
            7           8           9          10
    1   1.8521229   1.0438408   1.0029880   0.1842518

  Amplitudes : 
  
 | HOLE  | ALPHA  | BETA   | PART  |    AMPLITUDE 
--------------------------------------------------
 |       | 111101 | 111000 |       |    -8.6146755882084E-01
 |       | 111011 | 111000 |       |     3.7176994532276E-01
 |       | 110111 | 110010 |       |    -2.0399636879814E-01
 |       | 110111 | 101100 |       |     1.3183123214263E-01
 |   4   | 111110 | 111010 |       |     1.0612571700119E-01
--------------------------------------------------
*** Contributions RASCI wfn    Active:  98.15
                                 Hole:   1.85
                                 Part:   0.00

      Mulliken population analysis 
 ---------------------------------------------------
   Atom    Charge (a.u.)   Spin (a.u.)  
 ---------------------------------------------------
   1  O    0.000000        1.000000 
   2  O    0.000000        1.000000 
 ---------------------------------------------------
   Sum:    0.000000        2.000000 
 ---------------------------------------------------
 
  
 NATURAL OCCUPATION NUMBERS (higher than 1.0E-05)
            1           2           3           4           5           6
    1   2.0000000   1.9999996   1.9973539   1.9863461   1.9785039   1.9545931
            7           8           9          10
    1   1.8521229   1.0438408   1.0029880   0.1842518
  
*** Unpaired Electrons
 Yamaguchi Nd:         2.77
 Head-Gordon Nu:       2.37
 Head-Gordon Nu_nl:    2.19
  
**************************************************
 RAS-CI total energy for state   9:   -147.299076557856
  Excitation energy (eV) = 11.990370672967
  Warning: not all configurations have same symmetry
  State symmetry: *B2u   (D2h      )
  <S^2>      :  2.0000
  Dipole Moment:    0.0000 X     0.0000 Y    -0.0000 Z
  Trans. Moment:   -0.0532 X    -0.0229 Y     0.0000 Z
  Strength   :  0.000985
  Natural transition orbitals ( 1 -> 9 ):
   e-/hole pair  1 alpha:  ampl =  0.934975 ( 87.4%)   [6 : 7]
   e-/hole pair  2 alpha:  ampl =  0.038449 (  0.1%)   [5 : 8]
   e-/hole pair  1 beta :  ampl =  0.113277 (  1.3%)   [6 : 7]
   e-/hole pair  2 beta :  ampl =  0.022420 (  0.1%)   [5 : 8]
   Sum of square amplitudes: 0.89

 NATURAL OCCUPATION NUMBERS (higher than 1.0E-05)
            1           2           3           4           5           6
    1   2.0000000   1.9999996   1.9973539   1.9863461   1.9785037   1.9545935
            7           8           9          10
    1   1.8521242   1.0438405   1.0029883   0.1842503

  Amplitudes : 
  
 | HOLE  | ALPHA  | BETA   | PART  |    AMPLITUDE 
--------------------------------------------------
 |       | 111101 | 111000 |       |     3.7177016748546E-01
 |       | 111011 | 111000 |       |     8.6146807361936E-01
 |       | 101111 | 110010 |       |     1.3183125698941E-01
 |       | 101111 | 101100 |       |    -2.0399542214754E-01
 |   4   | 111110 | 111100 |       |     1.0612548839687E-01
--------------------------------------------------
*** Contributions RASCI wfn    Active:  98.15
                                 Hole:   1.85
                                 Part:   0.00

      Mulliken population analysis 
 ---------------------------------------------------
   Atom    Charge (a.u.)   Spin (a.u.)  
 ---------------------------------------------------
   1  O    0.000000        1.000000 
   2  O    0.000000        1.000000 
 ---------------------------------------------------
   Sum:    0.000000        2.000000 
 ---------------------------------------------------
 
  
 NATURAL OCCUPATION NUMBERS (higher than 1.0E-05)
            1           2           3           4           5           6
    1   2.0000000   1.9999996   1.9973539   1.9863461   1.9785037   1.9545935
            7           8           9          10
    1   1.8521242   1.0438405   1.0029883   0.1842503
  
*** Unpaired Electrons
 Yamaguchi Nd:         2.77
 Head-Gordon Nu:       2.37
 Head-Gordon Nu_nl:    2.19
  
**************************************************
 RAS-CI total energy for state  10:   -147.161033745257
  Excitation energy (eV) = 15.746706720212
  Warning: not all configurations have same symmetry
  State symmetry: *B3u   (D2h      )
  <S^2>      :  2.0000
  Dipole Moment:    0.0000 X    -0.0000 Y     0.0000 Z
  Trans. Moment:    0.1383 X    -0.3206 Y     0.0000 Z
  Strength   :  0.047028
  Natural transition orbitals ( 1 -> 10 ):
   e-/hole pair  1 alpha:  ampl =  0.068762 (  0.5%)   [6 : 7]
   e-/hole pair  2 alpha:  ampl =  0.009919 (  0.0%)   [5 : 8]
   e-/hole pair  1 beta :  ampl =  0.494340 ( 24.4%)   [6 : 7]
   e-/hole pair  2 beta :  ampl =  0.134702 (  1.8%)   [5 : 8]
   Sum of square amplitudes: 0.27

 NATURAL OCCUPATION NUMBERS (higher than 1.0E-05)
            1           2           3           4           5           6
    1   1.9999999   1.9999997   1.9961537   1.9924727   1.9875850   1.7366578
            7           8           9          10
    1   1.7156654   1.2822061   1.2562951   0.0329646

  Amplitudes : 
  
 | HOLE  | ALPHA  | BETA   | PART  |    AMPLITUDE 
--------------------------------------------------
 |       | 111110 | 010110 |       |     3.3442558466487E-01
 |       | 111110 | 001110 |       |     7.7493306829974E-01
 |   4   | 111110 | 111100 |       |     2.0188958526161E-01
 |   4   | 111110 | 111010 |       |     4.6781981684111E-01
--------------------------------------------------
*** Contributions RASCI wfn    Active:  72.90
                                 Hole:  27.10
                                 Part:   0.00

      Mulliken population analysis 
 ---------------------------------------------------
   Atom    Charge (a.u.)   Spin (a.u.)  
 ---------------------------------------------------
   1  O    0.000000        1.000000 
   2  O    0.000000        1.000000 
 ---------------------------------------------------
   Sum:    0.000000        2.000000 
 ---------------------------------------------------
 
  
 NATURAL OCCUPATION NUMBERS (higher than 1.0E-05)
            1           2           3           4           5           6
    1   1.9999999   1.9999997   1.9961537   1.9924727   1.9875850   1.7366578
            7           8           9          10
    1   1.7156654   1.2822061   1.2562951   0.0329646
  
*** Unpaired Electrons
 Yamaguchi Nd:         2.91
 Head-Gordon Nu:       2.07
 Head-Gordon Nu_nl:    2.17
  
--------------------------------------------------
 Interstate Transition Properties
--------------------------------------------------
State A: Root  1
State B: Root  2
  
Angular momentum components
< B | Lx | A > =     0.000000000i
< B | Ly | A > =    -0.000000000i
< B | Lz | A > =     0.000000000i
  
Norm of one-particle transition density matrix
||gamma^AB||_total       =  0.983783
||gamma^AB||_symmetrized =  0.806305
||gamma^AB||_anti-symm   =  0.563649
  
Spin-orbit couplings
 Using HF (reference) density for the 2-elec mean-field SOC contribution
KET: S',Sz' (Root   1) =  1.000 1.000
BRA: S ,Sz  (Root   2) =  1.000 1.000
Clebsh-Gordan coefficient: < 1.000, 1.000; 1.000, 0.000| 1.000, 1.000> =  0.707
 Computing 1e-SO integrals
 1e Reduced matrix elements (cm-1)
<S|| Hso(L-) ||S'> =    -0.0000000000     0.0000000000
<S|| Hso(L0) ||S'> =     0.0000000000    -0.0000000000
<S|| Hso(L+) ||S'> =    -0.0000000000    -0.0000000000
 1-elec SOC matrix (cm-1): < B(S,Sz) | Hso(1e) | A(S',Sz') >
                     |Sz'=-1.00>              |Sz'= 0.00>              |Sz'= 1.00>
 <Sz=-1.00|    0.000000    0.000000i    -0.000000   -0.000000i    -0.000000   -0.000000i
 <Sz= 0.00|    0.000000   -0.000000i     0.000000    0.000000i    -0.000000   -0.000000i
 <Sz= 1.00|   -0.000000   -0.000000i     0.000000   -0.000000i     0.000000   -0.000000i
1-elec SOCC =     0.000000000 cm-1
 Computing 2e-SOMF integrals
 Averagin spin alpha/beta reference densities
 2e-SOMF Reduced matrix elements (cm-1)
<S|| Hso(L-) ||S'> =     0.0000000000    -0.0000000000
<S|| Hso(L0) ||S'> =     0.0000000000     0.0000000000
<S|| Hso(L+) ||S'> =     0.0000000000     0.0000000000
 2-elec mean-field SOC matrix (cm-1): < B(S,Sz) | Hso(2e-mf) | A(S',Sz') >
                     |Sz'=-1.00>              |Sz'= 0.00>              |Sz'= 1.00>
 <Sz=-1.00|   -0.000000   -0.000000i     0.000000    0.000000i     0.000000    0.000000i
 <Sz= 0.00|   -0.000000    0.000000i    -0.000000   -0.000000i     0.000000    0.000000i
 <Sz= 1.00|    0.000000    0.000000i    -0.000000    0.000000i    -0.000000    0.000000i
 Total mean-field SOC matrix (cm-1): < B(S,Sz) | Hsomf | A(S',Sz') >
                     |Sz'=-1.00>              |Sz'= 0.00>              |Sz'= 1.00>
 <Sz=-1.00|    0.000000    0.000000i    -0.000000   -0.000000i    -0.000000   -0.000000i
 <Sz= 0.00|    0.000000   -0.000000i     0.000000    0.000000i    -0.000000   -0.000000i
 <Sz= 1.00|   -0.000000   -0.000000i     0.000000   -0.000000i     0.000000   -0.000000i
Mean-Field SOCC =     0.000000000 cm-1
   
**************************************************
State A: Root  1
State B: Root  3
  
Angular momentum components
< B | Lx | A > =     0.000000000i
< B | Ly | A > =     0.000000000i
< B | Lz | A > =     0.000000000i
  
Norm of one-particle transition density matrix
||gamma^AB||_total       =  0.983783
||gamma^AB||_symmetrized =  0.806305
||gamma^AB||_anti-symm   =  0.563649
  
Spin-orbit couplings
 Using HF (reference) density for the 2-elec mean-field SOC contribution
KET: S',Sz' (Root   1) =  1.000 1.000
BRA: S ,Sz  (Root   3) =  1.000 1.000
Clebsh-Gordan coefficient: < 1.000, 1.000; 1.000, 0.000| 1.000, 1.000> =  0.707
 Reading 1e-SO integrals
 1e Reduced matrix elements (cm-1)
<S|| Hso(L-) ||S'> =     0.0000000000     0.0000000000
<S|| Hso(L0) ||S'> =     0.0000000000    -0.0000000000
<S|| Hso(L+) ||S'> =     0.0000000000    -0.0000000000
 1-elec SOC matrix (cm-1): < B(S,Sz) | Hso(1e) | A(S',Sz') >
                     |Sz'=-1.00>              |Sz'= 0.00>              |Sz'= 1.00>
 <Sz=-1.00|   -0.000000    0.000000i     0.000000   -0.000000i     0.000000   -0.000000i
 <Sz= 0.00|   -0.000000   -0.000000i    -0.000000    0.000000i     0.000000   -0.000000i
 <Sz= 1.00|    0.000000    0.000000i    -0.000000   -0.000000i    -0.000000   -0.000000i
1-elec SOCC =     0.000000000 cm-1
 Reading 2e-SOMF integrals
 2e-SOMF Reduced matrix elements (cm-1)
<S|| Hso(L-) ||S'> =    -0.0000000000    -0.0000000000
<S|| Hso(L0) ||S'> =     0.0000000000     0.0000000000
<S|| Hso(L+) ||S'> =    -0.0000000000     0.0000000000
 2-elec mean-field SOC matrix (cm-1): < B(S,Sz) | Hso(2e-mf) | A(S',Sz') >
                     |Sz'=-1.00>              |Sz'= 0.00>              |Sz'= 1.00>
 <Sz=-1.00|    0.000000   -0.000000i    -0.000000    0.000000i    -0.000000    0.000000i
 <Sz= 0.00|    0.000000    0.000000i     0.000000   -0.000000i    -0.000000    0.000000i
 <Sz= 1.00|   -0.000000   -0.000000i     0.000000    0.000000i     0.000000    0.000000i
 Total mean-field SOC matrix (cm-1): < B(S,Sz) | Hsomf | A(S',Sz') >
                     |Sz'=-1.00>              |Sz'= 0.00>              |Sz'= 1.00>
 <Sz=-1.00|   -0.000000    0.000000i     0.000000   -0.000000i     0.000000   -0.000000i
 <Sz= 0.00|   -0.000000   -0.000000i    -0.000000    0.000000i     0.000000   -0.000000i
 <Sz= 1.00|    0.000000    0.000000i    -0.000000   -0.000000i    -0.000000   -0.000000i
Mean-Field SOCC =     0.000000000 cm-1
   
**************************************************
State A: Root  1
State B: Root  4
  
Angular momentum components
< B | Lx | A > =     0.000000000i
< B | Ly | A > =     0.000000000i
< B | Lz | A > =     0.000000000i
  
Norm of one-particle transition density matrix
||gamma^AB||_total       =  0.983695
||gamma^AB||_symmetrized =  0.563599
||gamma^AB||_anti-symm   =  0.806233
  
Spin-orbit couplings
 Using HF (reference) density for the 2-elec mean-field SOC contribution
KET: S',Sz' (Root   1) =  1.000 1.000
BRA: S ,Sz  (Root   4) =  1.000 1.000
Clebsh-Gordan coefficient: < 1.000, 1.000; 1.000, 0.000| 1.000, 1.000> =  0.707
 Reading 1e-SO integrals
 1e Reduced matrix elements (cm-1)
<S|| Hso(L-) ||S'> =     0.0000000000     0.0000000000
<S|| Hso(L0) ||S'> =     0.0000000000    -0.0000000000
<S|| Hso(L+) ||S'> =     0.0000000000    -0.0000000000
 1-elec SOC matrix (cm-1): < B(S,Sz) | Hso(1e) | A(S',Sz') >
                     |Sz'=-1.00>              |Sz'= 0.00>              |Sz'= 1.00>
 <Sz=-1.00|   -0.000000    0.000000i     0.000000   -0.000000i     0.000000   -0.000000i
 <Sz= 0.00|   -0.000000   -0.000000i    -0.000000    0.000000i     0.000000   -0.000000i
 <Sz= 1.00|    0.000000    0.000000i    -0.000000   -0.000000i    -0.000000   -0.000000i
1-elec SOCC =     0.000000000 cm-1
 Reading 2e-SOMF integrals
 2e-SOMF Reduced matrix elements (cm-1)
<S|| Hso(L-) ||S'> =    -0.0000000000    -0.0000000000
<S|| Hso(L0) ||S'> =     0.0000000000     0.0000000000
<S|| Hso(L+) ||S'> =    -0.0000000000     0.0000000000
 2-elec mean-field SOC matrix (cm-1): < B(S,Sz) | Hso(2e-mf) | A(S',Sz') >
                     |Sz'=-1.00>              |Sz'= 0.00>              |Sz'= 1.00>
 <Sz=-1.00|    0.000000   -0.000000i    -0.000000    0.000000i    -0.000000    0.000000i
 <Sz= 0.00|    0.000000    0.000000i     0.000000   -0.000000i    -0.000000    0.000000i
 <Sz= 1.00|   -0.000000   -0.000000i     0.000000    0.000000i     0.000000    0.000000i
 Total mean-field SOC matrix (cm-1): < B(S,Sz) | Hsomf | A(S',Sz') >
                     |Sz'=-1.00>              |Sz'= 0.00>              |Sz'= 1.00>
 <Sz=-1.00|   -0.000000    0.000000i     0.000000   -0.000000i     0.000000   -0.000000i
 <Sz= 0.00|   -0.000000   -0.000000i    -0.000000    0.000000i     0.000000   -0.000000i
 <Sz= 1.00|    0.000000    0.000000i    -0.000000   -0.000000i    -0.000000   -0.000000i
Mean-Field SOCC =     0.000000000 cm-1
   
**************************************************
State A: Root  1
State B: Root  5
  
Angular momentum components
< B | Lx | A > =     1.210065245i
< B | Ly | A > =     0.022456966i
< B | Lz | A > =     0.000000000i
  
Norm of one-particle transition density matrix
||gamma^AB||_total       =  0.962042
||gamma^AB||_symmetrized =  0.681626
||gamma^AB||_anti-symm   =  0.678905
  
Spin-orbit couplings
 Using HF (reference) density for the 2-elec mean-field SOC contribution
KET: S',Sz' (Root   1) =  1.000 1.000
BRA: S ,Sz  (Root   5) =  1.000 1.000
Clebsh-Gordan coefficient: < 1.000, 1.000; 1.000, 0.000| 1.000, 1.000> =  0.707
 Reading 1e-SO integrals
 1e Reduced matrix elements (cm-1)
<S|| Hso(L-) ||S'> =     1.5593566861    84.0239653817
<S|| Hso(L0) ||S'> =     0.0000000000    -0.0000000000
<S|| Hso(L+) ||S'> =     1.5593566861   -84.0239653817
 1-elec SOC matrix (cm-1): < B(S,Sz) | Hso(1e) | A(S',Sz') >
                     |Sz'=-1.00>              |Sz'= 0.00>              |Sz'= 1.00>
 <Sz=-1.00|   -0.000000   -0.000000i     1.102632  -59.413916i     0.000000   -0.000000i
 <Sz= 0.00|   -1.102632  -59.413916i    -0.000000    0.000000i     1.102632  -59.413916i
 <Sz= 1.00|    0.000000    0.000000i    -1.102632  -59.413916i    -0.000000    0.000000i
1-elec SOCC =   118.848292808 cm-1
 Reading 2e-SOMF integrals
 2e-SOMF Reduced matrix elements (cm-1)
<S|| Hso(L-) ||S'> =    -0.6217170848   -33.5004398142
<S|| Hso(L0) ||S'> =     0.0000000000     0.0000000000
<S|| Hso(L+) ||S'> =    -0.6217170848    33.5004398142
 2-elec mean-field SOC matrix (cm-1): < B(S,Sz) | Hso(2e-mf) | A(S',Sz') >
                     |Sz'=-1.00>              |Sz'= 0.00>              |Sz'= 1.00>
 <Sz=-1.00|    0.000000    0.000000i    -0.439620   23.688388i    -0.000000    0.000000i
 <Sz= 0.00|    0.439620   23.688388i     0.000000   -0.000000i    -0.439620   23.688388i
 <Sz= 1.00|   -0.000000   -0.000000i     0.439620   23.688388i     0.000000   -0.000000i
 Total mean-field SOC matrix (cm-1): < B(S,Sz) | Hsomf | A(S',Sz') >
                     |Sz'=-1.00>              |Sz'= 0.00>              |Sz'= 1.00>
 <Sz=-1.00|   -0.000000   -0.000000i     0.663011  -35.725528i     0.000000   -0.000000i
 <Sz= 0.00|   -0.663011  -35.725528i    -0.000000    0.000000i     0.663011  -35.725528i
 <Sz= 1.00|    0.000000    0.000000i    -0.663011  -35.725528i    -0.000000    0.000000i
Mean-Field SOCC =    71.463358496 cm-1
   
**************************************************
State A: Root  1
State B: Root  6
  
Angular momentum components
< B | Lx | A > =    -0.022456966i
< B | Ly | A > =     1.210065245i
< B | Lz | A > =    -0.000000000i
  
Norm of one-particle transition density matrix
||gamma^AB||_total       =  0.962042
||gamma^AB||_symmetrized =  0.681626
||gamma^AB||_anti-symm   =  0.678905
  
Spin-orbit couplings
 Using HF (reference) density for the 2-elec mean-field SOC contribution
KET: S',Sz' (Root   1) =  1.000 1.000
BRA: S ,Sz  (Root   6) =  1.000 1.000
Clebsh-Gordan coefficient: < 1.000, 1.000; 1.000, 0.000| 1.000, 1.000> =  0.707
 Reading 1e-SO integrals
 1e Reduced matrix elements (cm-1)
<S|| Hso(L-) ||S'> =    84.0239653817    -1.5593566861
<S|| Hso(L0) ||S'> =     0.0000000000     0.0000000000
<S|| Hso(L+) ||S'> =    84.0239653817     1.5593566861
 1-elec SOC matrix (cm-1): < B(S,Sz) | Hso(1e) | A(S',Sz') >
                     |Sz'=-1.00>              |Sz'= 0.00>              |Sz'= 1.00>
 <Sz=-1.00|   -0.000000   -0.000000i    59.413916    1.102632i     0.000000    0.000000i
 <Sz= 0.00|  -59.413916    1.102632i    -0.000000   -0.000000i    59.413916    1.102632i
 <Sz= 1.00|    0.000000   -0.000000i   -59.413916    1.102632i    -0.000000    0.000000i
1-elec SOCC =   118.848292808 cm-1
 Reading 2e-SOMF integrals
 2e-SOMF Reduced matrix elements (cm-1)
<S|| Hso(L-) ||S'> =   -33.5004398142     0.6217170848
<S|| Hso(L0) ||S'> =     0.0000000000    -0.0000000000
<S|| Hso(L+) ||S'> =   -33.5004398142    -0.6217170848
 2-elec mean-field SOC matrix (cm-1): < B(S,Sz) | Hso(2e-mf) | A(S',Sz') >
                     |Sz'=-1.00>              |Sz'= 0.00>              |Sz'= 1.00>
 <Sz=-1.00|    0.000000    0.000000i   -23.688388   -0.439620i    -0.000000   -0.000000i
 <Sz= 0.00|   23.688388   -0.439620i     0.000000    0.000000i   -23.688388   -0.439620i
 <Sz= 1.00|   -0.000000    0.000000i    23.688388   -0.439620i     0.000000   -0.000000i
 Total mean-field SOC matrix (cm-1): < B(S,Sz) | Hsomf | A(S',Sz') >
                     |Sz'=-1.00>              |Sz'= 0.00>              |Sz'= 1.00>
 <Sz=-1.00|   -0.000000   -0.000000i    35.725528    0.663011i     0.000000    0.000000i
 <Sz= 0.00|  -35.725528    0.663011i    -0.000000   -0.000000i    35.725528    0.663011i
 <Sz= 1.00|    0.000000   -0.000000i   -35.725528    0.663011i    -0.000000    0.000000i
Mean-Field SOCC =    71.463358496 cm-1
   
**************************************************
State A: Root  1
State B: Root  7
  
Angular momentum components
< B | Lx | A > =    -0.000000000i
< B | Ly | A > =    -0.000000000i
< B | Lz | A > =    -0.000000000i
  
Norm of one-particle transition density matrix
||gamma^AB||_total       =  0.974892
||gamma^AB||_symmetrized =  0.659677
||gamma^AB||_anti-symm   =  0.717803
  
Spin-orbit couplings
 Using HF (reference) density for the 2-elec mean-field SOC contribution
KET: S',Sz' (Root   1) =  1.000 1.000
BRA: S ,Sz  (Root   7) =  1.000 1.000
Clebsh-Gordan coefficient: < 1.000, 1.000; 1.000, 0.000| 1.000, 1.000> =  0.707
 Reading 1e-SO integrals
 1e Reduced matrix elements (cm-1)
<S|| Hso(L-) ||S'> =    -0.0000000000    -0.0000000000
<S|| Hso(L0) ||S'> =     0.0000000000    -0.0000000000
<S|| Hso(L+) ||S'> =    -0.0000000000     0.0000000000
 1-elec SOC matrix (cm-1): < B(S,Sz) | Hso(1e) | A(S',Sz') >
                     |Sz'=-1.00>              |Sz'= 0.00>              |Sz'= 1.00>
 <Sz=-1.00|    0.000000    0.000000i    -0.000000    0.000000i    -0.000000   -0.000000i
 <Sz= 0.00|    0.000000    0.000000i     0.000000   -0.000000i    -0.000000    0.000000i
 <Sz= 1.00|   -0.000000   -0.000000i     0.000000    0.000000i     0.000000   -0.000000i
1-elec SOCC =     0.000000000 cm-1
 Reading 2e-SOMF integrals
 2e-SOMF Reduced matrix elements (cm-1)
<S|| Hso(L-) ||S'> =     0.0000000000     0.0000000000
<S|| Hso(L0) ||S'> =     0.0000000000     0.0000000000
<S|| Hso(L+) ||S'> =     0.0000000000    -0.0000000000
 2-elec mean-field SOC matrix (cm-1): < B(S,Sz) | Hso(2e-mf) | A(S',Sz') >
                     |Sz'=-1.00>              |Sz'= 0.00>              |Sz'= 1.00>
 <Sz=-1.00|   -0.000000   -0.000000i     0.000000   -0.000000i     0.000000    0.000000i
 <Sz= 0.00|   -0.000000   -0.000000i    -0.000000    0.000000i     0.000000   -0.000000i
 <Sz= 1.00|    0.000000    0.000000i    -0.000000   -0.000000i    -0.000000    0.000000i
 Total mean-field SOC matrix (cm-1): < B(S,Sz) | Hsomf | A(S',Sz') >
                     |Sz'=-1.00>              |Sz'= 0.00>              |Sz'= 1.00>
 <Sz=-1.00|    0.000000    0.000000i    -0.000000    0.000000i    -0.000000   -0.000000i
 <Sz= 0.00|    0.000000    0.000000i     0.000000   -0.000000i    -0.000000    0.000000i
 <Sz= 1.00|   -0.000000   -0.000000i     0.000000    0.000000i     0.000000   -0.000000i
Mean-Field SOCC =     0.000000000 cm-1
   
**************************************************
State A: Root  1
State B: Root  8
  
Angular momentum components
< B | Lx | A > =     0.000000000i
< B | Ly | A > =    -0.000000000i
< B | Lz | A > =    -0.000000000i
  
Norm of one-particle transition density matrix
||gamma^AB||_total       =  0.942933
||gamma^AB||_symmetrized =  0.670614
||gamma^AB||_anti-symm   =  0.662872
  
Spin-orbit couplings
 Using HF (reference) density for the 2-elec mean-field SOC contribution
KET: S',Sz' (Root   1) =  1.000 1.000
BRA: S ,Sz  (Root   8) =  1.000 1.000
Clebsh-Gordan coefficient: < 1.000, 1.000; 1.000, 0.000| 1.000, 1.000> =  0.707
 Reading 1e-SO integrals
 1e Reduced matrix elements (cm-1)
<S|| Hso(L-) ||S'> =     0.0000000000     0.0000000000
<S|| Hso(L0) ||S'> =     0.0000000000    -0.0000000000
<S|| Hso(L+) ||S'> =     0.0000000000    -0.0000000000
 1-elec SOC matrix (cm-1): < B(S,Sz) | Hso(1e) | A(S',Sz') >
                     |Sz'=-1.00>              |Sz'= 0.00>              |Sz'= 1.00>
 <Sz=-1.00|   -0.000000    0.000000i     0.000000   -0.000000i     0.000000   -0.000000i
 <Sz= 0.00|   -0.000000   -0.000000i    -0.000000    0.000000i     0.000000   -0.000000i
 <Sz= 1.00|    0.000000    0.000000i    -0.000000   -0.000000i    -0.000000   -0.000000i
1-elec SOCC =     0.000000000 cm-1
 Reading 2e-SOMF integrals
 2e-SOMF Reduced matrix elements (cm-1)
<S|| Hso(L-) ||S'> =    -0.0000000000    -0.0000000000
<S|| Hso(L0) ||S'> =     0.0000000000     0.0000000000
<S|| Hso(L+) ||S'> =    -0.0000000000     0.0000000000
 2-elec mean-field SOC matrix (cm-1): < B(S,Sz) | Hso(2e-mf) | A(S',Sz') >
                     |Sz'=-1.00>              |Sz'= 0.00>              |Sz'= 1.00>
 <Sz=-1.00|    0.000000   -0.000000i    -0.000000    0.000000i    -0.000000    0.000000i
 <Sz= 0.00|    0.000000    0.000000i     0.000000   -0.000000i    -0.000000    0.000000i
 <Sz= 1.00|   -0.000000   -0.000000i     0.000000    0.000000i     0.000000    0.000000i
 Total mean-field SOC matrix (cm-1): < B(S,Sz) | Hsomf | A(S',Sz') >
                     |Sz'=-1.00>              |Sz'= 0.00>              |Sz'= 1.00>
 <Sz=-1.00|   -0.000000    0.000000i     0.000000   -0.000000i     0.000000   -0.000000i
 <Sz= 0.00|   -0.000000   -0.000000i    -0.000000    0.000000i     0.000000   -0.000000i
 <Sz= 1.00|    0.000000    0.000000i    -0.000000   -0.000000i    -0.000000   -0.000000i
Mean-Field SOCC =     0.000000000 cm-1
   
**************************************************
State A: Root  1
State B: Root  9
  
Angular momentum components
< B | Lx | A > =     0.000000000i
< B | Ly | A > =     0.000000000i
< B | Lz | A > =     0.000000000i
  
Norm of one-particle transition density matrix
||gamma^AB||_total       =  0.942933
||gamma^AB||_symmetrized =  0.670615
||gamma^AB||_anti-symm   =  0.662872
  
Spin-orbit couplings
 Using HF (reference) density for the 2-elec mean-field SOC contribution
KET: S',Sz' (Root   1) =  1.000 1.000
BRA: S ,Sz  (Root   9) =  1.000 1.000
Clebsh-Gordan coefficient: < 1.000, 1.000; 1.000, 0.000| 1.000, 1.000> =  0.707
 Reading 1e-SO integrals
 1e Reduced matrix elements (cm-1)
<S|| Hso(L-) ||S'> =    -0.0000000000    -0.0000000000
<S|| Hso(L0) ||S'> =     0.0000000000     0.0000000000
<S|| Hso(L+) ||S'> =    -0.0000000000     0.0000000000
 1-elec SOC matrix (cm-1): < B(S,Sz) | Hso(1e) | A(S',Sz') >
                     |Sz'=-1.00>              |Sz'= 0.00>              |Sz'= 1.00>
 <Sz=-1.00|    0.000000   -0.000000i    -0.000000    0.000000i    -0.000000    0.000000i
 <Sz= 0.00|    0.000000    0.000000i     0.000000   -0.000000i    -0.000000    0.000000i
 <Sz= 1.00|   -0.000000    0.000000i     0.000000    0.000000i     0.000000    0.000000i
1-elec SOCC =     0.000000000 cm-1
 Reading 2e-SOMF integrals
 2e-SOMF Reduced matrix elements (cm-1)
<S|| Hso(L-) ||S'> =     0.0000000000     0.0000000000
<S|| Hso(L0) ||S'> =     0.0000000000    -0.0000000000
<S|| Hso(L+) ||S'> =     0.0000000000    -0.0000000000
 2-elec mean-field SOC matrix (cm-1): < B(S,Sz) | Hso(2e-mf) | A(S',Sz') >
                     |Sz'=-1.00>              |Sz'= 0.00>              |Sz'= 1.00>
 <Sz=-1.00|   -0.000000    0.000000i     0.000000   -0.000000i     0.000000   -0.000000i
 <Sz= 0.00|   -0.000000   -0.000000i    -0.000000    0.000000i     0.000000   -0.000000i
 <Sz= 1.00|    0.000000   -0.000000i    -0.000000   -0.000000i    -0.000000   -0.000000i
 Total mean-field SOC matrix (cm-1): < B(S,Sz) | Hsomf | A(S',Sz') >
                     |Sz'=-1.00>              |Sz'= 0.00>              |Sz'= 1.00>
 <Sz=-1.00|    0.000000   -0.000000i    -0.000000    0.000000i    -0.000000    0.000000i
 <Sz= 0.00|    0.000000    0.000000i     0.000000   -0.000000i    -0.000000    0.000000i
 <Sz= 1.00|   -0.000000    0.000000i     0.000000    0.000000i     0.000000    0.000000i
Mean-Field SOCC =     0.000000000 cm-1
   
**************************************************
State A: Root  1
State B: Root 10
  
Angular momentum components
< B | Lx | A > =     0.000000000i
< B | Ly | A > =    -0.000000000i
< B | Lz | A > =     0.000000000i
  
Norm of one-particle transition density matrix
||gamma^AB||_total       =  0.517093
||gamma^AB||_symmetrized =  0.363743
||gamma^AB||_anti-symm   =  0.367527
  
Spin-orbit couplings
 Using HF (reference) density for the 2-elec mean-field SOC contribution
KET: S',Sz' (Root   1) =  1.000 1.000
BRA: S ,Sz  (Root  10) =  1.000 1.000
Clebsh-Gordan coefficient: < 1.000, 1.000; 1.000, 0.000| 1.000, 1.000> =  0.707
 Reading 1e-SO integrals
 1e Reduced matrix elements (cm-1)
<S|| Hso(L-) ||S'> =    -0.0000000000     0.0000000000
<S|| Hso(L0) ||S'> =     0.0000000000    -0.0000000000
<S|| Hso(L+) ||S'> =    -0.0000000000    -0.0000000000
 1-elec SOC matrix (cm-1): < B(S,Sz) | Hso(1e) | A(S',Sz') >
                     |Sz'=-1.00>              |Sz'= 0.00>              |Sz'= 1.00>
 <Sz=-1.00|    0.000000    0.000000i    -0.000000   -0.000000i    -0.000000   -0.000000i
 <Sz= 0.00|    0.000000   -0.000000i     0.000000    0.000000i    -0.000000   -0.000000i
 <Sz= 1.00|   -0.000000    0.000000i     0.000000   -0.000000i     0.000000   -0.000000i
1-elec SOCC =     0.000000000 cm-1
 Reading 2e-SOMF integrals
 2e-SOMF Reduced matrix elements (cm-1)
<S|| Hso(L-) ||S'> =     0.0000000000    -0.0000000000
<S|| Hso(L0) ||S'> =     0.0000000000     0.0000000000
<S|| Hso(L+) ||S'> =     0.0000000000     0.0000000000
 2-elec mean-field SOC matrix (cm-1): < B(S,Sz) | Hso(2e-mf) | A(S',Sz') >
                     |Sz'=-1.00>              |Sz'= 0.00>              |Sz'= 1.00>
 <Sz=-1.00|   -0.000000   -0.000000i     0.000000    0.000000i     0.000000    0.000000i
 <Sz= 0.00|   -0.000000    0.000000i    -0.000000   -0.000000i     0.000000    0.000000i
 <Sz= 1.00|    0.000000   -0.000000i    -0.000000    0.000000i    -0.000000    0.000000i
 Total mean-field SOC matrix (cm-1): < B(S,Sz) | Hsomf | A(S',Sz') >
                     |Sz'=-1.00>              |Sz'= 0.00>              |Sz'= 1.00>
 <Sz=-1.00|    0.000000    0.000000i    -0.000000   -0.000000i    -0.000000   -0.000000i
 <Sz= 0.00|    0.000000   -0.000000i     0.000000    0.000000i    -0.000000   -0.000000i
 <Sz= 1.00|   -0.000000    0.000000i     0.000000   -0.000000i     0.000000   -0.000000i
Mean-Field SOCC =     0.000000000 cm-1
   
**************************************************
State A: Root  2
State B: Root  1
  
Angular momentum components
< B | Lx | A > =    -0.000000000i
< B | Ly | A > =     0.000000000i
< B | Lz | A > =    -0.000000000i
  
Norm of one-particle transition density matrix
||gamma^AB||_total       =  0.983783
||gamma^AB||_symmetrized =  0.806305
||gamma^AB||_anti-symm   =  0.563649
  
Spin-orbit couplings
 Using HF (reference) density for the 2-elec mean-field SOC contribution
KET: S',Sz' (Root   2) =  1.000 1.000
BRA: S ,Sz  (Root   1) =  1.000 1.000
Clebsh-Gordan coefficient: < 1.000, 1.000; 1.000, 0.000| 1.000, 1.000> =  0.707
 Reading 1e-SO integrals
 1e Reduced matrix elements (cm-1)
<S|| Hso(L-) ||S'> =     0.0000000000    -0.0000000000
<S|| Hso(L0) ||S'> =     0.0000000000     0.0000000000
<S|| Hso(L+) ||S'> =     0.0000000000     0.0000000000
 1-elec SOC matrix (cm-1): < B(S,Sz) | Hso(1e) | A(S',Sz') >
                     |Sz'=-1.00>              |Sz'= 0.00>              |Sz'= 1.00>
 <Sz=-1.00|   -0.000000   -0.000000i     0.000000    0.000000i     0.000000    0.000000i
 <Sz= 0.00|   -0.000000    0.000000i    -0.000000   -0.000000i     0.000000    0.000000i
 <Sz= 1.00|    0.000000    0.000000i    -0.000000    0.000000i    -0.000000    0.000000i
1-elec SOCC =     0.000000000 cm-1
 Reading 2e-SOMF integrals
 2e-SOMF Reduced matrix elements (cm-1)
<S|| Hso(L-) ||S'> =    -0.0000000000     0.0000000000
<S|| Hso(L0) ||S'> =     0.0000000000    -0.0000000000
<S|| Hso(L+) ||S'> =    -0.0000000000    -0.0000000000
 2-elec mean-field SOC matrix (cm-1): < B(S,Sz) | Hso(2e-mf) | A(S',Sz') >
                     |Sz'=-1.00>              |Sz'= 0.00>              |Sz'= 1.00>
 <Sz=-1.00|    0.000000    0.000000i    -0.000000   -0.000000i    -0.000000   -0.000000i
 <Sz= 0.00|    0.000000   -0.000000i     0.000000    0.000000i    -0.000000   -0.000000i
 <Sz= 1.00|   -0.000000   -0.000000i     0.000000   -0.000000i     0.000000   -0.000000i
 Total mean-field SOC matrix (cm-1): < B(S,Sz) | Hsomf | A(S',Sz') >
                     |Sz'=-1.00>              |Sz'= 0.00>              |Sz'= 1.00>
 <Sz=-1.00|   -0.000000   -0.000000i     0.000000    0.000000i     0.000000    0.000000i
 <Sz= 0.00|   -0.000000    0.000000i    -0.000000   -0.000000i     0.000000    0.000000i
 <Sz= 1.00|    0.000000    0.000000i    -0.000000    0.000000i    -0.000000    0.000000i
Mean-Field SOCC =     0.000000000 cm-1
   
**************************************************
State A: Root  2
State B: Root  3
  
Angular momentum components
< B | Lx | A > =     0.000000000i
< B | Ly | A > =     0.000000000i
< B | Lz | A > =     2.000000000i
  
Norm of one-particle transition density matrix
||gamma^AB||_total       =  0.997417
||gamma^AB||_symmetrized =  0.000000
||gamma^AB||_anti-symm   =  0.997417
  
Spin-orbit couplings
 Using HF (reference) density for the 2-elec mean-field SOC contribution
KET: S',Sz' (Root   2) =  1.000 1.000
BRA: S ,Sz  (Root   3) =  1.000 1.000
Clebsh-Gordan coefficient: < 1.000, 1.000; 1.000, 0.000| 1.000, 1.000> =  0.707
 Reading 1e-SO integrals
 1e Reduced matrix elements (cm-1)
<S|| Hso(L-) ||S'> =     0.0000000000     0.0000000000
<S|| Hso(L0) ||S'> =     0.0000000000  -241.9570527528
<S|| Hso(L+) ||S'> =     0.0000000000    -0.0000000000
 1-elec SOC matrix (cm-1): < B(S,Sz) | Hso(1e) | A(S',Sz') >
                     |Sz'=-1.00>              |Sz'= 0.00>              |Sz'= 1.00>
 <Sz=-1.00|   -0.000000  171.089473i     0.000000   -0.000000i     0.000000   -0.000000i
 <Sz= 0.00|   -0.000000   -0.000000i    -0.000000   -0.000000i     0.000000   -0.000000i
 <Sz= 1.00|    0.000000   -0.000000i    -0.000000   -0.000000i    -0.000000 -171.089473i
1-elec SOCC =   241.957052753 cm-1
 Reading 2e-SOMF integrals
 2e-SOMF Reduced matrix elements (cm-1)
<S|| Hso(L-) ||S'> =    -0.0000000000    -0.0000000000
<S|| Hso(L0) ||S'> =     0.0000000000    96.0065895853
<S|| Hso(L+) ||S'> =    -0.0000000000     0.0000000000
 2-elec mean-field SOC matrix (cm-1): < B(S,Sz) | Hso(2e-mf) | A(S',Sz') >
                     |Sz'=-1.00>              |Sz'= 0.00>              |Sz'= 1.00>
 <Sz=-1.00|    0.000000  -67.886911i    -0.000000    0.000000i    -0.000000    0.000000i
 <Sz= 0.00|    0.000000    0.000000i     0.000000    0.000000i    -0.000000    0.000000i
 <Sz= 1.00|   -0.000000    0.000000i     0.000000    0.000000i     0.000000   67.886911i
 Total mean-field SOC matrix (cm-1): < B(S,Sz) | Hsomf | A(S',Sz') >
                     |Sz'=-1.00>              |Sz'= 0.00>              |Sz'= 1.00>
 <Sz=-1.00|   -0.000000  103.202562i     0.000000   -0.000000i     0.000000   -0.000000i
 <Sz= 0.00|   -0.000000   -0.000000i    -0.000000   -0.000000i     0.000000   -0.000000i
 <Sz= 1.00|    0.000000   -0.000000i    -0.000000   -0.000000i    -0.000000 -103.202562i
Mean-Field SOCC =   145.950463168 cm-1
   
**************************************************
State A: Root  2
State B: Root  4
  
Angular momentum components
< B | Lx | A > =     0.000000000i
< B | Ly | A > =    -0.000000000i
< B | Lz | A > =    -0.000000000i
  
Norm of one-particle transition density matrix
||gamma^AB||_total       =  0.997365
||gamma^AB||_symmetrized =  0.997365
||gamma^AB||_anti-symm   =  0.000000
  
Spin-orbit couplings
 Using HF (reference) density for the 2-elec mean-field SOC contribution
KET: S',Sz' (Root   2) =  1.000 1.000
BRA: S ,Sz  (Root   4) =  1.000 1.000
Clebsh-Gordan coefficient: < 1.000, 1.000; 1.000, 0.000| 1.000, 1.000> =  0.707
 Reading 1e-SO integrals
 1e Reduced matrix elements (cm-1)
<S|| Hso(L-) ||S'> =    -0.0000000000     0.0000000000
<S|| Hso(L0) ||S'> =     0.0000000000     0.0000000004
<S|| Hso(L+) ||S'> =    -0.0000000000    -0.0000000000
 1-elec SOC matrix (cm-1): < B(S,Sz) | Hso(1e) | A(S',Sz') >
                     |Sz'=-1.00>              |Sz'= 0.00>              |Sz'= 1.00>
 <Sz=-1.00|    0.000000   -0.000000i    -0.000000   -0.000000i    -0.000000    0.000000i
 <Sz= 0.00|    0.000000   -0.000000i     0.000000    0.000000i    -0.000000   -0.000000i
 <Sz= 1.00|   -0.000000    0.000000i     0.000000   -0.000000i     0.000000    0.000000i
1-elec SOCC =     0.000000000 cm-1
 Reading 2e-SOMF integrals
 2e-SOMF Reduced matrix elements (cm-1)
<S|| Hso(L-) ||S'> =     0.0000000000    -0.0000000000
<S|| Hso(L0) ||S'> =     0.0000000000    -0.0000000002
<S|| Hso(L+) ||S'> =     0.0000000000     0.0000000000
 2-elec mean-field SOC matrix (cm-1): < B(S,Sz) | Hso(2e-mf) | A(S',Sz') >
                     |Sz'=-1.00>              |Sz'= 0.00>              |Sz'= 1.00>
 <Sz=-1.00|   -0.000000    0.000000i     0.000000    0.000000i     0.000000   -0.000000i
 <Sz= 0.00|   -0.000000    0.000000i    -0.000000   -0.000000i     0.000000    0.000000i
 <Sz= 1.00|    0.000000   -0.000000i    -0.000000    0.000000i    -0.000000   -0.000000i
 Total mean-field SOC matrix (cm-1): < B(S,Sz) | Hsomf | A(S',Sz') >
                     |Sz'=-1.00>              |Sz'= 0.00>              |Sz'= 1.00>
 <Sz=-1.00|    0.000000   -0.000000i    -0.000000   -0.000000i    -0.000000    0.000000i
 <Sz= 0.00|    0.000000   -0.000000i     0.000000    0.000000i    -0.000000   -0.000000i
 <Sz= 1.00|   -0.000000    0.000000i     0.000000   -0.000000i     0.000000    0.000000i
Mean-Field SOCC =     0.000000000 cm-1
   
**************************************************
State A: Root  2
State B: Root  5
  
Angular momentum components
< B | Lx | A > =    -0.000000000i
< B | Ly | A > =    -0.000000000i
< B | Lz | A > =    -0.000000000i
  
Norm of one-particle transition density matrix
||gamma^AB||_total       =  0.693646
||gamma^AB||_symmetrized =  0.491141
||gamma^AB||_anti-symm   =  0.489822
  
Spin-orbit couplings
 Using HF (reference) density for the 2-elec mean-field SOC contribution
KET: S',Sz' (Root   2) =  1.000 1.000
BRA: S ,Sz  (Root   5) =  1.000 1.000
Clebsh-Gordan coefficient: < 1.000, 1.000; 1.000, 0.000| 1.000, 1.000> =  0.707
 Reading 1e-SO integrals
 1e Reduced matrix elements (cm-1)
<S|| Hso(L-) ||S'> =    -0.0000000000    -0.0000000000
<S|| Hso(L0) ||S'> =     0.0000000000     0.0000000000
<S|| Hso(L+) ||S'> =    -0.0000000000     0.0000000000
 1-elec SOC matrix (cm-1): < B(S,Sz) | Hso(1e) | A(S',Sz') >
                     |Sz'=-1.00>              |Sz'= 0.00>              |Sz'= 1.00>
 <Sz=-1.00|    0.000000   -0.000000i    -0.000000    0.000000i    -0.000000    0.000000i
 <Sz= 0.00|    0.000000    0.000000i     0.000000    0.000000i    -0.000000    0.000000i
 <Sz= 1.00|   -0.000000    0.000000i     0.000000    0.000000i     0.000000    0.000000i
1-elec SOCC =     0.000000000 cm-1
 Reading 2e-SOMF integrals
 2e-SOMF Reduced matrix elements (cm-1)
<S|| Hso(L-) ||S'> =     0.0000000000     0.0000000000
<S|| Hso(L0) ||S'> =     0.0000000000    -0.0000000000
<S|| Hso(L+) ||S'> =     0.0000000000    -0.0000000000
 2-elec mean-field SOC matrix (cm-1): < B(S,Sz) | Hso(2e-mf) | A(S',Sz') >
                     |Sz'=-1.00>              |Sz'= 0.00>              |Sz'= 1.00>
 <Sz=-1.00|   -0.000000    0.000000i     0.000000   -0.000000i     0.000000   -0.000000i
 <Sz= 0.00|   -0.000000   -0.000000i    -0.000000   -0.000000i     0.000000   -0.000000i
 <Sz= 1.00|    0.000000   -0.000000i    -0.000000   -0.000000i    -0.000000   -0.000000i
 Total mean-field SOC matrix (cm-1): < B(S,Sz) | Hsomf | A(S',Sz') >
                     |Sz'=-1.00>              |Sz'= 0.00>              |Sz'= 1.00>
 <Sz=-1.00|    0.000000   -0.000000i    -0.000000    0.000000i    -0.000000    0.000000i
 <Sz= 0.00|    0.000000    0.000000i     0.000000    0.000000i    -0.000000    0.000000i
 <Sz= 1.00|   -0.000000    0.000000i     0.000000    0.000000i     0.000000    0.000000i
Mean-Field SOCC =     0.000000000 cm-1
   
**************************************************
State A: Root  2
State B: Root  6
  
Angular momentum components
< B | Lx | A > =     0.000000000i
< B | Ly | A > =    -0.000000000i
< B | Lz | A > =     0.000000000i
  
Norm of one-particle transition density matrix
||gamma^AB||_total       =  0.693646
||gamma^AB||_symmetrized =  0.491141
||gamma^AB||_anti-symm   =  0.489822
  
Spin-orbit couplings
 Using HF (reference) density for the 2-elec mean-field SOC contribution
KET: S',Sz' (Root   2) =  1.000 1.000
BRA: S ,Sz  (Root   6) =  1.000 1.000
Clebsh-Gordan coefficient: < 1.000, 1.000; 1.000, 0.000| 1.000, 1.000> =  0.707
 Reading 1e-SO integrals
 1e Reduced matrix elements (cm-1)
<S|| Hso(L-) ||S'> =    -0.0000000000     0.0000000000
<S|| Hso(L0) ||S'> =     0.0000000000    -0.0000000000
<S|| Hso(L+) ||S'> =    -0.0000000000    -0.0000000000
 1-elec SOC matrix (cm-1): < B(S,Sz) | Hso(1e) | A(S',Sz') >
                     |Sz'=-1.00>              |Sz'= 0.00>              |Sz'= 1.00>
 <Sz=-1.00|    0.000000    0.000000i    -0.000000   -0.000000i    -0.000000   -0.000000i
 <Sz= 0.00|    0.000000   -0.000000i     0.000000    0.000000i    -0.000000   -0.000000i
 <Sz= 1.00|   -0.000000   -0.000000i     0.000000   -0.000000i     0.000000   -0.000000i
1-elec SOCC =     0.000000000 cm-1
 Reading 2e-SOMF integrals
 2e-SOMF Reduced matrix elements (cm-1)
<S|| Hso(L-) ||S'> =     0.0000000000    -0.0000000000
<S|| Hso(L0) ||S'> =     0.0000000000     0.0000000000
<S|| Hso(L+) ||S'> =     0.0000000000     0.0000000000
 2-elec mean-field SOC matrix (cm-1): < B(S,Sz) | Hso(2e-mf) | A(S',Sz') >
                     |Sz'=-1.00>              |Sz'= 0.00>              |Sz'= 1.00>
 <Sz=-1.00|   -0.000000   -0.000000i     0.000000    0.000000i     0.000000    0.000000i
 <Sz= 0.00|   -0.000000    0.000000i    -0.000000   -0.000000i     0.000000    0.000000i
 <Sz= 1.00|    0.000000    0.000000i    -0.000000    0.000000i    -0.000000    0.000000i
 Total mean-field SOC matrix (cm-1): < B(S,Sz) | Hsomf | A(S',Sz') >
                     |Sz'=-1.00>              |Sz'= 0.00>              |Sz'= 1.00>
 <Sz=-1.00|    0.000000    0.000000i    -0.000000   -0.000000i    -0.000000   -0.000000i
 <Sz= 0.00|    0.000000   -0.000000i     0.000000    0.000000i    -0.000000   -0.000000i
 <Sz= 1.00|   -0.000000   -0.000000i     0.000000   -0.000000i     0.000000   -0.000000i
Mean-Field SOCC =     0.000000000 cm-1
   
**************************************************
State A: Root  2
State B: Root  7
  
Angular momentum components
< B | Lx | A > =    -0.000000000i
< B | Ly | A > =     0.000000000i
< B | Lz | A > =    -0.000000000i
  
Norm of one-particle transition density matrix
||gamma^AB||_total       =  0.895181
||gamma^AB||_symmetrized =  0.895181
||gamma^AB||_anti-symm   =  0.000000
  
Spin-orbit couplings
 Using HF (reference) density for the 2-elec mean-field SOC contribution
KET: S',Sz' (Root   2) =  1.000 1.000
BRA: S ,Sz  (Root   7) =  1.000 1.000
Clebsh-Gordan coefficient: < 1.000, 1.000; 1.000, 0.000| 1.000, 1.000> =  0.707
 Reading 1e-SO integrals
 1e Reduced matrix elements (cm-1)
<S|| Hso(L-) ||S'> =     0.0000000000     0.0000000000
<S|| Hso(L0) ||S'> =     0.0000000000     0.0000000000
<S|| Hso(L+) ||S'> =     0.0000000000    -0.0000000000
 1-elec SOC matrix (cm-1): < B(S,Sz) | Hso(1e) | A(S',Sz') >
                     |Sz'=-1.00>              |Sz'= 0.00>              |Sz'= 1.00>
 <Sz=-1.00|   -0.000000   -0.000000i     0.000000   -0.000000i     0.000000    0.000000i
 <Sz= 0.00|   -0.000000   -0.000000i    -0.000000    0.000000i     0.000000   -0.000000i
 <Sz= 1.00|    0.000000    0.000000i    -0.000000   -0.000000i    -0.000000    0.000000i
1-elec SOCC =     0.000000000 cm-1
 Reading 2e-SOMF integrals
 2e-SOMF Reduced matrix elements (cm-1)
<S|| Hso(L-) ||S'> =    -0.0000000000    -0.0000000000
<S|| Hso(L0) ||S'> =     0.0000000000    -0.0000000000
<S|| Hso(L+) ||S'> =    -0.0000000000     0.0000000000
 2-elec mean-field SOC matrix (cm-1): < B(S,Sz) | Hso(2e-mf) | A(S',Sz') >
                     |Sz'=-1.00>              |Sz'= 0.00>              |Sz'= 1.00>
 <Sz=-1.00|    0.000000    0.000000i    -0.000000    0.000000i    -0.000000   -0.000000i
 <Sz= 0.00|    0.000000    0.000000i     0.000000   -0.000000i    -0.000000    0.000000i
 <Sz= 1.00|   -0.000000   -0.000000i     0.000000    0.000000i     0.000000   -0.000000i
 Total mean-field SOC matrix (cm-1): < B(S,Sz) | Hsomf | A(S',Sz') >
                     |Sz'=-1.00>              |Sz'= 0.00>              |Sz'= 1.00>
 <Sz=-1.00|   -0.000000   -0.000000i     0.000000   -0.000000i     0.000000    0.000000i
 <Sz= 0.00|   -0.000000   -0.000000i    -0.000000    0.000000i     0.000000   -0.000000i
 <Sz= 1.00|    0.000000    0.000000i    -0.000000   -0.000000i    -0.000000    0.000000i
Mean-Field SOCC =     0.000000000 cm-1
   
**************************************************
State A: Root  2
State B: Root  8
  
Angular momentum components
< B | Lx | A > =     0.159773252i
< B | Ly | A > =    -0.078773265i
< B | Lz | A > =    -0.000000000i
  
Norm of one-particle transition density matrix
||gamma^AB||_total       =  0.108921
||gamma^AB||_symmetrized =  0.073456
||gamma^AB||_anti-symm   =  0.080424
  
Spin-orbit couplings
 Using HF (reference) density for the 2-elec mean-field SOC contribution
KET: S',Sz' (Root   2) =  1.000 1.000
BRA: S ,Sz  (Root   8) =  1.000 1.000
Clebsh-Gordan coefficient: < 1.000, 1.000; 1.000, 0.000| 1.000, 1.000> =  0.707
 Reading 1e-SO integrals
 1e Reduced matrix elements (cm-1)
<S|| Hso(L-) ||S'> =    -1.3853952468     2.8099521182
<S|| Hso(L0) ||S'> =     0.0000000000     0.0000000000
<S|| Hso(L+) ||S'> =    -1.3853952468    -2.8099521182
 1-elec SOC matrix (cm-1): < B(S,Sz) | Hso(1e) | A(S',Sz') >
                     |Sz'=-1.00>              |Sz'= 0.00>              |Sz'= 1.00>
 <Sz=-1.00|    0.000000   -0.000000i    -0.979622   -1.986936i    -0.000000   -0.000000i
 <Sz= 0.00|    0.979622   -1.986936i     0.000000    0.000000i    -0.979622   -1.986936i
 <Sz= 1.00|   -0.000000    0.000000i     0.979622   -1.986936i     0.000000    0.000000i
1-elec SOCC =     4.430609641 cm-1
 Reading 2e-SOMF integrals
 2e-SOMF Reduced matrix elements (cm-1)
<S|| Hso(L-) ||S'> =     0.6366823404    -1.2913620825
<S|| Hso(L0) ||S'> =     0.0000000000    -0.0000000000
<S|| Hso(L+) ||S'> =     0.6366823404     1.2913620825
 2-elec mean-field SOC matrix (cm-1): < B(S,Sz) | Hso(2e-mf) | A(S',Sz') >
                     |Sz'=-1.00>              |Sz'= 0.00>              |Sz'= 1.00>
 <Sz=-1.00|   -0.000000    0.000000i     0.450202    0.913131i     0.000000    0.000000i
 <Sz= 0.00|   -0.450202    0.913131i    -0.000000   -0.000000i     0.450202    0.913131i
 <Sz= 1.00|    0.000000   -0.000000i    -0.450202    0.913131i    -0.000000   -0.000000i
 Total mean-field SOC matrix (cm-1): < B(S,Sz) | Hsomf | A(S',Sz') >
                     |Sz'=-1.00>              |Sz'= 0.00>              |Sz'= 1.00>
 <Sz=-1.00|    0.000000   -0.000000i    -0.529420   -1.073805i    -0.000000   -0.000000i
 <Sz= 0.00|    0.529420   -1.073805i     0.000000    0.000000i    -0.529420   -1.073805i
 <Sz= 1.00|   -0.000000    0.000000i     0.529420   -1.073805i     0.000000    0.000000i
Mean-Field SOCC =     2.394446371 cm-1
   
**************************************************
State A: Root  2
State B: Root  9
  
Angular momentum components
< B | Lx | A > =    -0.078772448i
< B | Ly | A > =    -0.159771594i
< B | Lz | A > =    -0.000000000i
  
Norm of one-particle transition density matrix
||gamma^AB||_total       =  0.108920
||gamma^AB||_symmetrized =  0.073455
||gamma^AB||_anti-symm   =  0.080423
  
Spin-orbit couplings
 Using HF (reference) density for the 2-elec mean-field SOC contribution
KET: S',Sz' (Root   2) =  1.000 1.000
BRA: S ,Sz  (Root   9) =  1.000 1.000
Clebsh-Gordan coefficient: < 1.000, 1.000; 1.000, 0.000| 1.000, 1.000> =  0.707
 Reading 1e-SO integrals
 1e Reduced matrix elements (cm-1)
<S|| Hso(L-) ||S'> =    -2.8098755024    -1.3853574731
<S|| Hso(L0) ||S'> =     0.0000000000    -0.0000000000
<S|| Hso(L+) ||S'> =    -2.8098755024     1.3853574731
 1-elec SOC matrix (cm-1): < B(S,Sz) | Hso(1e) | A(S',Sz') >
                     |Sz'=-1.00>              |Sz'= 0.00>              |Sz'= 1.00>
 <Sz=-1.00|    0.000000    0.000000i    -1.986882    0.979596i    -0.000000    0.000000i
 <Sz= 0.00|    1.986882    0.979596i     0.000000   -0.000000i    -1.986882    0.979596i
 <Sz= 1.00|   -0.000000   -0.000000i     1.986882    0.979596i     0.000000   -0.000000i
1-elec SOCC =     4.430488837 cm-1
 Reading 2e-SOMF integrals
 2e-SOMF Reduced matrix elements (cm-1)
[...]
 <Sz= 1.00|   -0.000000   -0.000000i    12.233841   28.348334i     0.000000   -0.000000i
1-elec SOCC =    61.750947732 cm-1
 Reading 2e-SOMF integrals
 2e-SOMF Reduced matrix elements (cm-1)
<S|| Hso(L-) ||S'> =     6.6837446011    15.4876150302
<S|| Hso(L0) ||S'> =     0.0000000000     0.0000000000
<S|| Hso(L+) ||S'> =     6.6837446011   -15.4876150302
 2-elec mean-field SOC matrix (cm-1): < B(S,Sz) | Hso(2e-mf) | A(S',Sz') >
                     |Sz'=-1.00>              |Sz'= 0.00>              |Sz'= 1.00>
 <Sz=-1.00|   -0.000000   -0.000000i     4.726121  -10.951398i     0.000000   -0.000000i
 <Sz= 0.00|   -4.726121  -10.951398i    -0.000000    0.000000i     4.726121  -10.951398i
 <Sz= 1.00|    0.000000    0.000000i    -4.726121  -10.951398i    -0.000000    0.000000i
 Total mean-field SOC matrix (cm-1): < B(S,Sz) | Hsomf | A(S',Sz') >
                     |Sz'=-1.00>              |Sz'= 0.00>              |Sz'= 1.00>
 <Sz=-1.00|    0.000000    0.000000i    -7.507720   17.396936i    -0.000000    0.000000i
 <Sz= 0.00|    7.507720   17.396936i     0.000000   -0.000000i    -7.507720   17.396936i
 <Sz= 1.00|   -0.000000   -0.000000i     7.507720   17.396936i     0.000000   -0.000000i
Mean-Field SOCC =    37.895606141 cm-1
   
**************************************************
State A: Root 10
State B: Root  8
  
Angular momentum components
< B | Lx | A > =    -0.000000000i
< B | Ly | A > =     0.000000000i
< B | Lz | A > =     0.000000000i
  
Norm of one-particle transition density matrix
||gamma^AB||_total       =  0.141813
||gamma^AB||_symmetrized =  0.140851
||gamma^AB||_anti-symm   =  0.016493
  
Spin-orbit couplings
 Using HF (reference) density for the 2-elec mean-field SOC contribution
KET: S',Sz' (Root  10) =  1.000 1.000
BRA: S ,Sz  (Root   8) =  1.000 1.000
Clebsh-Gordan coefficient: < 1.000, 1.000; 1.000, 0.000| 1.000, 1.000> =  0.707
 Reading 1e-SO integrals
 1e Reduced matrix elements (cm-1)
<S|| Hso(L-) ||S'> =     0.0000000000    -0.0000000000
<S|| Hso(L0) ||S'> =     0.0000000000    -0.0000008034
<S|| Hso(L+) ||S'> =     0.0000000000     0.0000000000
 1-elec SOC matrix (cm-1): < B(S,Sz) | Hso(1e) | A(S',Sz') >
                     |Sz'=-1.00>              |Sz'= 0.00>              |Sz'= 1.00>
 <Sz=-1.00|   -0.000000    0.000001i     0.000000    0.000000i     0.000000   -0.000000i
 <Sz= 0.00|   -0.000000    0.000000i    -0.000000   -0.000000i     0.000000    0.000000i
 <Sz= 1.00|    0.000000   -0.000000i    -0.000000    0.000000i    -0.000000   -0.000001i
1-elec SOCC =     0.000000803 cm-1
 Reading 2e-SOMF integrals
 2e-SOMF Reduced matrix elements (cm-1)
<S|| Hso(L-) ||S'> =    -0.0000000000     0.0000000000
<S|| Hso(L0) ||S'> =     0.0000000000     0.0000003157
<S|| Hso(L+) ||S'> =    -0.0000000000    -0.0000000000
 2-elec mean-field SOC matrix (cm-1): < B(S,Sz) | Hso(2e-mf) | A(S',Sz') >
                     |Sz'=-1.00>              |Sz'= 0.00>              |Sz'= 1.00>
 <Sz=-1.00|    0.000000   -0.000000i    -0.000000   -0.000000i    -0.000000    0.000000i
 <Sz= 0.00|    0.000000   -0.000000i     0.000000    0.000000i    -0.000000   -0.000000i
 <Sz= 1.00|   -0.000000    0.000000i     0.000000   -0.000000i     0.000000    0.000000i
 Total mean-field SOC matrix (cm-1): < B(S,Sz) | Hsomf | A(S',Sz') >
                     |Sz'=-1.00>              |Sz'= 0.00>              |Sz'= 1.00>
 <Sz=-1.00|   -0.000000    0.000000i     0.000000    0.000000i     0.000000   -0.000000i
 <Sz= 0.00|   -0.000000    0.000000i    -0.000000   -0.000000i     0.000000    0.000000i
 <Sz= 1.00|    0.000000   -0.000000i    -0.000000    0.000000i    -0.000000   -0.000000i
Mean-Field SOCC =     0.000000488 cm-1
   
**************************************************
State A: Root 10
State B: Root  9
  
Angular momentum components
< B | Lx | A > =     0.000000000i
< B | Ly | A > =     0.000000000i
< B | Lz | A > =    -0.000000003i
  
Norm of one-particle transition density matrix
||gamma^AB||_total       =  0.088497
||gamma^AB||_symmetrized =  0.062221
||gamma^AB||_anti-symm   =  0.062931
  
Spin-orbit couplings
 Using HF (reference) density for the 2-elec mean-field SOC contribution
KET: S',Sz' (Root  10) =  1.000 1.000
BRA: S ,Sz  (Root   9) =  1.000 1.000
Clebsh-Gordan coefficient: < 1.000, 1.000; 1.000, 0.000| 1.000, 1.000> =  0.707
 Reading 1e-SO integrals
 1e Reduced matrix elements (cm-1)
<S|| Hso(L-) ||S'> =     0.0000000000    -0.0000000000
<S|| Hso(L0) ||S'> =     0.0000000000   -19.6342738832
<S|| Hso(L+) ||S'> =     0.0000000000     0.0000000000
 1-elec SOC matrix (cm-1): < B(S,Sz) | Hso(1e) | A(S',Sz') >
                     |Sz'=-1.00>              |Sz'= 0.00>              |Sz'= 1.00>
 <Sz=-1.00|   -0.000000   13.883528i     0.000000    0.000000i     0.000000   -0.000000i
 <Sz= 0.00|   -0.000000    0.000000i    -0.000000   -0.000000i     0.000000    0.000000i
 <Sz= 1.00|    0.000000   -0.000000i    -0.000000    0.000000i    -0.000000  -13.883528i
1-elec SOCC =    19.634273883 cm-1
 Reading 2e-SOMF integrals
 2e-SOMF Reduced matrix elements (cm-1)
<S|| Hso(L-) ||S'> =    -0.0000000000    -0.0000000000
<S|| Hso(L0) ||S'> =     0.0000000000     7.7152552262
<S|| Hso(L+) ||S'> =    -0.0000000000     0.0000000000
 2-elec mean-field SOC matrix (cm-1): < B(S,Sz) | Hso(2e-mf) | A(S',Sz') >
                     |Sz'=-1.00>              |Sz'= 0.00>              |Sz'= 1.00>
 <Sz=-1.00|    0.000000   -5.455509i    -0.000000    0.000000i    -0.000000    0.000000i
 <Sz= 0.00|    0.000000    0.000000i     0.000000    0.000000i    -0.000000    0.000000i
 <Sz= 1.00|   -0.000000    0.000000i     0.000000    0.000000i     0.000000    5.455509i
 Total mean-field SOC matrix (cm-1): < B(S,Sz) | Hsomf | A(S',Sz') >
                     |Sz'=-1.00>              |Sz'= 0.00>              |Sz'= 1.00>
 <Sz=-1.00|   -0.000000    8.428019i     0.000000    0.000000i     0.000000   -0.000000i
 <Sz= 0.00|   -0.000000    0.000000i    -0.000000   -0.000000i     0.000000    0.000000i
 <Sz= 1.00|    0.000000   -0.000000i    -0.000000    0.000000i    -0.000000   -8.428019i
Mean-Field SOCC =    11.919018657 cm-1
   
**************************************************
RAS-CI timing summary (seconds)
  CPU time          2.38s
  System time       0.00s
  Wall time         9.25s
Detailed CPU timing summary
     Fock matrix         :         0.0051 s
     Integrals           :         0.0089 s
     Addressing matrices :         0.0002 s
     Guesses             :         0.0004 s
     Iterations          :         2.1015 s
     Properties          :         0.2637 s
     RAS-CI(2) correction:         0.0000 s
  
 
 --------------------------------------------------------------
             Orbital Energies (a.u.) and Symmetries
 --------------------------------------------------------------
 
 Alpha MOs, Restricted
 -- Doubly Occupied --           
-20.441 -20.439  -1.615  -1.090  -0.618  -0.715  -0.715
  1 B1u   1 Ag    2 Ag    2 B1u   3 Ag    1 B3u   1 B2u                        
 -- Singly Occupied (Occupied) --
 -0.411  -0.411
  1 B2g   1 B3g                                                                
 -- Virtual --                   
  0.694
  3 B1u                                                                        
 
 Beta MOs, Restricted
 -- Doubly Occupied --           
-20.441 -20.439  -1.615  -1.090  -0.618  -0.715  -0.715
  1 B1u   1 Ag    2 Ag    2 B1u   3 Ag    1 B3u   1 B2u                        
 -- Singly Occupied (Vacant) --  
 -0.411  -0.411
  1 B2g   1 B3g                                                                
 -- Virtual --                   
  0.694
  3 B1u                                                                        
 --------------------------------------------------------------
 

                        RESTRICTED (RHF) MOLECULAR ORBITAL COEFFICIENTS
                         1         2         3         4         5         6
 eigenvalues:        -20.441   -20.439    -1.615    -1.090    -0.618    -0.715
   1  O 1   s        0.70303   0.70372  -0.16838   0.18497   0.06709  -0.00000
   2  O 1   s        0.01942   0.01251   0.57097  -0.77626  -0.33557   0.00000
   3  O 1   px      -0.00000  -0.00000  -0.00000   0.00000   0.00000   0.65868
   4  O 1   py      -0.00000   0.00000  -0.00000   0.00000  -0.00000   0.00000
   5  O 1   pz       0.00570   0.00015   0.17713   0.15826   0.61352  -0.00000
   6  O 2   s       -0.70303   0.70372  -0.16838  -0.18497   0.06709  -0.00000
   7  O 2   s       -0.01942   0.01251   0.57097   0.77626  -0.33557   0.00000
   8  O 2   px      -0.00000  -0.00000  -0.00000  -0.00000   0.00000   0.65868
   9  O 2   py      -0.00000   0.00000  -0.00000   0.00000  -0.00000   0.00000
  10  O 2   pz       0.00570  -0.00015  -0.17713   0.15826  -0.61352   0.00000
                         7         8         9        10
 eigenvalues:         -0.715    -0.411    -0.411     0.694
   1  O 1   s       -0.00000  -0.00000  -0.00000  -0.09450
   2  O 1   s        0.00000   0.00000   0.00000   0.58264
   3  O 1   px       0.00000   0.76807  -0.00000  -0.00000
   4  O 1   py      -0.65868  -0.00000  -0.76807  -0.00000
   5  O 1   pz      -0.00000  -0.00000   0.00000   0.94498
   6  O 2   s       -0.00000   0.00000  -0.00000   0.09450
   7  O 2   s        0.00000  -0.00000  -0.00000  -0.58264
   8  O 2   px       0.00000  -0.76807   0.00000  -0.00000
   9  O 2   py      -0.65868   0.00000   0.76807   0.00000
  10  O 2   pz       0.00000   0.00000  -0.00000   0.94498
 

======= MOLECULAR ORBITALS IN MOLDEN FORMAT =======
[Molden Format]
[Atoms] (Angs)
  O      1    8      0.00000000      0.00000000     -0.60376000
  O      2    8      0.00000000      0.00000000      0.60376000
[GTO]
1    0
S    3    1.000000
   1.30709320E+02    1.54328970E-01 
   2.38088610E+01    5.35328140E-01 
   6.44360830E+00    4.44634540E-01 
SP   3    1.000000
   5.03315130E+00   -9.99672300E-02   1.55916270E-01 
   1.16959610E+00    3.99512830E-01   6.07683720E-01 
   3.80389000E-01    7.00115470E-01   3.91957390E-01 

2    0
S    3    1.000000
   1.30709320E+02    1.54328970E-01 
   2.38088610E+01    5.35328140E-01 
   6.44360830E+00    4.44634540E-01 
SP   3    1.000000
   5.03315130E+00   -9.99672300E-02   1.55916270E-01 
   1.16959610E+00    3.99512830E-01   6.07683720E-01 
   3.80389000E-01    7.00115470E-01   3.91957390E-01 

[MO]
Sym=X
Ene= -20.440556
Spin=Alpha
Occup=1
     1    7.030276195915e-01
     2    1.942266679101e-02
     3   -1.402757812220e-18
     4   -1.940974026528e-16
     5    5.700756468983e-03
     6   -7.030276195942e-01
     7   -1.942266679106e-02
     8   -2.700481277045e-18
     9   -1.985977418238e-16
    10    5.700756468983e-03
Sym=X
Ene= -20.439475
Spin=Alpha
Occup=1
     1    7.037178208509e-01
     2    1.251294007978e-02
     3   -3.466496311795e-18
     4    4.024099874997e-18
     5    1.452362138755e-04
     6    7.037178208483e-01
     7    1.251294007971e-02
     8   -6.431976599108e-18
     9    7.873905485715e-18
    10   -1.452362138547e-04
Sym=X
Ene= -1.615290
Spin=Alpha
Occup=1
     1   -1.683847666800e-01
     2    5.709690587538e-01
     3   -1.196642657701e-16
     4   -9.872862655155e-16
     5    1.771292410009e-01
     6   -1.683847666800e-01
     7    5.709690587538e-01
     8   -1.626851769960e-16
     9   -1.046173168110e-15
    10   -1.771292410009e-01
Sym=X
Ene= -1.089543
Spin=Alpha
Occup=1
     1    1.849691220879e-01
     2   -7.762560183510e-01
     3    2.510729011418e-17
     4    5.552646777782e-16
     5    1.582641356512e-01
     6   -1.849691220879e-01
     7    7.762560183510e-01
     8   -6.932188499766e-17
     9    6.059751199776e-16
    10    1.582641356512e-01
Sym=X
Ene= -0.618252
Spin=Alpha
Occup=1
     1    6.708841828099e-02
     2   -3.355745633299e-01
     3    3.540993181141e-15
     4   -2.054300142070e-14
     5    6.135194285884e-01
     6    6.708841828100e-02
     7   -3.355745633299e-01
     8    3.525458107117e-15
     9   -2.060449770603e-14
    10   -6.135194285884e-01
Sym=X
Ene= -0.715410
Spin=Alpha
Occup=1
     1   -2.158982772396e-16
     2    2.127550030879e-15
     3    6.586829397940e-01
     4    2.116015357183e-15
     5   -3.397908950196e-15
     6   -3.873915727747e-16
     7    2.260178281852e-15
     8    6.586829397940e-01
     9    1.617153608832e-15
    10    3.338290350763e-15
Sym=X
Ene= -0.715410
Spin=Alpha
Occup=1
     1   -2.013404422446e-15
     2    8.938880097284e-15
     3    1.413271931395e-15
     4   -6.586829397940e-01
     5   -1.933026217311e-14
     6   -2.067691586909e-15
     7    1.004798498390e-14
     8    1.491409026713e-15
     9   -6.586829397940e-01
    10    1.938031808875e-14
Sym=X
Ene= -0.411488
Spin=Alpha
Occup=1
     1   -1.368660434484e-16
     2    1.240310427401e-16
     3    7.680668024687e-01
     4   -3.319395065348e-15
     5   -8.280286107479e-17
     6    3.314176386616e-17
     7   -2.418943803573e-16
     8   -7.680668024687e-01
     9    3.216836316094e-15
    10    5.228023914439e-17
Sym=X
Ene= -0.411488
Spin=Alpha
Occup=1
     1   -3.867112496836e-17
     2    1.637480713737e-16
     3   -2.351707356955e-15
     4   -7.680668024687e-01
     5    1.711438741973e-16
     6   -2.088763280004e-16
     7   -5.014318529053e-17
     8    3.281780026226e-15
     9    7.680668024687e-01
    10   -1.401516077711e-16
Sym=X
Ene= 0.693563
Spin=Alpha
Occup=0
     1   -9.450022123967e-02
     2    5.826446246161e-01
     3   -1.170730546626e-16
     4   -7.742101811720e-18
     5    9.449785794612e-01
     6    9.450022123967e-02
     7   -5.826446246161e-01
     8   -9.756476708615e-17
     9    4.213469653257e-16
    10    9.449785794612e-01

======= END OF MOLDEN-FORMAT MOLECULAR ORBITALS =======

          Ground-State Mulliken Net Atomic Charges

     Atom                 Charge (a.u.)
  ----------------------------------------
      1 O                     0.000000
      2 O                     0.000000
  ----------------------------------------
  Sum of atomic charges =     0.000000

 -----------------------------------------------------------------
                    Cartesian Multipole Moments
 -----------------------------------------------------------------
    Charge (ESU x 10^10)
                 0.0000
    Dipole Moment (Debye)
         X      -0.0000      Y      -0.0000      Z       0.0000
       Tot       0.0000
    Quadrupole Moments (Debye-Ang)
        XX      -8.4723     XY      -0.0000     YY      -8.4723
        XZ      -0.0000     YZ      -0.0000     ZZ      -9.7174
    Octopole Moments (Debye-Ang^2)
       XXX      -0.0000    XXY      -0.0000    XYY      -0.0000
       YYY      -0.0000    XXZ       0.0000    XYZ      -0.0000
       YYZ       0.0000    XZZ      -0.0000    YZZ      -0.0000
       ZZZ       0.0000
    Hexadecapole Moments (Debye-Ang^3)
      XXXX      -3.9610   XXXY      -0.0000   XXYY      -1.3203
      XYYY      -0.0000   YYYY      -3.9610   XXXZ      -0.0000
      XXYZ      -0.0000   XYYZ      -0.0000   YYYZ      -0.0000
      XXZZ      -4.5484   XYZZ      -0.0000   YYZZ      -4.5484
      XZZZ      -0.0000   YZZZ      -0.0000   ZZZZ     -23.3949
 -----------------------------------------------------------------
 Mayer SCF Bond Order, atomic valence on the diagonal:

            1           2
    1   2.0000000   2.0000000
    2   2.0000000   2.0000000


 Total job time:  12.20s(wall), 2.56s(cpu) 
 Tue Oct 24 11:30:29 2023

======= MOLDEN-FORMATTED INPUT FILE FOLLOWS =======
[Molden Format]
[Atoms] (Angs)
  O      1    8      0.00000000      0.00000000     -0.60376000
  O      2    8      0.00000000      0.00000000      0.60376000
[GTO]
1    0
S    3    1.000000
   1.30709320E+02    1.54328970E-01 
   2.38088610E+01    5.35328140E-01 
   6.44360830E+00    4.44634540E-01 
SP   3    1.000000
   5.03315130E+00   -9.99672300E-02   1.55916270E-01 
   1.16959610E+00    3.99512830E-01   6.07683720E-01 
   3.80389000E-01    7.00115470E-01   3.91957390E-01 

2    0
S    3    1.000000
   1.30709320E+02    1.54328970E-01 
   2.38088610E+01    5.35328140E-01 
   6.44360830E+00    4.44634540E-01 
SP   3    1.000000
   5.03315130E+00   -9.99672300E-02   1.55916270E-01 
   1.16959610E+00    3.99512830E-01   6.07683720E-01 
   3.80389000E-01    7.00115470E-01   3.91957390E-01 

[MO]
Sym=X
Ene= -20.440556
Spin=Alpha
Occup=1
     1    7.030276195915e-01
     2    1.942266679101e-02
     3   -1.402757812220e-18
     4   -1.940974026528e-16
     5    5.700756468983e-03
     6   -7.030276195942e-01
     7   -1.942266679106e-02
     8   -2.700481277045e-18
     9   -1.985977418238e-16
    10    5.700756468983e-03
Sym=X
Ene= -20.439475
Spin=Alpha
Occup=1
     1    7.037178208509e-01
     2    1.251294007978e-02
     3   -3.466496311795e-18
     4    4.024099874997e-18
     5    1.452362138755e-04
     6    7.037178208483e-01
     7    1.251294007971e-02
     8   -6.431976599108e-18
     9    7.873905485715e-18
    10   -1.452362138547e-04
Sym=X
Ene= -1.615290
Spin=Alpha
Occup=1
     1   -1.683847666800e-01
     2    5.709690587538e-01
     3   -1.196642657701e-16
     4   -9.872862655155e-16
     5    1.771292410009e-01
     6   -1.683847666800e-01
     7    5.709690587538e-01
     8   -1.626851769960e-16
     9   -1.046173168110e-15
    10   -1.771292410009e-01
Sym=X
Ene= -1.089543
Spin=Alpha
Occup=1
     1    1.849691220879e-01
     2   -7.762560183510e-01
     3    2.510729011418e-17
     4    5.552646777782e-16
     5    1.582641356512e-01
     6   -1.849691220879e-01
     7    7.762560183510e-01
     8   -6.932188499766e-17
     9    6.059751199776e-16
    10    1.582641356512e-01
Sym=X
Ene= -0.618252
Spin=Alpha
Occup=1
     1    6.708841828099e-02
     2   -3.355745633299e-01
     3    3.540993181141e-15
     4   -2.054300142070e-14
     5    6.135194285884e-01
     6    6.708841828100e-02
     7   -3.355745633299e-01
     8    3.525458107117e-15
     9   -2.060449770603e-14
    10   -6.135194285884e-01
Sym=X
Ene= -0.715410
Spin=Alpha
Occup=1
     1   -2.158982772396e-16
     2    2.127550030879e-15
     3    6.586829397940e-01
     4    2.116015357183e-15
     5   -3.397908950196e-15
     6   -3.873915727747e-16
     7    2.260178281852e-15
     8    6.586829397940e-01
     9    1.617153608832e-15
    10    3.338290350763e-15
Sym=X
Ene= -0.715410
Spin=Alpha
Occup=1
     1   -2.013404422446e-15
     2    8.938880097284e-15
     3    1.413271931395e-15
     4   -6.586829397940e-01
     5   -1.933026217311e-14
     6   -2.067691586909e-15
     7    1.004798498390e-14
     8    1.491409026713e-15
     9   -6.586829397940e-01
    10    1.938031808875e-14
Sym=X
Ene= -0.411488
Spin=Alpha
Occup=1
     1   -1.368660434484e-16
     2    1.240310427401e-16
     3    7.680668024687e-01
     4   -3.319395065348e-15
     5   -8.280286107479e-17
     6    3.314176386616e-17
     7   -2.418943803573e-16
     8   -7.680668024687e-01
     9    3.216836316094e-15
    10    5.228023914439e-17
Sym=X
Ene= -0.411488
Spin=Alpha
Occup=1
     1   -3.867112496836e-17
     2    1.637480713737e-16
     3   -2.351707356955e-15
     4   -7.680668024687e-01
     5    1.711438741973e-16
     6   -2.088763280004e-16
     7   -5.014318529053e-17
     8    3.281780026226e-15
     9    7.680668024687e-01
    10   -1.401516077711e-16
Sym=X
Ene= 0.693563
Spin=Alpha
Occup=0
     1   -9.450022123967e-02
     2    5.826446246161e-01
     3   -1.170730546626e-16
     4   -7.742101811720e-18
     5    9.449785794612e-01
     6    9.450022123967e-02
     7   -5.826446246161e-01
     8   -9.756476708615e-17
     9    4.213469653257e-16
    10    9.449785794612e-01

======= END OF MOLDEN-FORMATTED INPUT FILE =======


        *************************************************************
        *                                                           *
        *  Thank you very much for using Q-Chem.  Have a nice day.  *
        *                                                           *
        *************************************************************


