                  Welcome to Q-Chem
     A Quantum Leap Into The Future Of Chemistry


 Q-Chem 6.0 (devel), Q-Chem, Inc., Pleasanton, CA (2022)

 E. Epifanovsky,  A. T. B. Gilbert,  Xintian Feng,  Joonho Lee,  Yuezhi Mao,  
 N. Mardirossian,  P. Pokhilko,  A. White,  M. Wormit,  M. P. Coons,  
 A. L. Dempwolff,  Zhengting Gan,  D. Hait,  P. R. Horn,  L. D. Jacobson,  
 I. Kaliman,  J. Kussmann,  A. W. Lange,  Ka Un Lao,  D. S. Levine,  Jie Liu,  
 S. C. McKenzie,  A. F. Morrison,  K. Nanda,  F. Plasser,  D. R. Rehn,  
 M. L. Vidal,  Zhi-Qiang You,  Ying Zhu,  B. Alam,  B. Albrecht,  
 A. Aldossary,  E. Alguire,  J. H. Andersen,  V. Athavale,  D. Barton,  
 K. Begam,  A. Behn,  N. Bellonzi,  Y. A. Bernard,  E. J. Berquist,  
 H. Burton,  A. Carreras,  K. Carter-Fenk,  Romit Chakraborty,  
 Chandrima Chakravarty,  Junhan Chen,  A. D. Chien,  K. D. Closser,  
 V. Cofer-Shabica,  L. Cunha,  S. Dasgupta,  Jia Deng,  M. de Wergifosse,  
 M. Diedenhofen,  Hainam Do,  S. Ehlert,  Po-Tung Fang,  S. Fatehi,  
 Qingguo Feng,  T. Friedhoff,  B. Ganoe,  J. Gayvert,  Qinghui Ge,  
 G. Gidofalvi,  M. Goldey,  J. Gomes,  C. Gonzalez-Espinoza,  S. Gulania,  
 A. Gunina,  J. A. Gyamfi,  M. W. D. Hanson-Heine,  P. H. P. Harbach,  
 A. W. Hauser,  M. F. Herbst,  M. Hernandez Vera,  M. Hodecker,  
 Z. C. Holden,  S. Houck,  Xunkun Huang,  Kerwin Hui,  B. C. Huynh,  
 K. Ikeda,  M. Ivanov,  Hyunjun Ji,  Zuxin Jin,  Hanjie Jiang,  B. Kaduk,  
 S. Kaehler,  R. Kang,  K. Khistyaev,  Jaehoon Kim,  Yongbin Kim,  
 P. Klunzinger,  Z. Koczor-Benda,  Joong Hoon Koh,  D. Kosenkov,  
 Saikiran Kotaru,  L. Koulias,  T. Kowalczyk,  C. M. Krauter,  K. Kue,  
 A. Kunitsa,  T. Kus,  A. Landau,  K. V. Lawler,  D. Lefrancois,  S. Lehtola,  
 Rain Li,  Shaozhi Li,  Yi-Pei Li,  Jiashu Liang,  M. Liebenthal,  
 Hung-Hsuan Lin,  You-Sheng Lin,  Fenglai Liu,  Kuan-Yu Liu,  
 M. Loipersberger,  A. Luenser,  C. Malbon,  A. Manjanath,  P. Manohar,  
 E. Mansoor,  S. F. Manzer,  Shan-Ping Mao,  A. V. Marenich,  T. Markovich,  
 S. Mason,  F. Matz,  S. A. Maurer,  P. F. McLaughlin,  M. F. S. J. Menger,  
 J.-M. Mewes,  S. A. Mewes,  P. Morgante,  Mohammad Mostafanejad,  
 J. W. Mullinax,  K. J. Oosterbaan,  G. Paran,  V. Parravicini,  
 Alexander C. Paul,  Suranjan K. Paul,  F. Pavosevic,  Zheng Pei,  S. Prager,  
 E. I. Proynov,  E. Ramos,  B. Rana,  A. E. Rask,  A. Rettig,  R. M. Richard,  
 F. Rob,  E. Rossomme,  T. Scheele,  M. Scheurer,  M. Schneider,  
 P. E. Schneider,  N. Sergueev,  S. M. Sharada,  Hengyuan Shen,  
 W. Skomorowski,  D. W. Small,  C. J. Stein,  Yingli Su,  Yu-Chuan Su,  
 E. J. Sundstrom,  Zhen Tao,  J. Thirman,  Hung-Yi Tsai,  T. Tsuchimochi,  
 N. M. Tubman,  C. Utku,  S. P. Veccham,  O. Vydrov,  J. Wenzel,  
 Jonathan Wong,  J. Witte,  A. Yamada,  Chou-Hsun Yang,  Kun Yao,  
 S. Yeganeh,  S. R. Yost,  A. Zech,  F. Zeller,  Igor Ying Zhang,  
 Xing Zhang,  Yu Zhang,  D. Zuev,  A. Aspuru-Guzik,  A. T. Bell,  
 N. A. Besley,  K. B. Bravaya,  B. R. Brooks,  D. Casanova,  Jeng-Da Chai,  
 Hsing-Ta Chen,  S. Coriani,  C. J. Cramer,  A. E. DePrince, III,  
 R. A. DiStasio Jr.,  A. Dreuw,  B. D. Dunietz,  T. R. Furlani,  
 W. A. Goddard III,  S. Grimme,  S. Hammes-Schiffer,  T. Head-Gordon,  
 W. J. Hehre,  Chao-Ping Hsu,  T.-C. Jagau,  Yousung Jung,  A. Klamt,  
 Jing Kong,  D. S. Lambrecht,  Xiangyuan Li,  WanZhen Liang,  N. J. Mayhall,  
 C. W. McCurdy,  J. B. Neaton,  T. Neudecker,  C. Ochsenfeld,  
 J. A. Parkhill,  R. Peverati,  V. A. Rassolov,  Haisheng Ren,  Yihan Shao,  
 L. V. Slipchenko,  R. P. Steele,  J. E. Subotnik,  A. J. W. Thom,  
 A. Tkatchenko,  D. G. Truhlar,  T. Van Voorhis,  Fan Wang,  
 T. A. Wesolowski,  K. B. Whaley,  H. L. Woodcock III,  P. M. Zimmerman,  
 S. Faraji,  P. M. W. Gill,  M. Head-Gordon,  J. M. Herbert,  A. I. Krylov

 Contributors to earlier versions of Q-Chem not listed above: 
 R. D. Adamson,  B. Austin,  R. Baer,  J. Baker,  G. J. O. Beran,  
 K. Brandhorst,  S. T. Brown,  E. F. C. Byrd,  Arup K. Chakraborty,  
 G. K. L. Chan,  Chun-Min Chang,  Yunqing Chen,  C.-L. Cheng,  
 Siu Hung Chien,  D. M. Chipman,  D. L. Crittenden,  H. Dachsel,  
 R. J. Doerksen,  A. D. Dutoi,  R. G. Edgar,  J. Fosso-Tande,  
 L. Fusti-Molnar,  D. Ghosh,  A. Ghysels,  A. Golubeva-Zadorozhnaya,  
 J. Gonthier,  M. S. Gordon,  S. R. Gwaltney,  G. Hawkins,  J. E. Herr,  
 A. Heyden,  S. Hirata,  E. G. Hohenstein,  G. Kedziora,  F. J. Keil,  
 C. Kelley,  Jihan Kim,  R. A. King,  R. Z. Khaliullin,  P. P. Korambath,  
 W. Kurlancheek,  A. Laurent,  A. M. Lee,  M. S. Lee,  S. V. Levchenko,  
 Ching Yeh Lin,  D. Liotard,  E. Livshits,  R. C. Lochan,  I. Lotan,  
 L. A. Martinez-Martinez,  P. E. Maslen,  N. Nair,  D. P. O'Neill,  
 D. Neuhauser,  E. Neuscamman,  C. M. Oana,  R. Olivares-Amaya,  R. Olson,  
 T. M. Perrine,  B. Peters,  P. A. Pieniazek,  A. Prociuk,  Y. M. Rhee,  
 J. Ritchie,  M. A. Rohrdanz,  E. Rosta,  N. J. Russ,  H. F. Schaefer III,  
 M. W. Schmidt,  N. E. Schultz,  S. Sharma,  N. Shenvi,  C. D. Sherrill,  
 A. C. Simmonett,  A. Sodt,  T. Stein,  D. Stuck,  K. S. Thanthiriwatte,  
 V. Vanovschi,  L. Vogt,  Tao Wang,  A. Warshel,  M. A. Watson,  
 C. F. Williams,  Q. Wu,  X. Xu,  Jun Yang,  W. Zhang,  Yan Zhao

   Please cite Q-Chem as follows:
  "Software for the frontiers of quantum chemistry:
   An overview of developments in the Q-Chem 5 package"
   J. Chem. Phys. 155, 084801 (2021)
   https://doi.org/10.1063/5.0055522 (open access)

 Q-Chem 6.0.1 for Intel X86 EM64T Linux

 Parts of Q-Chem use Armadillo 9.900.5 (Nocturnal Misbehaviour).
 http://arma.sourceforge.net/

 Q-Chem begins on Tue Oct 24 12:33:04 2023  

 Host: atlas-182
0

     Scratch files written to ./qchem164729//
 Processing $rem in /scratch/abel/SOFTWARE/qchem/config/preferences:
 Processing $rem in /dipc/acebg/.qchemrc:

 Checking the input file for inconsistencies... 	...done.

--------------------------------------------------------------
User input:
--------------------------------------------------------------
$comment
 RAS-SF CALCULATION
$end

$molecule
 READ s2.molecule
$end

$rem
!**CALCULATION TYPE***     
JOBTYPE            sp    
EXCHANGE           HF
CORRELATION        RASCI    !RASCI=Casanova; RASCI2=Zimmerman
BASIS              def2-TZVP

!***SCF REFERENCE***
!SKIP_SCFMAN        FALSE
UNRESTRICTED       FALSE
!SCF_GUESS          core
!SCF_GUESS_MIX      FALSE
!SCF_GUESS_ALWAYS   FALSE
MAX_SCF_CYCLES     500
!SCF_CONVERGENCE    8
!SCF_ALGORITHM      DIIS !DIIS,DM,DIIS_DM,GDM,DIIS_GDM,GD

!SYMMETRY           TRUE !use of symmetry for calculating integrals
!SYM_IGNORE         FALSE !turn off using symmetry
!SYM_TOL            5 !tolerance for determining point group

!THRESH             14
SCF_FINAL_PRINT     1 !0,1,2,3

!****RAS-SF****
RAS_ROOTS          10       !number of RAS-CI roots to be computed
SET_ITER           150      !number of iterations in RASCI
RAS_ELEC           12       !number of electrons in RAS2
RAS_ELEC_ALPHA     7       !spin-α electrons in RAS2 
RAS_ELEC_BETA      5       !spin-β electrons in RAS2

RAS_ACT            8       !number of orbitals in RAS2 
RAS_ACT_ORB   [11, 12, 13, 14, 15, 16, 17, 18]  !user-selected RAS2 orbitals
RAS_OCC            10       !number of orbitals in RAS1
!N_FROZEN_CORE      0     !Number of frozen core orbitals
!N_FROZEN_VIRTUAL   44      !Number of frozen virtual orbitals

RAS_DO_HOLE        TRUE   !presence of hole excitations in RAS-CI wave function
RAS_DO_PART        TRUE   !presence of particle excitations
!RAS_AMPL_PRINT     10     !threshold (×10 2 ) for the CI amplitudes

!RAS_GUESS_CS       0      !number of closed shell guess conﬁgurations
!RAS_SPIN_MULT      0      !spin multiplicity: 0=any, 2n+1=defined 
!RAS_SRDFT          FALSE  !short-range density functional RAS-CI
!RAS_NFRAG          0     !fragments of excitation analysis in RASCI

RAS_PRINT          2      !level of information
RAS_NATORB         TRUE   !computation of the natural orbital occupancies
!RAS_NATORB_STATE  0      !Saves NO of i RAS computed state in .fchk ﬁle
!RAS_FOD            TRUE

!****RAS-SOC****
CALC_SOC           TRUE   !calculate SOC for EOM-CC, RAS-CI, ADC, TDDFT/TDA and TDDFT
!RAS_SOC_2E        TRUE   !two-electron mean-ﬁeld contribution, default=true
RAS_SOC_SYM_DENS   TRUE   !averaging of α and β densities

!****MEMORY****
MEM_TOTAL          60000 !Default 2000 MB
MEM_STATIC         10000  !Default 64 MB

!**Molecular Properties and Analysis **                                                                                          
!GUI                2
STATE_ANALYSIS     TRUE
MOLDEN_FORMAT      TRUE
PRINT_ORBITALS     20
$end                                           

--------------------------------------------------------------
 ----------------------------------------------------------------
             Standard Nuclear Orientation (Angstroms)
    I     Atom           X                Y                Z
 ----------------------------------------------------------------
    1      S       0.0000000000     0.0000000000    -0.9446000000
    2      S       0.0000000000     0.0000000000     0.9446000000
 ----------------------------------------------------------------
 Molecular Point Group                 D2h   NOp =  8
 Largest Abelian Subgroup              D2h   NOp =  8
 Nuclear Repulsion Energy =          71.70726549 hartrees
 There are       17 alpha and       15 beta electrons
 Requested basis set is def2-TZVP
 There are 26 shells and 74 basis functions

 Q-Chem warning in module libmdc/get_mega.C, line 167:

 Allowed MEM_STATIC has been capped at MEM_STATIC=8191.
 Reduce the value of MEM_STATIC to silence this warning.


 Total QAlloc Memory Limit  60000 MB
 Mega-Array Size      8007 MB
 MEM_STATIC part      8191 MB


                       Distance Matrix (Angstroms)
             S (  1)
   S (  2)  1.889200
 
 A cutoff of  1.0D-09 yielded    340 shell pairs
 There are      2856 function pairs (      3719 Cartesian)
 Smallest overlap matrix eigenvalue = 2.69E-03

 Scale SEOQF with 1.000000e+00/1.000000e+00/1.000000e-01

 Standard Electronic Orientation quadrupole field applied
 Nucleus-field energy     =    -0.0000000031 hartrees
 Guess from superposition of atomic densities
 Warning:  Energy on first SCF cycle will be non-variational
 SAD guess density has 32.000000 electrons

 -----------------------------------------------------------------------
  General SCF calculation program by
  Eric Jon Sundstrom, Paul Horn, Yuezhi Mao, Dmitri Zuev, Alec White,
  David Stuck, Shaama M.S., Shane Yost, Joonho Lee, David Small,
  Daniel Levine, Susi Lehtola, Hugh Burton, Evgeny Epifanovsky,
  Bang C. Huynh
 -----------------------------------------------------------------------
 Hartree-Fock
 Orthonormalizing orbitals
 A restricted open-shell SCF calculation will be
 performed using GDM
 SCF converges when RMS gradient is below 1.0e-05
 ---------------------------------------
  Cycle       Energy        RMS Gradient
 ---------------------------------------
    1    -793.7648489828      6.51e-01   Descent step
    2    -794.1011438411      4.79e-01   Descent step
Fro norm of D 1.158896729757e+00
transformation scaled by 2
    3    -794.3496218631      1.05e+00   Descent step
    4    -794.8024386397      2.69e-01   Descent step
    5    -794.8821068591      8.78e-02   Dog-leg BFGS step
    6    -794.8873005439      6.29e-02   Dog-leg BFGS step
    7    -794.8804549347      7.50e-02  Line search: overstep
    8    -794.8966831139      3.15e-02   Normal BFGS step
    9    -794.8992374446      1.36e-02   Normal BFGS step
   10    -794.8997632299      9.71e-04   Normal BFGS step
   11    -794.8997671604      5.41e-04   Normal BFGS step
   12    -794.8997675858      2.50e-04   Normal BFGS step
   13    -794.8997676216      2.98e-05   Normal BFGS step
   14    -794.8997676126      3.99e-06  Convergence criterion met
The disked orbital energies are calculated using alpha and beta Focks
 ---------------------------------------
 Alpha HF Exchange    Energy = -25.53341384590163
 Beta HF Exchange     Energy = -24.51855981172261
 Nuclear Attraction   Energy =   0.00000000000000
 One-Electron (alpha) Energy = -633.78569006022963
 One-Electron (beta)  Energy = -607.52312553833247
 Total Coulomb        Energy = 424.75375615605412
 Final Alpha MO Eigenvalues
            1           2           3           4           5           6
    1 -92.0231853 -92.0231793  -9.0276433  -9.0272702  -6.7159295  -6.7022673
            7           8           9          10          11          12
    1  -6.7022043  -6.7148510  -6.7123411  -6.7122792  -1.1401534  -0.8698395
           13          14          15          16          17          18
    1  -0.5179882  -0.5436005  -0.3487211  -0.5778607  -0.3755925   0.1083891
           19          20          21          22          23          24
    1   0.2889557   0.3321051   0.3488695   0.3400036   0.4287284   0.4289526
           25          26          27          28          29          30
    1   0.4298780   0.4128480   0.4440184   0.4365922   0.4620095   0.5762470
           31          32          33          34          35          36
    1   0.5772143   0.7762879   0.7967771   0.8021407   0.8235722   1.0931552
           37          38          39          40          41          42
    1   1.5694202   1.5932630   1.6122200   1.6767144   1.6767188   1.7282048
           43          44          45          46          47          48
    1   1.7290148   1.7620960   1.7666539   1.7838150   1.8226481   1.8406227
           49          50          51          52          53          54
    1   1.8533170   1.8533613   1.9469524   1.9577939   1.9578068   1.9675575
           55          56          57          58          59          60
    1   1.9878147   2.0200074   2.0441218   2.0601016   2.0847577   2.1984852
           61          62          63          64          65          66
    1   2.2045984   2.2253564   2.7838565   2.8059033   2.8233763   3.0515630
           67          68          69          70          71          72
    1   9.4398635   9.4569134   9.5105183   9.5278174   9.6714668   9.8629768
           73          74
    1  18.3564925  19.4087302
 Final Beta MO Eigenvalues
            1           2           3           4           5           6
    1 -92.0136880 -92.0136802  -9.0171183  -9.0168873  -6.6921234  -6.6975007
            7           8           9          10          11          12
    1  -6.6974439  -6.6911066  -6.6892775  -6.6891909  -1.0273412  -0.7081374
           13          14          15          16          17          18
    1  -0.4885486  -0.4173843  -0.3109158  -0.1517237   0.0057605   0.1683216
           19          20          21          22          23          24
    1   0.3319176   0.3722856   0.3720455   0.4041713   0.4615329   0.4649794
           25          26          27          28          29          30
    1   0.4648837   0.5043447   0.4513230   0.4736034   0.4976417   0.6287137
           31          32          33          34          35          36
    1   0.6277758   0.8069020   0.8415268   0.8666729   0.8558745   1.1374589
           37          38          39          40          41          42
    1   1.6085111   1.6337142   1.6395701   1.7111284   1.7111312   1.7485634
           43          44          45          46          47          48
    1   1.7486463   1.7870396   1.7857186   1.8083485   1.8513513   1.8573936
           49          50          51          52          53          54
    1   1.8794566   1.8794270   1.9871102   1.9858160   1.9858699   1.9904874
           55          56          57          58          59          60
    1   2.0210210   2.0602062   2.0571964   2.1013171   2.0984375   2.2356215
           61          62          63          64          65          66
    1   2.2347617   2.2543193   2.8181995   2.8259439   2.8562949   3.0777149
           67          68          69          70          71          72
    1   9.4617454   9.4625646   9.5322088   9.5333193   9.6924439   9.8826456
           73          74
    1  18.3713196  19.4234544
 SCF time:   CPU 3.65s  wall 6.00s 
<S^2> =          2.000000000
 SCF   energy in the final basis set =     -794.8997676126
 Total energy in the final basis set =     -794.8997676126

 Q-Chem warning in module 0, line  204:

 Quadrupole field failed to resolve orbital degeneracies.


 Q-Chem warning in module 0, line  204:

 Quadrupole field failed to resolve orbital degeneracies.

  
     ##========================================##
     ||                                        ||
     ||              R A S M A N 2             ||
     ||________________________________________||
     ||                                        ||
     ||  Author:                               ||
     ||                                        ||
     ||        David Casanova (2010)           ||
     ||                                        ||
     ##========================================##
  
Setting single-point xc-functionals (if necessary)

  ***************************************************
  *  RAS-CI Dimensions:                             *
  *                                                 *
  *  Active Elec.:  12 ( 7, 5)   Active Orb.:   8   *
  *  Doubly Occ. :  10           Doubly Vir.:  56   *
  *  Frozen Occ. :   0           Frozen Vir.:   0   *
  *                                                 *
  *  Total CI configurations:    122416             * 
  *    Active configurations:       448             * 
  *      Hole configurations:      2800             * 
  *  Particle configurations:    119168             * 
  *                                                 *
  *   Requested states:       10                    *
  *  Spin multiplicity: Any multiplicity            *
  *                                                 *
  ***************************************************
-----------------------------------------
    Memory requirements of RASCI

 Each CI-vector requires      0.93 MiB 
 Max. subspace vectors           1500      

 Reduced Lists                0.00 MiB 
 Excitation Lists             0.00 MiB 
 Excitation Lists Sign        0.00 MiB 
 CI-space (Max)            1427.46 MiB 
 Integrals                    5.96 MiB 
 Memory required (Max)     1427.46 MiB 
 Memory available          7811.55 MiB 

    Disk requirements of RASCI

 Fock matrix                  0.08 MiB 
 2-electron integrals         7.45 MiB 
 CI-space                  2801.88 MiB 
 Disk required             2809.41 MiB 
-----------------------------------------
  
RAS1 HF-like energy:           -765.0056650542
 Computing integrals
 Computing J and K matrices
 Computing addressing
 Making amplitude guesses
 
Direct CI diagonalization
 ---------------------------------------------------
 Iter    Rts Conv    Rts Left    Ttl Dev     Max Dev
 ---------------------------------------------------
   1         0          10      0.012356    0.001473
   2         0          10      0.008261    0.001043
   3         0          10      0.005375    0.000719
   4         0          10      0.005807    0.000736
   5         0          10      0.005563    0.000762
   6         0          10      0.002062    0.000319
   7         0          10      0.001551    0.000236
   8         0          10      0.001613    0.000245
   9         0          10      0.001894    0.000316
  10         0          10      0.001111    0.000167
  11         0          10      0.000580    0.000101
  12         0          10      0.000691    0.000142
  13         0          10      0.000821    0.000184
  14         0          10      0.000590    0.000118
  15         0          10      0.000393    0.000092
  16         0          10      0.000292    0.000081
  17         0          10      0.000512    0.000172
  18         0          10      0.000380    0.000108
  19         0          10      0.000284    0.000090
  20         1           9      0.000221    0.000079
  21         1           9      0.000270    0.000107
  22         1           9      0.000326    0.000126
  23         1           9      0.000190    0.000068
  24         1           9      0.000155    0.000060
  25         1           9      0.000121    0.000048
  26         1           9      0.000205    0.000087
  27         1           9      0.000113    0.000042
  28         4           6      0.000546    0.000499
  29         4           6      0.001025    0.000535
  30         4           6      0.001158    0.000637
  31         4           6      0.000948    0.000536
  32         4           6      0.000739    0.000411
  33         5           5      0.000714    0.000376
  34         6           4      0.000588    0.000379
  35         7           3      0.000427    0.000217
  36         7           3      0.000492    0.000273
  37         8           2      0.000486    0.000250
  38         8           2      0.000491    0.000311
  39         8           2      0.000455    0.000247
  40         8           2      0.000314    0.000180
  41         8           2      0.000278    0.000158
  42         8           2      0.000338    0.000209
  43         8           2      0.000409    0.000204
  44         8           2      0.000272    0.000145
  45         8           2      0.000222    0.000109
  46         8           2      0.000254    0.000145
  47         8           2      0.000346    0.000216
  48         8           2      0.000421    0.000223
  49         8           2      0.000287    0.000154
  50         8           2      0.000273    0.000135
  51         8           2      0.000345    0.000215
  52         8           2      0.000456    0.000259
  53         8           2      0.000445    0.000255
  54         8           2      0.000288    0.000145
  55         8           2      0.000312    0.000158
  56         8           2      0.000415    0.000278
  57         8           2      0.000442    0.000246
  58         8           2      0.000371    0.000203
  59         8           2      0.000313    0.000160
  60         8           2      0.000443    0.000255
  61         8           2      0.000588    0.000362
  62         7           3      0.001117    0.000498
  63         7           3      0.000680    0.000256
  64         7           3      0.000524    0.000175
  65         8           2      0.000569    0.000232
  66         7           3      0.000601    0.000211
  67         8           2      0.000463    0.000185
  68         7           3      0.000258    0.000091
  69         7           3      0.000210    0.000074
  70         7           3      0.000226    0.000094
  71         7           3      0.000270    0.000092
  72         7           3      0.000204    0.000078
  73         7           3      0.000141    0.000047
  74         7           3      0.000141    0.000059
  75         7           3      0.000180    0.000078
  76         7           3      0.000182    0.000063
  77         7           3      0.000119    0.000041
  78         7           3      0.000084    0.000028
  79         7           3      0.000080    0.000034
  80         7           3      0.000097    0.000032
  81         7           3      0.000065    0.000022
  82         7           3      0.000042    0.000013
  83         7           3      0.000030    0.000009
  84         7           3      0.000033    0.000012
  85         7           3      0.000038    0.000012
  86         7           3      0.000022    0.000006
  87         7           3      0.000018    0.000005
  88         7           3      0.000015    0.000004
  89         8           2      0.000018    0.000008
  90         8           2      0.000017    0.000004
  91         8           2      0.000012    0.000003
  92         8           2      0.000011    0.000003
  93         8           2      0.000010    0.000004
  94         8           2      0.000012    0.000006
  95         8           2      0.000011    0.000003
  96         9           1      0.000009    0.000003
  97         9           1      0.000010    0.000004
  98         9           1      0.000012    0.000006
  99         9           1      0.000011    0.000005
 100         9           1      0.000009    0.000003
 101         9           1      0.000009    0.000003
 102         9           1      0.000009    0.000003
 103         9           1      0.000010    0.000004
 104         9           1      0.000008    0.000002
 105         9           1      0.000007    0.000001
 106         9           1      0.000007    0.000001
 107         9           1      0.000007    0.000001
 108        10           0      0.000007    0.000001    Roots Converged
 ---------------------------------------------------
   
**************************************************
 RAS-CI total energy for state   1:   -795.201260778489
  Excitation energy (eV) =  0.000000000000
  State symmetry: B1g   (D2h      )
  <S^2>      :  2.0000
  Dipole Moment:   -0.0000 X     0.0000 Y    -0.0000 Z
 NATURAL OCCUPATION NUMBERS (higher than 1.0E-05)
            1           2           3           4           5           6
    1   2.0000000   2.0000000   1.9999999   1.9999999   1.9999998   1.9999996
            7           8           9          10          11          12
    1   1.9999994   1.9999993   1.9999990   1.9999989   1.9882745   1.9725279
           13          14          15          16          17          18
    1   1.9607423   1.9591711   1.9589661   1.0267679   1.0263528   0.0419738
           19          20          21          22          23          24
    1   0.0099472   0.0099451   0.0052963   0.0052704   0.0046336   0.0045406
           25          26          27          28          29          30
    1   0.0042843   0.0042724   0.0026861   0.0026742   0.0016385   0.0015591
           31          32          33          34          35          36
    1   0.0015215   0.0015189   0.0009041   0.0009018   0.0002927   0.0002825
           37          38          39          40          41          42
    1   0.0002604   0.0002603   0.0002584   0.0002560   0.0002056   0.0001943
           43          44          45          46          47          48
    1   0.0001908   0.0001788   0.0001784   0.0001742   0.0001693   0.0001611
           49          50          51          52          53          54
    1   0.0001576   0.0001286   0.0000349   0.0000347   0.0000327   0.0000323
           55          56          57          58          59          60
    1   0.0000242   0.0000240   0.0000213   0.0000170   0.0000159   0.0000138
 Created directory ./qchem164729/plots

  Amplitudes : 
  
 | HOLE  | ALPHA    | BETA     | PART  |    AMPLITUDE 
--------------------------------------------------
 |       | 11111110 | 11110100 |       |     9.4869574624842E-01
 |       | 11111110 | 11001110 |       |     1.0143574256297E-01
--------------------------------------------------
*** Contributions RASCI wfn    Active:  92.61
                                 Hole:   0.00
                                 Part:   7.39

      Mulliken population analysis 
 ---------------------------------------------------
   Atom    Charge (a.u.)   Spin (a.u.)  
 ---------------------------------------------------
   1  S   -0.000000        1.000000 
   2  S   -0.000000        1.000000 
 ---------------------------------------------------
   Sum:   -0.000000        2.000000 
 ---------------------------------------------------
 
  
 NATURAL OCCUPATION NUMBERS (higher than 1.0E-05)
            1           2           3           4           5           6
    1   2.0000000   2.0000000   1.9999999   1.9999999   1.9999998   1.9999996
            7           8           9          10          11          12
    1   1.9999994   1.9999993   1.9999990   1.9999989   1.9882745   1.9725279
           13          14          15          16          17          18
    1   1.9607423   1.9591711   1.9589661   1.0267679   1.0263528   0.0419738
           19          20          21          22          23          24
    1   0.0099472   0.0099451   0.0052963   0.0052704   0.0046336   0.0045406
           25          26          27          28          29          30
    1   0.0042843   0.0042724   0.0026861   0.0026742   0.0016385   0.0015591
           31          32          33          34          35          36
    1   0.0015215   0.0015189   0.0009041   0.0009018   0.0002927   0.0002825
           37          38          39          40          41          42
    1   0.0002604   0.0002603   0.0002584   0.0002560   0.0002056   0.0001943
           43          44          45          46          47          48
    1   0.0001908   0.0001788   0.0001784   0.0001742   0.0001693   0.0001611
           49          50          51          52          53          54
    1   0.0001576   0.0001286   0.0000349   0.0000347   0.0000327   0.0000323
           55          56          57          58          59          60
    1   0.0000242   0.0000240   0.0000213   0.0000170   0.0000159   0.0000138
  
*** Unpaired Electrons
 Yamaguchi Nd:         2.53
 Head-Gordon Nu:       2.21
 Head-Gordon Nu_nl:    2.03
  
**************************************************
 RAS-CI total energy for state   2:   -795.070093590625
  Excitation energy (eV) =  3.569240779074
  State symmetry: Au    (D2h      )
  <S^2>      :  2.0000
  Dipole Moment:   -0.0000 X    -0.0000 Y    -0.0000 Z
  Trans. Moment:    0.0000 X     0.0000 Y    -0.0285 Z
  Strength   :  0.000071
  Natural transition orbitals ( 1 -> 2 ):
   e-/hole pair  1 alpha:  ampl =  0.025718 (  0.1%)   [8 : 9]
   e-/hole pair  2 alpha:  ampl =  0.025044 (  0.1%)   [7 : 10]
   e-/hole pair  1 beta :  ampl =  0.689816 ( 47.6%)   [8 : 9]
   e-/hole pair  2 beta :  ampl =  0.657268 ( 43.2%)   [7 : 10]
   Sum of square amplitudes: 0.93

 NATURAL OCCUPATION NUMBERS (higher than 1.0E-05)
            1           2           3           4           5           6
    1   2.0000000   2.0000000   1.9999999   1.9999999   1.9999998   1.9999997
            7           8           9          10          11          12
    1   1.9999994   1.9999994   1.9999992   1.9999990   1.9834222   1.9739962
           13          14          15          16          17          18
    1   1.9691885   1.5219486   1.5128451   1.4767866   1.4675847   0.0371053
           19          20          21          22          23          24
    1   0.0065304   0.0059508   0.0059377   0.0055855   0.0054176   0.0051123
           25          26          27          28          29          30
    1   0.0047595   0.0025658   0.0024056   0.0023097   0.0012907   0.0010327
           31          32          33          34          35          36
    1   0.0010280   0.0006898   0.0006867   0.0005664   0.0005514   0.0005373
           37          38          39          40          41          42
    1   0.0005154   0.0005105   0.0005080   0.0003582   0.0003361   0.0003207
           43          44          45          46          47          48
    1   0.0002447   0.0002422   0.0001570   0.0001531   0.0001407   0.0001339
           49          50          51          52          53          54
    1   0.0001326   0.0001035   0.0000583   0.0000560   0.0000353   0.0000264
           55          56          57          58          59          60
    1   0.0000251   0.0000235   0.0000155   0.0000153   0.0000147   0.0000112

  Amplitudes : 
  
 | HOLE  | ALPHA    | BETA     | PART  |    AMPLITUDE 
--------------------------------------------------
 |       | 11111110 | 11100110 |       |    -6.6489154190865E-01
 |       | 11111110 | 11011100 |       |     6.9700117432007E-01
--------------------------------------------------
*** Contributions RASCI wfn    Active:  93.66
                                 Hole:   0.00
                                 Part:   6.34

      Mulliken population analysis 
 ---------------------------------------------------
   Atom    Charge (a.u.)   Spin (a.u.)  
 ---------------------------------------------------
   1  S   -0.000000        1.000000 
   2  S   -0.000000        1.000000 
 ---------------------------------------------------
   Sum:   -0.000000        2.000000 
 ---------------------------------------------------
 
  
 NATURAL OCCUPATION NUMBERS (higher than 1.0E-05)
            1           2           3           4           5           6
    1   2.0000000   2.0000000   1.9999999   1.9999999   1.9999998   1.9999997
            7           8           9          10          11          12
    1   1.9999994   1.9999994   1.9999992   1.9999990   1.9834222   1.9739962
           13          14          15          16          17          18
    1   1.9691885   1.5219486   1.5128451   1.4767866   1.4675847   0.0371053
           19          20          21          22          23          24
    1   0.0065304   0.0059508   0.0059377   0.0055855   0.0054176   0.0051123
           25          26          27          28          29          30
    1   0.0047595   0.0025658   0.0024056   0.0023097   0.0012907   0.0010327
           31          32          33          34          35          36
    1   0.0010280   0.0006898   0.0006867   0.0005664   0.0005514   0.0005373
           37          38          39          40          41          42
    1   0.0005154   0.0005105   0.0005080   0.0003582   0.0003361   0.0003207
           43          44          45          46          47          48
    1   0.0002447   0.0002422   0.0001570   0.0001531   0.0001407   0.0001339
           49          50          51          52          53          54
    1   0.0001326   0.0001035   0.0000583   0.0000560   0.0000353   0.0000264
           55          56          57          58          59          60
    1   0.0000251   0.0000235   0.0000155   0.0000153   0.0000147   0.0000112
  
*** Unpaired Electrons
 Yamaguchi Nd:         3.35
 Head-Gordon Nu:       2.19
 Head-Gordon Nu_nl:    2.29
  
**************************************************
 RAS-CI total energy for state   3:   -795.070056660857
  Excitation energy (eV) =  3.570245689181
  State symmetry: B1u   (D2h      )
  <S^2>      :  2.0000
  Dipole Moment:    0.0000 X    -0.0000 Y    -0.0000 Z
  Trans. Moment:   -0.0000 X     0.0000 Y    -0.0000 Z
  Strength   :  0.000000
  Natural transition orbitals ( 1 -> 3 ):
   e-/hole pair  1 alpha:  ampl =  0.024996 (  0.1%)   [8 : 9]
   e-/hole pair  2 alpha:  ampl =  0.022817 (  0.1%)   [7 : 10]
   e-/hole pair  1 beta :  ampl =  0.679899 ( 46.2%)   [8 : 9]
   e-/hole pair  2 beta :  ampl =  0.667570 ( 44.6%)   [7 : 10]
   Sum of square amplitudes: 0.93

 NATURAL OCCUPATION NUMBERS (higher than 1.0E-05)
            1           2           3           4           5           6
    1   2.0000000   2.0000000   1.9999999   1.9999999   1.9999998   1.9999997
            7           8           9          10          11          12
    1   1.9999994   1.9999994   1.9999991   1.9999991   1.9834198   1.9740088
           13          14          15          16          17          18
    1   1.9692495   1.5083649   1.4993609   1.4902884   1.4812044   0.0370714
           19          20          21          22          23          24
    1   0.0065148   0.0059540   0.0057454   0.0057425   0.0054113   0.0051155
           25          26          27          28          29          30
    1   0.0047545   0.0025516   0.0023743   0.0023339   0.0012894   0.0010385
           31          32          33          34          35          36
    1   0.0010182   0.0007085   0.0006752   0.0005602   0.0005560   0.0005386
           37          38          39          40          41          42
    1   0.0005103   0.0005089   0.0005063   0.0003525   0.0003307   0.0003260
           43          44          45          46          47          48
    1   0.0002443   0.0002432   0.0001565   0.0001529   0.0001406   0.0001341
           49          50          51          52          53          54
    1   0.0001329   0.0001027   0.0000572   0.0000568   0.0000352   0.0000258
           55          56          57          58          59          60
    1   0.0000256   0.0000235   0.0000154   0.0000150   0.0000149   0.0000111

  Amplitudes : 
  
 | HOLE  | ALPHA    | BETA     | PART  |    AMPLITUDE 
--------------------------------------------------
 |       | 11111110 | 11101100 |       |     6.8781434659966E-01
 |       | 11111110 | 11010110 |       |     6.7442662510370E-01
--------------------------------------------------
*** Contributions RASCI wfn    Active:  93.66
                                 Hole:   0.00
                                 Part:   6.34

      Mulliken population analysis 
 ---------------------------------------------------
   Atom    Charge (a.u.)   Spin (a.u.)  
 ---------------------------------------------------
   1  S   -0.000000        1.000000 
   2  S   -0.000000        1.000000 
 ---------------------------------------------------
   Sum:   -0.000000        2.000000 
 ---------------------------------------------------
 
  
 NATURAL OCCUPATION NUMBERS (higher than 1.0E-05)
            1           2           3           4           5           6
    1   2.0000000   2.0000000   1.9999999   1.9999999   1.9999998   1.9999997
            7           8           9          10          11          12
    1   1.9999994   1.9999994   1.9999991   1.9999991   1.9834198   1.9740088
           13          14          15          16          17          18
    1   1.9692495   1.5083649   1.4993609   1.4902884   1.4812044   0.0370714
           19          20          21          22          23          24
    1   0.0065148   0.0059540   0.0057454   0.0057425   0.0054113   0.0051155
           25          26          27          28          29          30
    1   0.0047545   0.0025516   0.0023743   0.0023339   0.0012894   0.0010385
           31          32          33          34          35          36
    1   0.0010182   0.0007085   0.0006752   0.0005602   0.0005560   0.0005386
           37          38          39          40          41          42
    1   0.0005103   0.0005089   0.0005063   0.0003525   0.0003307   0.0003260
           43          44          45          46          47          48
    1   0.0002443   0.0002432   0.0001565   0.0001529   0.0001406   0.0001341
           49          50          51          52          53          54
    1   0.0001329   0.0001027   0.0000572   0.0000568   0.0000352   0.0000258
           55          56          57          58          59          60
    1   0.0000256   0.0000235   0.0000154   0.0000150   0.0000149   0.0000111
  
*** Unpaired Electrons
 Yamaguchi Nd:         3.35
 Head-Gordon Nu:       2.19
 Head-Gordon Nu_nl:    2.29
  
**************************************************
 RAS-CI total energy for state   4:   -795.065658308524
  Excitation energy (eV) =  3.689930945548
  State symmetry: B1u   (D2h      )
  <S^2>      :  2.0000
  Dipole Moment:    0.0000 X     0.0000 Y    -0.0000 Z
  Trans. Moment:    0.0000 X     0.0000 Y     0.0000 Z
  Strength   :  0.000000
  Natural transition orbitals ( 1 -> 4 ):
   e-/hole pair  1 alpha:  ampl =  0.003370 (  0.0%)   [8 : 9]
   e-/hole pair  2 alpha:  ampl =  0.003342 (  0.0%)   [7 : 10]
   e-/hole pair  1 beta :  ampl =  0.677991 ( 46.0%)   [8 : 9]
   e-/hole pair  2 beta :  ampl =  0.665711 ( 44.3%)   [7 : 10]
   Sum of square amplitudes: 0.91

 NATURAL OCCUPATION NUMBERS (higher than 1.0E-05)
            1           2           3           4           5           6
    1   2.0000000   2.0000000   1.9999999   1.9999999   1.9999998   1.9999996
            7           8           9          10          11          12
    1   1.9999994   1.9999993   1.9999992   1.9999990   1.9830084   1.9736752
           13          14          15          16          17          18
    1   1.9689356   1.5077380   1.4999618   1.4901047   1.4823545   0.0373649
           19          20          21          22          23          24
    1   0.0060801   0.0060654   0.0055724   0.0054897   0.0052692   0.0052650
           25          26          27          28          29          30
    1   0.0048139   0.0025552   0.0024356   0.0023982   0.0012962   0.0009744
           31          32          33          34          35          36
    1   0.0009494   0.0006863   0.0006756   0.0006644   0.0006639   0.0005952
           37          38          39          40          41          42
    1   0.0005951   0.0005572   0.0005156   0.0005108   0.0003386   0.0003379
           43          44          45          46          47          48
    1   0.0002514   0.0001625   0.0001551   0.0001480   0.0001480   0.0001436
           49          50          51          52          53          54
    1   0.0001432   0.0001022   0.0000661   0.0000657   0.0000293   0.0000290
           55          56          57
    1   0.0000215   0.0000215   0.0000114

  Amplitudes : 
  
 | HOLE  | ALPHA    | BETA     | PART  |    AMPLITUDE 
--------------------------------------------------
 |       | 11111110 | 11101100 |       |    -6.7534636551257E-01
 |       | 11111110 | 11010110 |       |     6.8674326442918E-01
--------------------------------------------------
*** Contributions RASCI wfn    Active:  93.68
                                 Hole:   0.00
                                 Part:   6.32

      Mulliken population analysis 
 ---------------------------------------------------
   Atom    Charge (a.u.)   Spin (a.u.)  
 ---------------------------------------------------
   1  S   -0.000000        1.000000 
   2  S   -0.000000        1.000000 
 ---------------------------------------------------
   Sum:   -0.000000        2.000000 
 ---------------------------------------------------
 
  
 NATURAL OCCUPATION NUMBERS (higher than 1.0E-05)
            1           2           3           4           5           6
    1   2.0000000   2.0000000   1.9999999   1.9999999   1.9999998   1.9999996
            7           8           9          10          11          12
    1   1.9999994   1.9999993   1.9999992   1.9999990   1.9830084   1.9736752
           13          14          15          16          17          18
    1   1.9689356   1.5077380   1.4999618   1.4901047   1.4823545   0.0373649
           19          20          21          22          23          24
    1   0.0060801   0.0060654   0.0055724   0.0054897   0.0052692   0.0052650
           25          26          27          28          29          30
    1   0.0048139   0.0025552   0.0024356   0.0023982   0.0012962   0.0009744
           31          32          33          34          35          36
    1   0.0009494   0.0006863   0.0006756   0.0006644   0.0006639   0.0005952
           37          38          39          40          41          42
    1   0.0005951   0.0005572   0.0005156   0.0005108   0.0003386   0.0003379
           43          44          45          46          47          48
    1   0.0002514   0.0001625   0.0001551   0.0001480   0.0001480   0.0001436
           49          50          51          52          53          54
    1   0.0001432   0.0001022   0.0000661   0.0000657   0.0000293   0.0000290
           55          56          57
    1   0.0000215   0.0000215   0.0000114
  
*** Unpaired Electrons
 Yamaguchi Nd:         3.35
 Head-Gordon Nu:       2.19
 Head-Gordon Nu_nl:    2.29
  
**************************************************
 RAS-CI total energy for state   5:   -795.026532753032
  Excitation energy (eV) =  4.754591478742
  State symmetry: B2g   (D2h      )
  <S^2>      :  2.0000
  Dipole Moment:   -0.0000 X     0.0000 Y     0.0000 Z
  Trans. Moment:   -0.0000 X    -0.0000 Y     0.0000 Z
  Strength   :  0.000000
  Natural transition orbitals ( 1 -> 5 ):
   e-/hole pair  1 alpha:  ampl =  0.048214 (  0.2%)   [8 : 9]
   e-/hole pair  2 alpha:  ampl =  0.043813 (  0.2%)   [7 : 10]
   e-/hole pair  1 beta :  ampl =  0.941012 ( 88.6%)   [8 : 9]
   e-/hole pair  2 beta :  ampl =  0.064844 (  0.4%)   [7 : 10]
   Sum of square amplitudes: 0.90

 NATURAL OCCUPATION NUMBERS (higher than 1.0E-05)
            1           2           3           4           5           6
    1   2.0000000   2.0000000   1.9999999   1.9999999   1.9999999   1.9999998
            7           8           9          10          11          12
    1   1.9999995   1.9999994   1.9999991   1.9999989   1.9839772   1.9825025
           13          14          15          16          17          18
    1   1.9638420   1.9595230   1.9544429   1.0256105   1.0157331   0.0385937
           19          20          21          22          23          24
    1   0.0143078   0.0130896   0.0054038   0.0053271   0.0050978   0.0047795
           25          26          27          28          29          30
    1   0.0040873   0.0038471   0.0037040   0.0029450   0.0018051   0.0015849
           31          32          33          34          35          36
    1   0.0015713   0.0015283   0.0014073   0.0010990   0.0004609   0.0004359
           37          38          39          40          41          42
    1   0.0004065   0.0003753   0.0003110   0.0002872   0.0002509   0.0002294
           43          44          45          46          47          48
    1   0.0002191   0.0001748   0.0001638   0.0001615   0.0001470   0.0001349
           49          50          51          52          53          54
    1   0.0000990   0.0000806   0.0000492   0.0000461   0.0000348   0.0000230
           55          56          57
    1   0.0000197   0.0000184   0.0000141

  Amplitudes : 
  
 | HOLE  | ALPHA    | BETA     | PART  |    AMPLITUDE 
--------------------------------------------------
 |       | 11111110 | 11111000 |       |     9.4803242515194E-01
--------------------------------------------------
*** Contributions RASCI wfn    Active:  91.94
                                 Hole:   0.00
                                 Part:   8.06

      Mulliken population analysis 
 ---------------------------------------------------
   Atom    Charge (a.u.)   Spin (a.u.)  
 ---------------------------------------------------
   1  S   -0.000000        1.000000 
   2  S   -0.000000        1.000000 
 ---------------------------------------------------
   Sum:   -0.000000        2.000000 
 ---------------------------------------------------
 
  
 NATURAL OCCUPATION NUMBERS (higher than 1.0E-05)
            1           2           3           4           5           6
    1   2.0000000   2.0000000   1.9999999   1.9999999   1.9999999   1.9999998
            7           8           9          10          11          12
    1   1.9999995   1.9999994   1.9999991   1.9999989   1.9839772   1.9825025
           13          14          15          16          17          18
    1   1.9638420   1.9595230   1.9544429   1.0256105   1.0157331   0.0385937
           19          20          21          22          23          24
    1   0.0143078   0.0130896   0.0054038   0.0053271   0.0050978   0.0047795
           25          26          27          28          29          30
    1   0.0040873   0.0038471   0.0037040   0.0029450   0.0018051   0.0015849
           31          32          33          34          35          36
    1   0.0015713   0.0015283   0.0014073   0.0010990   0.0004609   0.0004359
           37          38          39          40          41          42
    1   0.0004065   0.0003753   0.0003110   0.0002872   0.0002509   0.0002294
           43          44          45          46          47          48
    1   0.0002191   0.0001748   0.0001638   0.0001615   0.0001470   0.0001349
           49          50          51          52          53          54
    1   0.0000990   0.0000806   0.0000492   0.0000461   0.0000348   0.0000230
           55          56          57
    1   0.0000197   0.0000184   0.0000141
  
*** Unpaired Electrons
 Yamaguchi Nd:         2.53
 Head-Gordon Nu:       2.23
 Head-Gordon Nu_nl:    2.03
  
**************************************************
 RAS-CI total energy for state   6:   -795.026102615202
  Excitation energy (eV) =  4.766296124594
  State symmetry: Au    (D2h      )
  <S^2>      :  2.0000
  Dipole Moment:    0.0000 X    -0.0000 Y    -0.0000 Z
  Trans. Moment:    0.0000 X     0.0000 Y    -1.0651 Z
  Strength   :  0.132462
  Natural transition orbitals ( 1 -> 6 ):
   e-/hole pair  1 alpha:  ampl =  0.181523 (  3.3%)   [8 : 9]
   e-/hole pair  2 alpha:  ampl =  0.105607 (  1.1%)   [7 : 10]
   e-/hole pair  1 beta :  ampl =  0.665599 ( 44.3%)   [8 : 9]
   e-/hole pair  2 beta :  ampl =  0.630879 ( 39.8%)   [7 : 10]
   Sum of square amplitudes: 0.93

 NATURAL OCCUPATION NUMBERS (higher than 1.0E-05)
            1           2           3           4           5           6
    1   2.0000000   2.0000000   1.9999999   1.9999999   1.9999998   1.9999995
            7           8           9          10          11          12
    1   1.9999995   1.9999993   1.9999992   1.9999992   1.9836616   1.9735392
           13          14          15          16          17          18
    1   1.9094604   1.5503988   1.5040311   1.4626832   1.4169276   0.0990793
           19          20          21          22          23          24
    1   0.0240810   0.0239781   0.0056242   0.0055330   0.0054365   0.0046082
           25          26          27          28          29          30
    1   0.0045671   0.0044722   0.0036292   0.0036223   0.0026564   0.0018816
           31          32          33          34          35          36
    1   0.0018749   0.0017639   0.0013671   0.0012904   0.0004700   0.0004616
           37          38          39          40          41          42
    1   0.0004604   0.0003785   0.0003632   0.0003493   0.0002116   0.0002112
           43          44          45          46          47          48
    1   0.0001955   0.0001620   0.0001169   0.0001124   0.0000465   0.0000441
           49          50          51          52          53          54
    1   0.0000306   0.0000274   0.0000271   0.0000226   0.0000225   0.0000175
           55          56
    1   0.0000172   0.0000171

  Amplitudes : 
  
 | HOLE  | ALPHA    | BETA     | PART  |    AMPLITUDE 
--------------------------------------------------
 |       | 11111110 | 11110001 |       |    -1.1459990141253E-01
 |       | 11111110 | 11100110 |       |     6.5463862405644E-01
 |       | 11111110 | 11011100 |       |     6.2191021653254E-01
 |       | 11111011 | 11110100 |       |     1.6621072776043E-01
 |       | 11111100 | 11110100 |  26   |     1.1299400580576E-01
 |       | 11110110 | 11110100 |  28   |     1.1172555260702E-01
--------------------------------------------------
*** Contributions RASCI wfn    Active:  87.39
                                 Hole:   0.00
                                 Part:  12.61

      Mulliken population analysis 
 ---------------------------------------------------
   Atom    Charge (a.u.)   Spin (a.u.)  
 ---------------------------------------------------
   1  S   -0.000000        1.000000 
   2  S   -0.000000        1.000000 
 ---------------------------------------------------
   Sum:   -0.000000        2.000000 
 ---------------------------------------------------
 
  
 NATURAL OCCUPATION NUMBERS (higher than 1.0E-05)
            1           2           3           4           5           6
    1   2.0000000   2.0000000   1.9999999   1.9999999   1.9999998   1.9999995
            7           8           9          10          11          12
    1   1.9999995   1.9999993   1.9999992   1.9999992   1.9836616   1.9735392
           13          14          15          16          17          18
    1   1.9094604   1.5503988   1.5040311   1.4626832   1.4169276   0.0990793
           19          20          21          22          23          24
    1   0.0240810   0.0239781   0.0056242   0.0055330   0.0054365   0.0046082
           25          26          27          28          29          30
    1   0.0045671   0.0044722   0.0036292   0.0036223   0.0026564   0.0018816
           31          32          33          34          35          36
    1   0.0018749   0.0017639   0.0013671   0.0012904   0.0004700   0.0004616
           37          38          39          40          41          42
    1   0.0004604   0.0003785   0.0003632   0.0003493   0.0002116   0.0002112
           43          44          45          46          47          48
    1   0.0001955   0.0001620   0.0001169   0.0001124   0.0000465   0.0000441
           49          50          51          52          53          54
    1   0.0000306   0.0000274   0.0000271   0.0000226   0.0000225   0.0000175
           55          56
    1   0.0000172   0.0000171
  
*** Unpaired Electrons
 Yamaguchi Nd:         3.70
 Head-Gordon Nu:       2.40
 Head-Gordon Nu_nl:    2.42
  
**************************************************
 RAS-CI total energy for state   7:   -795.025554276804
  Excitation energy (eV) =  4.781217171562
  State symmetry: B3g   (D2h      )
  <S^2>      :  2.0000
  Dipole Moment:   -0.0000 X    -0.0000 Y    -0.0000 Z
  Trans. Moment:   -0.0000 X    -0.0000 Y    -0.0000 Z
  Strength   :  0.000000
  Natural transition orbitals ( 1 -> 7 ):
   e-/hole pair  1 alpha:  ampl =  0.050798 (  0.3%)   [8 : 9]
   e-/hole pair  2 alpha:  ampl =  0.043632 (  0.2%)   [7 : 10]
   e-/hole pair  1 beta :  ampl =  0.941181 ( 88.6%)   [8 : 9]
   e-/hole pair  2 beta :  ampl =  0.064165 (  0.4%)   [7 : 10]
   Sum of square amplitudes: 0.90

 NATURAL OCCUPATION NUMBERS (higher than 1.0E-05)
            1           2           3           4           5           6
    1   2.0000000   2.0000000   1.9999999   1.9999999   1.9999999   1.9999998
            7           8           9          10          11          12
    1   1.9999994   1.9999994   1.9999990   1.9999990   1.9838787   1.9826146
           13          14          15          16          17          18
    1   1.9630843   1.9596822   1.9547444   1.0256228   1.0161081   0.0384768
           19          20          21          22          23          24
    1   0.0140128   0.0131127   0.0057039   0.0053297   0.0050533   0.0046816
           25          26          27          28          29          30
    1   0.0041153   0.0038332   0.0037593   0.0029195   0.0017874   0.0015940
           31          32          33          34          35          36
    1   0.0015865   0.0015243   0.0013926   0.0011177   0.0004557   0.0004503
           37          38          39          40          41          42
    1   0.0004067   0.0003750   0.0003078   0.0002818   0.0002494   0.0002299
           43          44          45          46          47          48
    1   0.0002242   0.0001829   0.0001821   0.0001767   0.0001616   0.0001379
           49          50          51          52          53          54
    1   0.0000989   0.0000802   0.0000484   0.0000474   0.0000353   0.0000235
           55          56          57          58
    1   0.0000198   0.0000196   0.0000157   0.0000124

  Amplitudes : 
  
 | HOLE  | ALPHA    | BETA     | PART  |    AMPLITUDE 
--------------------------------------------------
 |       | 11111110 | 11110010 |       |     9.4578616463740E-01
--------------------------------------------------
*** Contributions RASCI wfn    Active:  91.51
                                 Hole:   0.00
                                 Part:   8.49

      Mulliken population analysis 
 ---------------------------------------------------
   Atom    Charge (a.u.)   Spin (a.u.)  
 ---------------------------------------------------
   1  S   -0.000000        1.000000 
   2  S   -0.000000        1.000000 
 ---------------------------------------------------
   Sum:   -0.000000        2.000000 
 ---------------------------------------------------
 
  
 NATURAL OCCUPATION NUMBERS (higher than 1.0E-05)
            1           2           3           4           5           6
    1   2.0000000   2.0000000   1.9999999   1.9999999   1.9999999   1.9999998
            7           8           9          10          11          12
    1   1.9999994   1.9999994   1.9999990   1.9999990   1.9838787   1.9826146
           13          14          15          16          17          18
    1   1.9630843   1.9596822   1.9547444   1.0256228   1.0161081   0.0384768
           19          20          21          22          23          24
    1   0.0140128   0.0131127   0.0057039   0.0053297   0.0050533   0.0046816
           25          26          27          28          29          30
    1   0.0041153   0.0038332   0.0037593   0.0029195   0.0017874   0.0015940
           31          32          33          34          35          36
    1   0.0015865   0.0015243   0.0013926   0.0011177   0.0004557   0.0004503
           37          38          39          40          41          42
    1   0.0004067   0.0003750   0.0003078   0.0002818   0.0002494   0.0002299
           43          44          45          46          47          48
    1   0.0002242   0.0001829   0.0001821   0.0001767   0.0001616   0.0001379
           49          50          51          52          53          54
    1   0.0000989   0.0000802   0.0000484   0.0000474   0.0000353   0.0000235
           55          56          57          58
    1   0.0000198   0.0000196   0.0000157   0.0000124
  
*** Unpaired Electrons
 Yamaguchi Nd:         2.53
 Head-Gordon Nu:       2.23
 Head-Gordon Nu_nl:    2.03
  
**************************************************
 RAS-CI total energy for state   8:   -794.915502725930
  Excitation energy (eV) =  7.775872234143
  State symmetry: B3g   (D2h      )
  <S^2>      :  2.0000
  Dipole Moment:   -0.0000 X     0.0000 Y    -0.0000 Z
  Trans. Moment:   -0.0000 X    -0.0000 Y     0.0000 Z
  Strength   :  0.000000
  Natural transition orbitals ( 1 -> 8 ):
   e-/hole pair  1 alpha:  ampl =  0.453355 ( 20.6%)   [8 : 9]
   e-/hole pair  2 alpha:  ampl =  0.067711 (  0.5%)   [7 : 10]
   e-/hole pair  1 beta :  ampl =  0.021197 (  0.0%)   [8 : 9]
   e-/hole pair  2 beta :  ampl =  0.020256 (  0.0%)   [7 : 10]
   Sum of square amplitudes: 0.21

 NATURAL OCCUPATION NUMBERS (higher than 1.0E-05)
            1           2           3           4           5           6
    1   2.0000000   2.0000000   2.0000000   1.9999999   1.9999999   1.9999998
            7           8           9          10          11          12
    1   1.9999996   1.9999994   1.9999990   1.9999990   1.9850630   1.9719512
           13          14          15          16          17          18
    1   1.9712790   1.6060285   1.3575535   1.3198459   0.9884006   0.7170604
           19          20          21          22          23          24
    1   0.0157036   0.0088905   0.0069803   0.0067857   0.0065119   0.0062852
           25          26          27          28          29          30
    1   0.0060119   0.0058900   0.0038621   0.0033334   0.0018188   0.0015926
           31          32          33          34          35          36
    1   0.0013711   0.0012453   0.0007766   0.0007556   0.0004753   0.0004536
           37          38          39          40          41          42
    1   0.0003952   0.0003884   0.0003541   0.0003243   0.0003209   0.0003123
           43          44          45          46          47          48
    1   0.0002961   0.0002956   0.0002340   0.0001977   0.0001760   0.0001500
           49          50          51          52          53          54
    1   0.0001456   0.0001197   0.0000575   0.0000538   0.0000441   0.0000370
           55          56          57          58          59          60
    1   0.0000309   0.0000296   0.0000197   0.0000189   0.0000180   0.0000118
           61          62
    1   0.0000110   0.0000102

  Amplitudes : 
  
 | HOLE  | ALPHA    | BETA     | PART  |    AMPLITUDE 
--------------------------------------------------
 |       | 11111101 | 11100110 |       |     1.0981325077960E-01
 |       | 11111101 | 11011100 |       |     5.4693184714491E-01
 |       | 11110111 | 11101100 |       |     5.6288971224544E-01
 |       | 11110111 | 11010110 |       |    -1.6475016677281E-01
 |       | 11101111 | 11110100 |       |     4.5402037188216E-01
 |       | 11110110 | 11101100 |  22   |    -1.1369559078559E-01
 |       | 11111100 | 11011100 |  22   |    -1.1250380018203E-01
--------------------------------------------------
*** Contributions RASCI wfn    Active:  87.33
                                 Hole:   0.00
                                 Part:  12.67

      Mulliken population analysis 
 ---------------------------------------------------
   Atom    Charge (a.u.)   Spin (a.u.)  
 ---------------------------------------------------
   1  S   -0.000000        1.000000 
   2  S    0.000000        1.000000 
 ---------------------------------------------------
   Sum:   -0.000000        2.000000 
 ---------------------------------------------------
 
  
 NATURAL OCCUPATION NUMBERS (higher than 1.0E-05)
            1           2           3           4           5           6
    1   2.0000000   2.0000000   2.0000000   1.9999999   1.9999999   1.9999998
            7           8           9          10          11          12
    1   1.9999996   1.9999994   1.9999990   1.9999990   1.9850630   1.9719512
           13          14          15          16          17          18
    1   1.9712790   1.6060285   1.3575535   1.3198459   0.9884006   0.7170604
           19          20          21          22          23          24
    1   0.0157036   0.0088905   0.0069803   0.0067857   0.0065119   0.0062852
           25          26          27          28          29          30
    1   0.0060119   0.0058900   0.0038621   0.0033334   0.0018188   0.0015926
           31          32          33          34          35          36
    1   0.0013711   0.0012453   0.0007766   0.0007556   0.0004753   0.0004536
           37          38          39          40          41          42
    1   0.0003952   0.0003884   0.0003541   0.0003243   0.0003209   0.0003123
           43          44          45          46          47          48
    1   0.0002961   0.0002956   0.0002340   0.0001977   0.0001760   0.0001500
           49          50          51          52          53          54
    1   0.0001456   0.0001197   0.0000575   0.0000538   0.0000441   0.0000370
           55          56          57          58          59          60
    1   0.0000309   0.0000296   0.0000197   0.0000189   0.0000180   0.0000118
           61          62
    1   0.0000110   0.0000102
  
*** Unpaired Electrons
 Yamaguchi Nd:         4.63
 Head-Gordon Nu:       3.58
 Head-Gordon Nu_nl:    3.82
  
**************************************************
 RAS-CI total energy for state   9:   -794.914669806229
  Excitation energy (eV) =  7.798537132355
  State symmetry: B2g   (D2h      )
  <S^2>      :  2.0000
  Dipole Moment:   -0.0000 X    -0.0000 Y    -0.0000 Z
  Trans. Moment:   -0.0000 X     0.0000 Y    -0.0000 Z
  Strength   :  0.000000
  Natural transition orbitals ( 1 -> 9 ):
   e-/hole pair  1 alpha:  ampl =  0.457321 ( 20.9%)   [8 : 9]
   e-/hole pair  2 alpha:  ampl =  0.061171 (  0.4%)   [7 : 10]
   e-/hole pair  1 beta :  ampl =  0.022567 (  0.1%)   [8 : 9]
   e-/hole pair  2 beta :  ampl =  0.019637 (  0.0%)   [7 : 10]
   Sum of square amplitudes: 0.21

 NATURAL OCCUPATION NUMBERS (higher than 1.0E-05)
            1           2           3           4           5           6
    1   2.0000000   2.0000000   2.0000000   1.9999999   1.9999999   1.9999998
            7           8           9          10          11          12
    1   1.9999996   1.9999995   1.9999989   1.9999987   1.9851013   1.9719748
           13          14          15          16          17          18
    1   1.9714426   1.6452316   1.3183996   1.2844675   0.9894783   0.7520618
           19          20          21          22          23          24
    1   0.0147614   0.0084594   0.0072871   0.0070247   0.0062711   0.0062606
           25          26          27          28          29          30
    1   0.0061385   0.0059675   0.0038962   0.0032181   0.0017819   0.0015697
           31          32          33          34          35          36
    1   0.0013503   0.0012004   0.0008288   0.0007638   0.0004805   0.0004705
           37          38          39          40          41          42
    1   0.0004233   0.0003973   0.0003781   0.0003288   0.0003264   0.0003187
           43          44          45          46          47          48
    1   0.0002798   0.0002751   0.0002295   0.0001965   0.0001852   0.0001513
           49          50          51          52          53          54
    1   0.0001406   0.0001185   0.0000597   0.0000526   0.0000404   0.0000356
           55          56          57          58          59          60
    1   0.0000308   0.0000299   0.0000208   0.0000196   0.0000164   0.0000125
           61          62
    1   0.0000105   0.0000104

  Amplitudes : 
  
 | HOLE  | ALPHA    | BETA     | PART  |    AMPLITUDE 
--------------------------------------------------
 |       | 11111101 | 11101100 |       |    -1.5994205613166E-01
 |       | 11111101 | 11010110 |       |     5.8871061734650E-01
 |       | 11110111 | 11100110 |       |     5.1505919278908E-01
 |       | 11110111 | 11011100 |       |     1.3031861336738E-01
 |       | 11011111 | 11110100 |       |    -4.5631465893848E-01
 |       | 11110110 | 11100110 |  22   |    -1.0329520326870E-01
 |       | 11111100 | 11010110 |  22   |    -1.1922174264820E-01
--------------------------------------------------
*** Contributions RASCI wfn    Active:  87.38
                                 Hole:   0.00
                                 Part:  12.61

      Mulliken population analysis 
 ---------------------------------------------------
   Atom    Charge (a.u.)   Spin (a.u.)  
 ---------------------------------------------------
   1  S   -0.000000        1.000000 
   2  S    0.000000        1.000000 
 ---------------------------------------------------
   Sum:   -0.000000        2.000000 
 ---------------------------------------------------
 
  
 NATURAL OCCUPATION NUMBERS (higher than 1.0E-05)
            1           2           3           4           5           6
    1   2.0000000   2.0000000   2.0000000   1.9999999   1.9999999   1.9999998
            7           8           9          10          11          12
    1   1.9999996   1.9999995   1.9999989   1.9999987   1.9851013   1.9719748
           13          14          15          16          17          18
    1   1.9714426   1.6452316   1.3183996   1.2844675   0.9894783   0.7520618
           19          20          21          22          23          24
    1   0.0147614   0.0084594   0.0072871   0.0070247   0.0062711   0.0062606
           25          26          27          28          29          30
    1   0.0061385   0.0059675   0.0038962   0.0032181   0.0017819   0.0015697
           31          32          33          34          35          36
    1   0.0013503   0.0012004   0.0008288   0.0007638   0.0004805   0.0004705
           37          38          39          40          41          42
    1   0.0004233   0.0003973   0.0003781   0.0003288   0.0003264   0.0003187
           43          44          45          46          47          48
    1   0.0002798   0.0002751   0.0002295   0.0001965   0.0001852   0.0001513
           49          50          51          52          53          54
    1   0.0001406   0.0001185   0.0000597   0.0000526   0.0000404   0.0000356
           55          56          57          58          59          60
    1   0.0000308   0.0000299   0.0000208   0.0000196   0.0000164   0.0000125
           61          62
    1   0.0000105   0.0000104
  
*** Unpaired Electrons
 Yamaguchi Nd:         4.64
 Head-Gordon Nu:       3.65
 Head-Gordon Nu_nl:    3.88
  
**************************************************
 RAS-CI total energy for state  10:   -794.898616100757
  Excitation energy (eV) =  8.235380684158
  State symmetry: B2g   (D2h      )
  <S^2>      :  2.0000
  Dipole Moment:   -0.0000 X    -0.0000 Y    -0.0000 Z
  Trans. Moment:    0.0000 X    -0.0000 Y    -0.0000 Z
  Strength   :  0.000000
  Natural transition orbitals ( 1 -> 10 ):
   e-/hole pair  1 alpha:  ampl =  0.261101 (  6.8%)   [8 : 9]
   e-/hole pair  2 alpha:  ampl =  0.088419 (  0.8%)   [7 : 10]
   e-/hole pair  1 beta :  ampl =  0.819711 ( 67.2%)   [8 : 9]
   e-/hole pair  2 beta :  ampl =  0.042295 (  0.2%)   [7 : 10]
   Sum of square amplitudes: 0.76

 NATURAL OCCUPATION NUMBERS (higher than 1.0E-05)
            1           2           3           4           5           6
    1   2.0000000   2.0000000   2.0000000   2.0000000   1.9999999   1.9999998
            7           8           9          10          11          12
    1   1.9999998   1.9999998   1.9999991   1.9999988   1.9834495   1.9715452
           13          14          15          16          17          18
    1   1.9660535   1.9655797   1.0205626   1.0191968   0.9943372   0.9865113
           19          20          21          22          23          24
    1   0.0217441   0.0114158   0.0087108   0.0074736   0.0072521   0.0068432
           25          26          27          28          29          30
    1   0.0067589   0.0057138   0.0025436   0.0021629   0.0020092   0.0014781
           31          32          33          34          35          36
    1   0.0013535   0.0013075   0.0008971   0.0006903   0.0006179   0.0004908
           37          38          39          40          41          42
    1   0.0004567   0.0003161   0.0002923   0.0002197   0.0002185   0.0002101
           43          44          45          46          47          48
    1   0.0002100   0.0001910   0.0001853   0.0001734   0.0001699   0.0001336
           49          50          51          52          53          54
    1   0.0001132   0.0000853   0.0000697   0.0000562   0.0000365   0.0000305
           55          56          57          58          59
    1   0.0000242   0.0000228   0.0000187   0.0000138   0.0000123

  Amplitudes : 
  
 | HOLE  | ALPHA    | BETA     | PART  |    AMPLITUDE 
--------------------------------------------------
 |       | 11111110 | 11010101 |       |    -8.0785666818257E-01
 |       | 11111101 | 11010110 |       |    -2.6812383850612E-01
 |       | 11110111 | 11011100 |       |     2.7919931225460E-01
 |       | 11011111 | 11110100 |       |    -2.6053351743430E-01
 |       | 11111110 | 11010100 |  22   |     1.2067791979031E-01
--------------------------------------------------
*** Contributions RASCI wfn    Active:  88.00
                                 Hole:   0.00
                                 Part:  12.00

      Mulliken population analysis 
 ---------------------------------------------------
   Atom    Charge (a.u.)   Spin (a.u.)  
 ---------------------------------------------------
   1  S    0.000000        1.000000 
   2  S   -0.000000        1.000000 
 ---------------------------------------------------
   Sum:   -0.000000        2.000000 
 ---------------------------------------------------
 
  
 NATURAL OCCUPATION NUMBERS (higher than 1.0E-05)
            1           2           3           4           5           6
    1   2.0000000   2.0000000   2.0000000   2.0000000   1.9999999   1.9999998
            7           8           9          10          11          12
    1   1.9999998   1.9999998   1.9999991   1.9999988   1.9834495   1.9715452
           13          14          15          16          17          18
    1   1.9660535   1.9655797   1.0205626   1.0191968   0.9943372   0.9865113
           19          20          21          22          23          24
    1   0.0217441   0.0114158   0.0087108   0.0074736   0.0072521   0.0068432
           25          26          27          28          29          30
    1   0.0067589   0.0057138   0.0025436   0.0021629   0.0020092   0.0014781
           31          32          33          34          35          36
    1   0.0013535   0.0013075   0.0008971   0.0006903   0.0006179   0.0004908
           37          38          39          40          41          42
    1   0.0004567   0.0003161   0.0002923   0.0002197   0.0002185   0.0002101
           43          44          45          46          47          48
    1   0.0002100   0.0001910   0.0001853   0.0001734   0.0001699   0.0001336
           49          50          51          52          53          54
    1   0.0001132   0.0000853   0.0000697   0.0000562   0.0000365   0.0000305
           55          56          57          58          59
    1   0.0000242   0.0000228   0.0000187   0.0000138   0.0000123
  
*** Unpaired Electrons
 Yamaguchi Nd:         4.41
 Head-Gordon Nu:       4.15
 Head-Gordon Nu_nl:    4.01
  
--------------------------------------------------
 Interstate Transition Properties
--------------------------------------------------
State A: Root  1
State B: Root  2
  
Angular momentum components
< B | Lx | A > =     0.000000000i
< B | Ly | A > =     0.000000000i
< B | Lz | A > =    -0.000000000i
  
Norm of one-particle transition density matrix
||gamma^AB||_total       =  0.962153
||gamma^AB||_symmetrized =  0.753217
||gamma^AB||_anti-symm   =  0.598668
  
Spin-orbit couplings
 Using HF (reference) density for the 2-elec mean-field SOC contribution
KET: S',Sz' (Root   1) =  1.000 1.000
BRA: S ,Sz  (Root   2) =  1.000 1.000
Clebsh-Gordan coefficient: < 1.000, 1.000; 1.000, 0.000| 1.000, 1.000> =  0.707
 Computing 1e-SO integrals
 1e Reduced matrix elements (cm-1)
<S|| Hso(L-) ||S'> =    -0.0000000000     0.0000000000
<S|| Hso(L0) ||S'> =     0.0000000000     0.0000000000
<S|| Hso(L+) ||S'> =    -0.0000000000    -0.0000000000
 1-elec SOC matrix (cm-1): < B(S,Sz) | Hso(1e) | A(S',Sz') >
                     |Sz'=-1.00>              |Sz'= 0.00>              |Sz'= 1.00>
 <Sz=-1.00|    0.000000   -0.000000i    -0.000000   -0.000000i    -0.000000   -0.000000i
 <Sz= 0.00|    0.000000   -0.000000i     0.000000    0.000000i    -0.000000   -0.000000i
 <Sz= 1.00|   -0.000000    0.000000i     0.000000   -0.000000i     0.000000    0.000000i
1-elec SOCC =     0.000000000 cm-1
 Computing 2e-SOMF integrals
 Averagin spin alpha/beta reference densities
 2e-SOMF Reduced matrix elements (cm-1)
<S|| Hso(L-) ||S'> =     0.0000000000    -0.0000000000
<S|| Hso(L0) ||S'> =     0.0000000000    -0.0000000000
<S|| Hso(L+) ||S'> =     0.0000000000     0.0000000000
 2-elec mean-field SOC matrix (cm-1): < B(S,Sz) | Hso(2e-mf) | A(S',Sz') >
                     |Sz'=-1.00>              |Sz'= 0.00>              |Sz'= 1.00>
 <Sz=-1.00|   -0.000000    0.000000i     0.000000    0.000000i     0.000000    0.000000i
 <Sz= 0.00|   -0.000000    0.000000i    -0.000000   -0.000000i     0.000000    0.000000i
 <Sz= 1.00|    0.000000   -0.000000i    -0.000000    0.000000i    -0.000000   -0.000000i
 Total mean-field SOC matrix (cm-1): < B(S,Sz) | Hsomf | A(S',Sz') >
                     |Sz'=-1.00>              |Sz'= 0.00>              |Sz'= 1.00>
 <Sz=-1.00|    0.000000   -0.000000i    -0.000000   -0.000000i    -0.000000   -0.000000i
 <Sz= 0.00|    0.000000   -0.000000i     0.000000    0.000000i    -0.000000   -0.000000i
 <Sz= 1.00|   -0.000000    0.000000i     0.000000   -0.000000i     0.000000    0.000000i
Mean-Field SOCC =     0.000000000 cm-1
   
**************************************************
State A: Root  1
State B: Root  3
  
Angular momentum components
< B | Lx | A > =     0.000000000i
< B | Ly | A > =     0.000000000i
< B | Lz | A > =     0.000000000i
  
Norm of one-particle transition density matrix
||gamma^AB||_total       =  0.962134
||gamma^AB||_symmetrized =  0.753216
||gamma^AB||_anti-symm   =  0.598639
  
Spin-orbit couplings
 Using HF (reference) density for the 2-elec mean-field SOC contribution
KET: S',Sz' (Root   1) =  1.000 1.000
BRA: S ,Sz  (Root   3) =  1.000 1.000
Clebsh-Gordan coefficient: < 1.000, 1.000; 1.000, 0.000| 1.000, 1.000> =  0.707
 Reading 1e-SO integrals
 1e Reduced matrix elements (cm-1)
<S|| Hso(L-) ||S'> =    -0.0000000055     0.0000000008
<S|| Hso(L0) ||S'> =     0.0000000000    -0.0000000000
<S|| Hso(L+) ||S'> =    -0.0000000055    -0.0000000008
 1-elec SOC matrix (cm-1): < B(S,Sz) | Hso(1e) | A(S',Sz') >
                     |Sz'=-1.00>              |Sz'= 0.00>              |Sz'= 1.00>
 <Sz=-1.00|    0.000000    0.000000i    -0.000000   -0.000000i    -0.000000   -0.000000i
 <Sz= 0.00|    0.000000   -0.000000i     0.000000    0.000000i    -0.000000   -0.000000i
 <Sz= 1.00|   -0.000000    0.000000i     0.000000   -0.000000i     0.000000   -0.000000i
1-elec SOCC =     0.000000008 cm-1
 Reading 2e-SOMF integrals
 2e-SOMF Reduced matrix elements (cm-1)
<S|| Hso(L-) ||S'> =     0.0000000013    -0.0000000000
<S|| Hso(L0) ||S'> =     0.0000000000     0.0000000000
<S|| Hso(L+) ||S'> =     0.0000000013     0.0000000000
 2-elec mean-field SOC matrix (cm-1): < B(S,Sz) | Hso(2e-mf) | A(S',Sz') >
                     |Sz'=-1.00>              |Sz'= 0.00>              |Sz'= 1.00>
 <Sz=-1.00|   -0.000000   -0.000000i     0.000000    0.000000i     0.000000    0.000000i
 <Sz= 0.00|   -0.000000    0.000000i    -0.000000   -0.000000i     0.000000    0.000000i
 <Sz= 1.00|    0.000000   -0.000000i    -0.000000    0.000000i    -0.000000    0.000000i
 Total mean-field SOC matrix (cm-1): < B(S,Sz) | Hsomf | A(S',Sz') >
                     |Sz'=-1.00>              |Sz'= 0.00>              |Sz'= 1.00>
 <Sz=-1.00|    0.000000    0.000000i    -0.000000   -0.000000i    -0.000000   -0.000000i
 <Sz= 0.00|    0.000000   -0.000000i     0.000000    0.000000i    -0.000000   -0.000000i
 <Sz= 1.00|   -0.000000    0.000000i     0.000000   -0.000000i     0.000000   -0.000000i
Mean-Field SOCC =     0.000000006 cm-1
   
**************************************************
State A: Root  1
State B: Root  4
  
Angular momentum components
< B | Lx | A > =    -0.000000000i
< B | Ly | A > =    -0.000000000i
< B | Lz | A > =    -0.000000000i
  
Norm of one-particle transition density matrix
||gamma^AB||_total       =  0.956024
||gamma^AB||_symmetrized =  0.598596
||gamma^AB||_anti-symm   =  0.745429
  
Spin-orbit couplings
 Using HF (reference) density for the 2-elec mean-field SOC contribution
KET: S',Sz' (Root   1) =  1.000 1.000
BRA: S ,Sz  (Root   4) =  1.000 1.000
Clebsh-Gordan coefficient: < 1.000, 1.000; 1.000, 0.000| 1.000, 1.000> =  0.707
 Reading 1e-SO integrals
 1e Reduced matrix elements (cm-1)
<S|| Hso(L-) ||S'> =     0.0000000111    -0.0000000022
<S|| Hso(L0) ||S'> =     0.0000000000    -0.0000000000
<S|| Hso(L+) ||S'> =     0.0000000111     0.0000000022
 1-elec SOC matrix (cm-1): < B(S,Sz) | Hso(1e) | A(S',Sz') >
                     |Sz'=-1.00>              |Sz'= 0.00>              |Sz'= 1.00>
 <Sz=-1.00|   -0.000000    0.000000i     0.000000    0.000000i     0.000000    0.000000i
 <Sz= 0.00|   -0.000000    0.000000i    -0.000000   -0.000000i     0.000000    0.000000i
 <Sz= 1.00|    0.000000   -0.000000i    -0.000000    0.000000i    -0.000000   -0.000000i
1-elec SOCC =     0.000000016 cm-1
 Reading 2e-SOMF integrals
 2e-SOMF Reduced matrix elements (cm-1)
<S|| Hso(L-) ||S'> =    -0.0000000027     0.0000000001
<S|| Hso(L0) ||S'> =     0.0000000000     0.0000000000
<S|| Hso(L+) ||S'> =    -0.0000000027    -0.0000000001
 2-elec mean-field SOC matrix (cm-1): < B(S,Sz) | Hso(2e-mf) | A(S',Sz') >
                     |Sz'=-1.00>              |Sz'= 0.00>              |Sz'= 1.00>
 <Sz=-1.00|    0.000000   -0.000000i    -0.000000   -0.000000i    -0.000000   -0.000000i
 <Sz= 0.00|    0.000000   -0.000000i     0.000000    0.000000i    -0.000000   -0.000000i
 <Sz= 1.00|   -0.000000    0.000000i     0.000000   -0.000000i     0.000000    0.000000i
 Total mean-field SOC matrix (cm-1): < B(S,Sz) | Hsomf | A(S',Sz') >
                     |Sz'=-1.00>              |Sz'= 0.00>              |Sz'= 1.00>
 <Sz=-1.00|   -0.000000    0.000000i     0.000000    0.000000i     0.000000    0.000000i
 <Sz= 0.00|   -0.000000    0.000000i    -0.000000   -0.000000i     0.000000    0.000000i
[...]
     3    3.018251879425e-01
     4   -1.013277915743e+00
     5    1.036881885796e+00
     6   -4.431155721794e-16
     7    3.560346810605e-16
     8   -5.089844158009e-02
     9   -3.590884759730e-16
    10   -1.606688595663e-16
    11   -5.883734823892e-03
    12    5.479942246782e-16
    13    1.589287409515e-16
    14   -1.701548182491e-02
    15    3.850343471852e-15
    16   -2.288234173306e-15
    17    5.224604237526e-01
    18   -4.565280412517e-15
    19    3.579766992492e-15
    20   -6.468758963506e-01
    21   -5.810070260034e-02
    22   -8.122236189418e-16
    23   -4.578096659646e-16
    24   -2.217437747576e-02
    25   -3.067996657838e-16
    26   -3.051911112336e-01
    27   -2.211632187822e-15
    28    3.961071629029e-16
    29   -7.899477479263e-02
    30   -1.434708217988e-15
    31   -2.507708465825e-02
    32    7.408369190957e-17
    33    2.601710907056e-16
    34   -1.742793147121e-03
    35    2.085960830597e-16
    36    6.681526934227e-17
    37   -1.728905006782e-17
    38   -4.512538716579e-02
    39   -2.611740024245e-02
    40    3.018251879423e-01
    41   -1.013277915742e+00
    42    1.036881885795e+00
    43    1.134322295239e-16
    44   -5.254145093731e-16
    45    5.089844158004e-02
    46   -3.177616004225e-16
    47   -2.073340324056e-16
    48    5.883734823911e-03
    49    6.988151055776e-16
    50   -5.046265346044e-18
    51    1.701548182475e-02
    52   -1.257347172503e-15
    53    5.250453004891e-15
    54   -5.224604237517e-01
    55    2.893342348346e-15
    56   -6.896207081378e-15
    57    6.468758963508e-01
    58   -5.810070260030e-02
    59    9.767679009813e-16
    60    3.228115024876e-16
    61   -2.217437747576e-02
    62   -1.555521427294e-16
    63   -3.051911112340e-01
    64    2.292800747427e-15
    65   -5.548564621007e-16
    66   -7.899477479267e-02
    67    2.406694402587e-16
    68    2.507708465836e-02
    69    5.729177997116e-17
    70    4.147474710851e-16
    71    1.742793147121e-03
    72    2.954329201567e-16
    73   -9.382711529793e-17
    74    1.611629776318e-16
Sym=X
Ene= 0.576247
Spin=Alpha
Occup=0
     1   -9.779995578075e-04
     2   -6.060718028892e-04
     3    6.955732701653e-03
     4   -3.152442650041e-02
     5    5.057209572709e-02
     6   -2.449317581465e-16
     7   -5.228085807111e-17
     8    2.310652575066e-03
     9   -3.504145833578e-16
    10   -9.915477324006e-17
    11    1.253731812278e-03
    12    6.621305034920e-16
    13    6.399517297431e-16
    14   -3.797469266451e-03
    15    1.928750886308e-15
    16   -9.067597568172e-16
    17   -8.407731314229e-03
    18   -4.788773805327e-15
    19   -5.336950135624e-16
    20    2.206157547533e-02
    21   -1.799139639262e-03
    22    5.236098596597e-16
    23   -4.486450956275e-16
    24    1.560552495032e-01
    25   -1.868210958202e-15
    26   -3.365101925828e-03
    27   -1.212378219344e-15
    28   -4.391516784978e-15
    29    6.621778051836e-01
    30   -7.578528293572e-15
    31    2.247901475257e-03
    32   -9.151021443058e-16
    33   -9.403094737287e-16
    34   -2.001354988886e-02
    35    3.318443895503e-16
    36   -2.121917611620e-17
    37   -6.440215004246e-17
    38    9.779995578097e-04
    39    6.060718028912e-04
    40   -6.955732701668e-03
    41    3.152442650046e-02
    42   -5.057209572715e-02
    43   -7.241361886919e-17
    44    5.469219328042e-16
    45    2.310652575063e-03
    46   -4.344637527418e-17
    47    2.636179875897e-16
    48    1.253731812277e-03
    49   -3.124970714104e-16
    50   -5.595281923972e-16
    51   -3.797469266451e-03
    52    1.319755368338e-15
    53   -4.226370999770e-15
    54   -8.407731314197e-03
    55    7.153974470094e-16
    56    8.265558056490e-15
    57    2.206157547529e-02
    58    1.799139639267e-03
    59   -6.188389914285e-16
    60    1.074568889988e-15
    61   -1.560552495032e-01
    62    1.588879785722e-15
    63    3.365101925847e-03
    64   -2.911202417014e-15
    65    1.632283912038e-15
    66   -6.621778051836e-01
    67    7.220470074675e-15
    68    2.247901475256e-03
    69    6.365706664616e-16
    70    8.927721390703e-16
    71   -2.001354988886e-02
    72    3.635756258091e-16
    73   -4.158073577552e-17
    74    2.006845157079e-16
Sym=X
Ene= 0.577214
Spin=Alpha
Occup=0
     1    6.634357765031e-17
     2    1.118525218431e-17
     3   -5.377682132263e-16
     4    2.444435927487e-15
     5   -4.498398382203e-15
     6    3.893126346270e-16
     7   -1.366374091852e-16
     8    1.225601283509e-16
     9    1.962135688015e-16
    10   -6.534155928635e-17
    11   -3.037475559548e-17
    12   -8.029700260409e-16
    13    3.866697971647e-16
    14    3.743604851199e-16
    15   -1.663425637178e-15
    16   -5.611193163961e-16
    17   -2.431383961619e-15
    18    3.876602982033e-15
    19    5.601315941639e-16
    20    4.347610807109e-16
    21   -2.809375234645e-16
    22    5.070405466866e-16
    23    2.433325397917e-16
    24   -1.550130070377e-15
    25   -1.561663213306e-01
    26   -4.135342432655e-16
    27   -7.295600747372e-16
    28    9.433773339552e-16
    29   -7.808294300558e-15
    30   -6.622838169808e-01
    31    1.245710509589e-16
    32   -1.714715297668e-16
    33    1.219078464413e-16
    34    4.862713754306e-16
    35    1.996435970117e-02
    36    2.689319732664e-16
    37   -1.222467599447e-16
    38    9.501885127084e-17
    39    1.105209674428e-16
    40   -5.682755916121e-16
    41    1.078495079932e-15
    42    1.123254019138e-15
    43   -1.689134230730e-16
    44   -2.980917538102e-16
    45   -7.828559350933e-17
    46   -6.393869132575e-19
    47   -2.219007273036e-16
    48    3.190525778492e-18
    49   -1.578747895940e-16
    50    8.506969904985e-16
    51    2.107354594072e-16
    52    1.235249063042e-15
    53    8.921330988285e-16
    54   -1.290793554368e-16
    55   -1.745398327416e-15
    56   -2.477116333731e-15
    57   -2.557162011826e-15
    58   -7.805434128269e-17
    59    1.117907487676e-16
    60   -1.889379215385e-16
    61    1.869875399302e-15
    62    1.561663213306e-01
    63    1.131179225869e-15
    64    1.411670726646e-15
    65   -7.293326014265e-16
    66    7.148679336334e-15
    67    6.622838169808e-01
    68   -1.361944005133e-16
    69   -1.056030980488e-16
    70    1.876625697294e-16
    71   -1.495904686900e-16
    72    1.996435970117e-02
    73   -9.339362077591e-17
    74   -1.047436701031e-16
Sym=X
Ene= 0.776288
Spin=Alpha
Occup=0
     1   -5.980015292888e-02
     2   -3.390155363813e-02
     3    4.141052688416e-01
     4   -1.883716661467e+00
     5    3.347755280460e+00
     6   -2.673571285313e-16
     7    4.233016316777e-16
     8    5.163417766059e-02
     9   -4.763057383336e-17
    10    8.327857644861e-16
    11    5.048802795278e-02
    12    5.982672942045e-16
    13   -9.621836627737e-16
    14   -2.197248878522e-01
    15   -3.431465720972e-16
    16   -4.518204739076e-15
    17    2.251128261990e-01
    18    1.182750731833e-15
    19   -3.300251266571e-15
    20    1.314805708553e+00
    21   -7.318819814421e-02
    22    1.695165393176e-15
    23   -3.304753112497e-15
    24   -1.045537385721e-02
    25   -6.954003367941e-16
    26    9.837104765590e-02
    27    3.970152762848e-15
    28   -1.605219885951e-14
    29   -7.929983811397e-03
    30    7.650825213215e-16
    31    1.381470704351e-01
    32   -1.532532799540e-15
    33   -1.022939727307e-15
    34   -9.930817620341e-04
    35   -4.636989498285e-16
    36    1.068366170987e-16
    37    9.333495694629e-17
    38    5.980015292873e-02
    39    3.390155363807e-02
    40   -4.141052688406e-01
    41    1.883716661463e+00
    42   -3.347755280459e+00
    43    5.062950167776e-16
    44    3.134369203442e-16
    45    5.163417766047e-02
    46    7.153575712434e-16
    47   -4.115450464805e-17
    48    5.048802795282e-02
    49   -3.525705944604e-15
    50   -3.992570096056e-16
    51   -2.197248878525e-01
    52    4.561790743323e-15
    53   -2.184290970385e-15
    54    2.251128262016e-01
    55   -4.839476862736e-15
    56    1.292335010690e-14
    57    1.314805708550e+00
    58    7.318819814493e-02
    59    4.436681303164e-16
    60   -1.745512502550e-15
    61    1.045537385718e-02
    62    1.024312334224e-15
    63   -9.837104765382e-02
    64    1.192385852256e-15
    65   -1.103287551620e-14
    66    7.929983811406e-03
    67   -1.040611472723e-15
    68    1.381470704352e-01
    69    1.557256822918e-15
    70    3.041647347362e-16
    71   -9.930817620336e-04
    72   -1.687920984962e-16
    73   -1.012441417330e-16
    74   -2.407206153113e-18
Sym=X
Ene= 0.796777
Spin=Alpha
Occup=0
     1    4.330319763421e-02
     2    2.305039620405e-02
     3   -3.008161070155e-01
     4    1.167709503982e+00
     5   -6.048648572921e-01
     6   -5.550255240232e-16
     7    2.817258174611e-16
     8   -2.622440720163e-02
     9   -3.406337636530e-16
    10    1.334893870585e-16
    11    1.234073418869e-02
    12    1.170671104841e-15
    13   -6.029821678798e-16
    14   -8.557713805814e-02
    15    8.743523330341e-16
    16   -9.298554762595e-17
    17    6.508767218856e-01
    18    1.225039504030e-14
    19   -7.170757887659e-15
    20   -6.868447701980e-01
    21   -1.986129170680e-01
    22    4.206462452413e-15
    23   -2.821219635968e-15
    24    7.439578136209e-03
    25    2.113205131047e-16
    26   -5.112755120382e-01
    27    2.059797835863e-14
    28   -1.123593223221e-14
    29   -4.952063844388e-03
    30    7.538882940569e-16
    31    3.141336332480e-02
    32   -1.378244845110e-15
    33    3.700622715632e-16
    34   -7.957608637344e-04
    35    1.690925195901e-16
    36    4.953013742046e-16
    37   -1.371017383805e-16
    38    4.330319763443e-02
    39    2.305039620418e-02
    40   -3.008161070170e-01
    41    1.167709503988e+00
    42   -6.048648573025e-01
    43    7.404027996524e-16
    44   -1.008956348491e-16
    45    2.622440720188e-02
    46    9.550130655771e-17
    47   -6.704332953290e-17
    48   -1.234073418851e-02
    49   -1.019148890974e-15
    50    4.855423948604e-17
    51    8.557713805742e-02
    52   -1.318459110866e-15
    53    2.834775382313e-16
    54   -6.508767218857e-01
    55   -1.155040480134e-14
    56    7.264732962833e-15
    57    6.868447702023e-01
    58   -1.986129170678e-01
    59    4.221589060962e-15
    60   -3.696559892503e-15
    61    7.439578136248e-03
    62    1.382538597201e-15
    63   -5.112755120378e-01
    64    2.016851743800e-14
    65   -1.135485246805e-14
    66   -4.952063844360e-03
    67   -8.686828644519e-16
    68   -3.141336332437e-02
    69    8.130754290175e-16
    70   -8.017157057725e-16
    71    7.957608637290e-04
    72    2.658137591292e-16
    73   -1.322705660536e-16
    74    3.630995813795e-16
Sym=X
Ene= 0.802141
Spin=Alpha
Occup=0
     1   -7.393420111411e-16
     2   -3.617542567233e-16
     3    4.941350205012e-15
     4   -1.778286413433e-14
     5   -2.811970873659e-15
     6   -2.323185382587e-02
     7   -6.158908420523e-08
     8    4.398918491943e-16
     9   -1.509161657306e-02
    10   -2.935490162055e-08
    11   -6.222954487721e-16
    12    5.316175349963e-02
    13    7.390037280393e-08
    14    3.460891371911e-15
    15    2.161655757558e-02
    16    2.127706049801e-07
    17   -1.797502302022e-14
    18    5.839792973960e-01
    19    4.874033352426e-08
    20    1.022762038553e-14
    21    5.120715940732e-15
    22    1.889221646908e-01
    23   -1.248997154067e-08
    24    9.990028422862e-16
    25    2.400624731507e-16
    26    1.037392853167e-14
    27    9.174631990503e-01
    28   -3.626707313117e-08
    29    4.608787349850e-16
    30    6.080901052240e-16
    31   -1.322279050688e-15
    32   -3.637026957675e-02
    33    8.359229792742e-10
    34   -1.925004353413e-16
    35    3.208853726711e-16
    36    6.698385779119e-04
    37    8.682068743686e-10
    38   -1.200620725022e-15
    39   -6.421843353731e-16
    40    8.566462414733e-15
    41   -3.487051743945e-14
    42    2.980729913835e-14
    43    2.323185382587e-02
    44    6.158908431541e-08
    45   -6.833450431952e-16
    46    1.509161657306e-02
    47    2.935490157945e-08
    48    9.924152626446e-17
    49   -5.316175349963e-02
    50   -7.390037288065e-08
    51   -1.102099690274e-15
    52   -2.161655757558e-02
    53   -2.127706056643e-07
    54    1.273819593577e-14
    55   -5.839792973960e-01
    56   -4.874033335933e-08
    57   -2.210818576145e-14
    58    4.067021598890e-15
    59    1.889221646908e-01
    60   -1.248997189785e-08
    61   -6.824212861581e-16
    62    3.083914483981e-16
    63    1.266948418912e-14
    64    9.174631990503e-01
    65   -3.626707474667e-08
    66   -1.429765597808e-15
    67   -2.210139234232e-16
    68   -3.866427234580e-17
    69    3.637026957675e-02
    70   -8.359235156611e-10
    71   -2.724518741100e-16
    72    1.488257662590e-16
    73   -6.698385779111e-04
    74   -8.682057991301e-10
Sym=X
Ene= 0.823572
Spin=Alpha
Occup=0
     1   -2.332687826803e-16
     2   -1.438941034797e-16
     3    1.593562080355e-15
     4   -1.067159993402e-14
     5    4.083198025628e-14
     6   -2.926360591562e-08
     7   -2.166794229390e-02
     8    1.719257457377e-16
     9   -1.523332381993e-08
    10   -1.448110327000e-02
    11    8.447400150881e-16
    12    3.890905652683e-08
    13    5.234684305860e-02
    14   -4.171143218837e-15
    15    8.166007472813e-08
    16    1.428869520803e-02
    17    1.361049286912e-14
    18    9.088019178824e-08
    19    5.837918205815e-01
    20    9.064382736821e-15
    21   -3.390759742833e-15
    22   -2.814329616025e-10
    23    1.895816718489e-01
    24   -1.067693174836e-15
    25    7.624483478827e-16
    26   -4.932386908178e-15
    27    1.634223310677e-08
    28    9.172564431258e-01
    29    3.596493209358e-16
    30    6.228202303708e-20
    31    2.600075203255e-15
    32   -8.266308102538e-10
    33   -3.624895705445e-02
    34   -2.704667837035e-16
    35    4.176891199862e-16
    36    7.954875531177e-10
    37    6.177819133419e-04
    38    1.439161115849e-15
    39    8.478038907413e-16
    40   -1.007909136423e-14
    41    4.310230578856e-14
    42   -5.746274810869e-14
    43    2.926360522483e-08
    44    2.166794229390e-02
    45    1.113442143587e-15
    46    1.523332335725e-08
    47    1.448110327000e-02
    48    7.096964913418e-16
    49   -3.890905419825e-08
    50   -5.234684305859e-02
    51   -2.645288669735e-15
    52   -8.166007445417e-08
    53   -1.428869520803e-02
    54   -4.480545617375e-15
    55   -9.088019372980e-08
    56   -5.837918205815e-01
    57    2.869198066331e-14
    58   -1.147668282358e-15
    59   -2.814320626581e-10
    60    1.895816718489e-01
    61   -6.398468652722e-16
    62    6.320409946284e-18
    63   -9.546545547447e-15
    64    1.634223211379e-08
    65    9.172564431258e-01
    66    3.829484641313e-16
    67    2.876963079806e-16
    68    1.320727028205e-15
    69    8.266296870484e-10
    70    3.624895705445e-02
    71    8.987767579225e-16
    72    6.192799766303e-16
    73   -7.954875429848e-10
    74   -6.177819133434e-04
Sym=X
Ene= 1.093155
Spin=Alpha
Occup=0
     1    1.690813922654e-02
     2    1.832259331587e-04
     3   -1.323791972073e-01
     4    1.592702196719e+00
     5   -5.693806305677e+00
     6   -6.164258634314e-16
     7   -2.465969392154e-16
     8    1.427207134424e-01
     9    3.518355052096e-16
    10   -1.970394646647e-16
    11    1.987050009485e-02
    12    8.152499268769e-16
    13    1.477897675122e-15
    14    7.987222885286e-02
    15   -4.478146738383e-16
    16   -2.471577706058e-15
    17   -2.044915803472e+00
    18    6.395786652223e-16
    19    4.795456693555e-16
    20   -2.123350131140e+00
    21   -4.577459129751e-02
    22   -3.565035741367e-15
    23    1.341071048644e-15
    24    4.036403903090e-03
    25    9.685726941659e-16
    26   -1.867359876461e+00
    27    2.699148112569e-15
    28   -1.761195994540e-15
    29   -6.683898737179e-03
    30    2.355881038559e-17
    31   -1.373549117827e-01
    32   -1.023210183652e-16
    33   -1.614799810004e-15
    34   -3.146324337366e-03
    35    1.535174439773e-15
    36   -7.008978082389e-17
    37   -3.053344076713e-16
    38   -1.690813922656e-02
    39   -1.832259331909e-04
    40    1.323791972074e-01
    41   -1.592702196720e+00
    42    5.693806305678e+00
    43   -8.969436714553e-16
    44   -3.193066700644e-16
    45    1.427207134424e-01
    46   -1.331307858622e-15
    47   -8.443769012548e-16
    48    1.987050009488e-02
    49    6.274665010400e-15
    50    3.015988982544e-15
    51    7.987222885274e-02
    52   -6.248664535891e-15
    53   -1.815018637129e-15
    54   -2.044915803472e+00
    55    1.521271832612e-15
    56    9.190862744198e-16
    57   -2.123350131140e+00
    58    4.577459129764e-02
    59    1.085759553273e-15
    60    1.810271807752e-15
    61   -4.036403903103e-03
    62   -3.789382127589e-15
    63    1.867359876461e+00
    64    5.531076615388e-16
    65   -2.633892178925e-15
    66    6.683898737185e-03
    67    2.064441214337e-15
    68   -1.373549117826e-01
    69   -1.065940879457e-15
    70    9.774135492414e-16
    71   -3.146324337376e-03
    72    1.314068585367e-15
    73   -3.197030666368e-16
    74    2.792158957934e-16
Sym=X
Ene= 1.569420
Spin=Alpha
Occup=0
     1   -6.514910872595e-04
     2   -3.702523592316e-03
     3    8.034565579046e-04
     4    8.507072649603e-02
     5    1.280884063285e-02
     6   -4.477412781267e-16
     7   -4.033484630571e-16
     8   -1.662124321084e-02
     9    2.208509714909e-16
    10   -8.806617781232e-16
    11   -5.849904187097e-02
    12    7.175682967528e-16
    13    2.702863585551e-15
    14    2.639304064495e-01
    15   -1.042658037591e-15
    16   -1.305871570144e-15
    17   -2.136457422734e-01
    18   -7.810195176298e-17
    19   -4.110733183656e-15
    20    1.831538462014e-02
    21    5.562227846075e-01
    22    3.191904551002e-15
    23   -4.340291672693e-15
    24   -2.454714480340e-02
    25    9.589183515845e-16
    26   -5.492818939891e-01
    27   -2.760938083441e-15
    28    4.070937230733e-16
    29    2.152771519902e-02
    30   -1.203988966240e-15
    31    4.129536754018e-01
    32    4.551799301543e-15
    33   -8.093432288550e-15
    34   -3.924616190674e-02
    35    3.141746979720e-15
    36   -6.014383087238e-16
    37   -4.280870105650e-16
    38   -6.514910872562e-04
    39   -3.702523592312e-03
    40    8.034565578805e-04
    41    8.507072649611e-02
    42    1.280884063282e-02
    43   -4.030173704658e-16
    44   -5.436952599633e-16
    45    1.662124321083e-02
    46   -5.682657501428e-16
    47    3.717779228333e-16
    48    5.849904187095e-02
    49    3.064957171441e-15
    50   -5.585729761443e-16
    51   -2.639304064494e-01
    52   -3.934989345155e-15
    53    2.911295097434e-15
    54    2.136457422733e-01
    55    2.452014560673e-15
    56    9.145878881394e-16
    57   -1.831538462009e-02
    58    5.562227846074e-01
    59   -5.236232857230e-16
    60    1.588745978115e-14
    61   -2.454714480340e-02
    62    3.357222500551e-15
    63   -5.492818939890e-01
    64    8.095647828282e-16
    65   -1.618032727228e-14
    66    2.152771519901e-02
    67   -2.656416693933e-15
    68   -4.129536754018e-01
    69    1.942553512843e-15
    70   -1.002190792000e-14
    71    3.924616190674e-02
    72   -4.725806822799e-15
    73   -9.345584869196e-16
    74   -4.317065396433e-15
[5D7F]

======= END OF MOLDEN-FORMATTED INPUT FILE =======


        *************************************************************
        *                                                           *
        *  Thank you very much for using Q-Chem.  Have a nice day.  *
        *                                                           *
        *************************************************************


