                  Welcome to Q-Chem
     A Quantum Leap Into The Future Of Chemistry


 Q-Chem 6.0 (devel), Q-Chem, Inc., Pleasanton, CA (2022)

 E. Epifanovsky,  A. T. B. Gilbert,  Xintian Feng,  Joonho Lee,  Yuezhi Mao,  
 N. Mardirossian,  P. Pokhilko,  A. White,  M. Wormit,  M. P. Coons,  
 A. L. Dempwolff,  Zhengting Gan,  D. Hait,  P. R. Horn,  L. D. Jacobson,  
 I. Kaliman,  J. Kussmann,  A. W. Lange,  Ka Un Lao,  D. S. Levine,  Jie Liu,  
 S. C. McKenzie,  A. F. Morrison,  K. Nanda,  F. Plasser,  D. R. Rehn,  
 M. L. Vidal,  Zhi-Qiang You,  Ying Zhu,  B. Alam,  B. Albrecht,  
 A. Aldossary,  E. Alguire,  J. H. Andersen,  V. Athavale,  D. Barton,  
 K. Begam,  A. Behn,  N. Bellonzi,  Y. A. Bernard,  E. J. Berquist,  
 H. Burton,  A. Carreras,  K. Carter-Fenk,  Romit Chakraborty,  
 Chandrima Chakravarty,  Junhan Chen,  A. D. Chien,  K. D. Closser,  
 V. Cofer-Shabica,  L. Cunha,  S. Dasgupta,  Jia Deng,  M. de Wergifosse,  
 M. Diedenhofen,  Hainam Do,  S. Ehlert,  Po-Tung Fang,  S. Fatehi,  
 Qingguo Feng,  T. Friedhoff,  B. Ganoe,  J. Gayvert,  Qinghui Ge,  
 G. Gidofalvi,  M. Goldey,  J. Gomes,  C. Gonzalez-Espinoza,  S. Gulania,  
 A. Gunina,  J. A. Gyamfi,  M. W. D. Hanson-Heine,  P. H. P. Harbach,  
 A. W. Hauser,  M. F. Herbst,  M. Hernandez Vera,  M. Hodecker,  
 Z. C. Holden,  S. Houck,  Xunkun Huang,  Kerwin Hui,  B. C. Huynh,  
 K. Ikeda,  M. Ivanov,  Hyunjun Ji,  Zuxin Jin,  Hanjie Jiang,  B. Kaduk,  
 S. Kaehler,  R. Kang,  K. Khistyaev,  Jaehoon Kim,  Yongbin Kim,  
 P. Klunzinger,  Z. Koczor-Benda,  Joong Hoon Koh,  D. Kosenkov,  
 Saikiran Kotaru,  L. Koulias,  T. Kowalczyk,  C. M. Krauter,  K. Kue,  
 A. Kunitsa,  T. Kus,  A. Landau,  K. V. Lawler,  D. Lefrancois,  S. Lehtola,  
 Rain Li,  Shaozhi Li,  Yi-Pei Li,  Jiashu Liang,  M. Liebenthal,  
 Hung-Hsuan Lin,  You-Sheng Lin,  Fenglai Liu,  Kuan-Yu Liu,  
 M. Loipersberger,  A. Luenser,  C. Malbon,  A. Manjanath,  P. Manohar,  
 E. Mansoor,  S. F. Manzer,  Shan-Ping Mao,  A. V. Marenich,  T. Markovich,  
 S. Mason,  F. Matz,  S. A. Maurer,  P. F. McLaughlin,  M. F. S. J. Menger,  
 J.-M. Mewes,  S. A. Mewes,  P. Morgante,  Mohammad Mostafanejad,  
 J. W. Mullinax,  K. J. Oosterbaan,  G. Paran,  V. Parravicini,  
 Alexander C. Paul,  Suranjan K. Paul,  F. Pavosevic,  Zheng Pei,  S. Prager,  
 E. I. Proynov,  E. Ramos,  B. Rana,  A. E. Rask,  A. Rettig,  R. M. Richard,  
 F. Rob,  E. Rossomme,  T. Scheele,  M. Scheurer,  M. Schneider,  
 P. E. Schneider,  N. Sergueev,  S. M. Sharada,  Hengyuan Shen,  
 W. Skomorowski,  D. W. Small,  C. J. Stein,  Yingli Su,  Yu-Chuan Su,  
 E. J. Sundstrom,  Zhen Tao,  J. Thirman,  Hung-Yi Tsai,  T. Tsuchimochi,  
 N. M. Tubman,  C. Utku,  S. P. Veccham,  O. Vydrov,  J. Wenzel,  
 Jonathan Wong,  J. Witte,  A. Yamada,  Chou-Hsun Yang,  Kun Yao,  
 S. Yeganeh,  S. R. Yost,  A. Zech,  F. Zeller,  Igor Ying Zhang,  
 Xing Zhang,  Yu Zhang,  D. Zuev,  A. Aspuru-Guzik,  A. T. Bell,  
 N. A. Besley,  K. B. Bravaya,  B. R. Brooks,  D. Casanova,  Jeng-Da Chai,  
 Hsing-Ta Chen,  S. Coriani,  C. J. Cramer,  A. E. DePrince, III,  
 R. A. DiStasio Jr.,  A. Dreuw,  B. D. Dunietz,  T. R. Furlani,  
 W. A. Goddard III,  S. Grimme,  S. Hammes-Schiffer,  T. Head-Gordon,  
 W. J. Hehre,  Chao-Ping Hsu,  T.-C. Jagau,  Yousung Jung,  A. Klamt,  
 Jing Kong,  D. S. Lambrecht,  Xiangyuan Li,  WanZhen Liang,  N. J. Mayhall,  
 C. W. McCurdy,  J. B. Neaton,  T. Neudecker,  C. Ochsenfeld,  
 J. A. Parkhill,  R. Peverati,  V. A. Rassolov,  Haisheng Ren,  Yihan Shao,  
 L. V. Slipchenko,  R. P. Steele,  J. E. Subotnik,  A. J. W. Thom,  
 A. Tkatchenko,  D. G. Truhlar,  T. Van Voorhis,  Fan Wang,  
 T. A. Wesolowski,  K. B. Whaley,  H. L. Woodcock III,  P. M. Zimmerman,  
 S. Faraji,  P. M. W. Gill,  M. Head-Gordon,  J. M. Herbert,  A. I. Krylov

 Contributors to earlier versions of Q-Chem not listed above: 
 R. D. Adamson,  B. Austin,  R. Baer,  J. Baker,  G. J. O. Beran,  
 K. Brandhorst,  S. T. Brown,  E. F. C. Byrd,  Arup K. Chakraborty,  
 G. K. L. Chan,  Chun-Min Chang,  Yunqing Chen,  C.-L. Cheng,  
 Siu Hung Chien,  D. M. Chipman,  D. L. Crittenden,  H. Dachsel,  
 R. J. Doerksen,  A. D. Dutoi,  R. G. Edgar,  J. Fosso-Tande,  
 L. Fusti-Molnar,  D. Ghosh,  A. Ghysels,  A. Golubeva-Zadorozhnaya,  
 J. Gonthier,  M. S. Gordon,  S. R. Gwaltney,  G. Hawkins,  J. E. Herr,  
 A. Heyden,  S. Hirata,  E. G. Hohenstein,  G. Kedziora,  F. J. Keil,  
 C. Kelley,  Jihan Kim,  R. A. King,  R. Z. Khaliullin,  P. P. Korambath,  
 W. Kurlancheek,  A. Laurent,  A. M. Lee,  M. S. Lee,  S. V. Levchenko,  
 Ching Yeh Lin,  D. Liotard,  E. Livshits,  R. C. Lochan,  I. Lotan,  
 L. A. Martinez-Martinez,  P. E. Maslen,  N. Nair,  D. P. O'Neill,  
 D. Neuhauser,  E. Neuscamman,  C. M. Oana,  R. Olivares-Amaya,  R. Olson,  
 T. M. Perrine,  B. Peters,  P. A. Pieniazek,  A. Prociuk,  Y. M. Rhee,  
 J. Ritchie,  M. A. Rohrdanz,  E. Rosta,  N. J. Russ,  H. F. Schaefer III,  
 M. W. Schmidt,  N. E. Schultz,  S. Sharma,  N. Shenvi,  C. D. Sherrill,  
 A. C. Simmonett,  A. Sodt,  T. Stein,  D. Stuck,  K. S. Thanthiriwatte,  
 V. Vanovschi,  L. Vogt,  Tao Wang,  A. Warshel,  M. A. Watson,  
 C. F. Williams,  Q. Wu,  X. Xu,  Jun Yang,  W. Zhang,  Yan Zhao

   Please cite Q-Chem as follows:
  "Software for the frontiers of quantum chemistry:
   An overview of developments in the Q-Chem 5 package"
   J. Chem. Phys. 155, 084801 (2021)
   https://doi.org/10.1063/5.0055522 (open access)

 Q-Chem 6.0.1 for Intel X86 EM64T Linux

 Parts of Q-Chem use Armadillo 9.900.5 (Nocturnal Misbehaviour).
 http://arma.sourceforge.net/

 Q-Chem begins on Wed Apr  3 16:34:01 2024  

 Host: atlas-297
0

     Scratch files written to ./qchem11590//
 Processing $rem in /scratch/abel/SOFTWARE/qchem/config/preferences:
 Processing $rem in /dipc/acebg/.qchemrc:

 Checking the input file for inconsistencies... 	...done.

--------------------------------------------------------------
User input:
--------------------------------------------------------------
$comment
 RAS-SF CALCULATION
$end

$molecule
READ triplet_3Tm.molecule
$end

$rem
!**CALCULATION TYPE***     
JOBTYPE            sp    
EXCHANGE           HF
CORRELATION        RASCI    !RASCI=Casanova; RASCI2=Zimmerman
BASIS              cc-pVDZ

!***SCF REFERENCE***
!SKIP_SCFMAN        FALSE
UNRESTRICTED       FALSE
!SCF_GUESS          core
!SCF_GUESS_MIX      FALSE
!SCF_GUESS_ALWAYS   FALSE
MAX_SCF_CYCLES      999
!SCF_CONVERGENCE    10
SCF_ALGORITHM      DIIS_GDM !DIIS,DM,DIIS_DM,GDM,DIIS_GDM,GD

!SYMMETRY           TRUE   !use of symmetry for calculating integrals
!SYM_IGNORE         FALSE  !turn off using symmetry
!SYM_TOL            5      !tolerance for determining point group
!USE_ABELIAN_SUBGROUP      !define to use abelian group

!THRESH             14
!SCF_FINAL_PRINT     1 !0,1,2,3

!****RAS-SF****
RAS_ROOTS          20       !number of RAS-CI roots to be computed
SET_ITER           150     !number of iterations in RASCI
RAS_ELEC 8
RAS_ELEC_ALPHA 5
RAS_ELEC_BETA 3

RAS_ACT 8
RAS_ACT_ORB [69, 70, 71, 72, 73, 74, 75, 76]
RAS_OCC 68
!N_FROZEN_CORE      FC     !Number of frozen core orbitals
!N_FROZEN_VIRTUAL   0      !Number of frozen virtual orbitals

!RAS_DO_HOLE        TRUE   !presence of hole excitations in RAS-CI wave function
!RAS_DO_PART        TRUE   !presence of particle excitations
!RAS_AMPL_PRINT     10     !threshold (×10 2 ) for the CI amplitudes

!RAS_GUESS_CS       0      !number of closed shell guess conﬁgurations
!RAS_SPIN_MULT      0      !spin multiplicity. Only for Ms = 0 
!RAS_SRDFT          FALSE  !short-range density functional RAS-CI
!RAS_NFRAG          0     !fragments of excitation analysis in RASCI

RAS_PRINT          2      !level of information
!RAS_NATORB         TRUE   !computation of the natural orbital occupancies
!RAS_NATORB_STATE  0      !Saves NO of i RAS computed state in .fchk ﬁle
!RAS_FOD            TRUE

!****RAS-SOC****
CALC_SOC           TRUE   !calculate SOC for EOM-CC, RAS-CI, ADC, TDDFT/TDA and TDDFT
!RAS_SOC_2E        TRUE   !two-electron mean-ﬁeld contribution, default=true
RAS_SOC_SYM_DENS   TRUE   !averaging of α and β densities

!****MEMORY****
MEM_TOTAL          60000 !Default 2000 MB
MEM_STATIC         20000  !Default 64 MB

!**Molecular Properties and Analysis **                                                                                          
!POP_MULLIKEN       TRUE   !Run Mulliken population analysis
!LOWDIN_POPULATION  TRUE   !Run Löwdin population analysis
!GUI                0       !Checkpoints generation
STATE_ANALYSIS     TRUE

!**Wave function analysis of RAS-CI states: MOLDEN**
!PLOTS = 0     ! Note: This can be omitted, default is 0
!NTO_PAIRS = 2 ! Note: This can be omitted, default is 2
!GUI 0
!MOLDEN_FORMAT      TRUE
!PRINT_ORBITALS     15

!**Wave function analysis of RAS-CI state: CUBE**
!NTO_PAIRS = 2 ! Note: This can be omitted, default is 2
!PLOTS = 1
!GUI 0

!**SR-DFT**
!RAS_SRDFT           TRUE !Perform short-range density functional RAS-CI
!RAS_SRDFT_EXC       0 !EX functional. 0=HF. 
!RAS_SRDFT_ONLY_COR  TRUE !No use of EXC functional
!RAS_SRDFT_COR       srPBE !short-range correlation functional
!ras_srdft_0         TRUE !true: no iteration (one-shot); false: iteration
!RAS_OMEGA           400 !Coulomb range-separation parameter. def=400
!RAS_SRDFT_DAMP     0.5 !dumping factor. def=0.5
$end

!$plots
!   grid_points 100 100 100
!   grid_range  (-10,10) (-10,10) (-10,10)
!$end

--------------------------------------------------------------
 ----------------------------------------------------------------
             Standard Nuclear Orientation (Angstroms)
    I     Atom           X                Y                Z
 ----------------------------------------------------------------
    1      C      -0.0016345247    -4.2245984112    -0.0021647123
    2      C      -1.2056753702    -3.5406899239    -0.0011902204
    3      C      -1.2351552946    -2.1267955361     0.0004497424
    4      C      -0.0005477136    -1.4157229174     0.0002521840
    5      C       1.2335094865    -2.1277502004     0.0005143080
    6      C       1.2029348653    -3.5416217969    -0.0011166219
    7      C      -2.4382013078    -1.4064042224     0.0012836782
    8      C      -2.4592484466    -0.0040765021     0.0014312421
    9      H      -3.3776053888    -1.9473914464     0.0015800112
   10      C      -1.2263265326     0.7085176553     0.0003960502
   11      C      -0.0000000820    -0.0003123471     0.0004007512
   12      C       1.2268743590     0.7075687110     0.0003944687
   13      C       2.4592446361    -0.0059789229     0.0014700218
   14      C       2.4371121585    -1.4082900078     0.0013654230
   15      H       3.3760974711    -1.9500037143     0.0016903942
   16      C      -3.6688493766     0.7291886597     0.0014780287
   17      C      -3.6581374154     2.1135902999     0.0000414487
   18      C      -2.4635546076     2.8143271949    -0.0011040362
   19      C      -1.2245561711     2.1327264619    -0.0008236958
   20      C       0.0010889730     2.8146230973    -0.0014733051
   21      C       1.2262060104     2.1317784942    -0.0008516216
   22      C       2.4657317529     2.8124201907    -0.0011787105
   23      C       3.6597719315     2.1107593236    -0.0000219063
   24      C       3.6694126295     0.7263497739     0.0014782092
   25      H      -2.1436037227    -4.0817792401    -0.0017031750
   26      H       2.1404439769    -4.0834369914    -0.0015692173
   27      H      -0.0020533359    -5.3074451045    -0.0039803341
   28      H      -4.6069650103     0.1884163559     0.0025157460
   29      H      -4.5952802392     2.6552653529    -0.0001632938
   30      H      -2.4637700826     3.8975268173    -0.0021603268
   31      H       0.0015081049     3.8990142362    -0.0023754572
   32      H       4.6071094394     0.1848516853     0.0025297117
   33      H       2.4667848774     3.8956192549    -0.0022727345
   34      H       4.5973341506     2.6517083496    -0.0002756821
 ----------------------------------------------------------------
 Molecular Point Group                 C1    NOp =  1
 Largest Abelian Subgroup              C1    NOp =  1
 Nuclear Repulsion Energy =        1591.97885601 hartrees
 There are       73 alpha and       71 beta electrons
 Requested basis set is cc-pVDZ
 There are 168 shells and 368 basis functions

 Q-Chem warning in module libmdc/get_mega.C, line 167:

 Allowed MEM_STATIC has been capped at MEM_STATIC=8191.
 Reduce the value of MEM_STATIC to silence this warning.


 Total QAlloc Memory Limit  60000 MB
 Mega-Array Size      8007 MB
 MEM_STATIC part      8191 MB

 A cutoff of  1.0D-09 yielded   9612 shell pairs
 There are     46840 function pairs (     52437 Cartesian)
 Smallest overlap matrix eigenvalue = 5.48E-05

 Scale SEOQF with 1.000000e-01/1.000000e-02/1.000000e+00

 Standard Electronic Orientation quadrupole field applied
 Nucleus-field energy     =     0.0000000317 hartrees
 Guess from superposition of atomic densities
 Warning:  Energy on first SCF cycle will be non-variational
 SAD guess density has 144.000000 electrons

 -----------------------------------------------------------------------
  General SCF calculation program by
  Eric Jon Sundstrom, Paul Horn, Yuezhi Mao, Dmitri Zuev, Alec White,
  David Stuck, Shaama M.S., Shane Yost, Joonho Lee, David Small,
  Daniel Levine, Susi Lehtola, Hugh Burton, Evgeny Epifanovsky,
  Bang C. Huynh
 -----------------------------------------------------------------------
 Hartree-Fock
 Orthonormalizing orbitals
 A restricted open-shell SCF calculation will be
 performed using DIIS, GDM
 SCF converges when RMS gradient is below 1.0e-05
 ---------------------------------------
  Cycle       Energy         DIIS error
 ---------------------------------------
    1    -837.0964195594      3.43e-02  
    2    -837.4787408580      3.00e-02  
    3    -839.9282151597      7.40e-03  Done DIIS. Switching to GDM
 ---------------------------------------
  Cycle       Energy        RMS Gradient
 ---------------------------------------
    1    -839.9282151597      1.77e-01   Descent step
    2    -840.1284882983      5.20e-02   Normal BFGS step
    3    -840.1718937006      1.87e-02   Normal BFGS step
    4    -840.1745577278      1.15e-02   Normal BFGS step
    5    -840.1751372328      2.41e-03   Normal BFGS step
    6    -840.1751632044      1.00e-03   Normal BFGS step
    7    -840.1751693827      3.89e-04   Normal BFGS step
    8    -840.1751698732      2.01e-04   Normal BFGS step
    9    -840.1751696623      7.79e-05  Line search: overstep
   10    -840.1751698459      1.45e-04   Normal BFGS step
   11    -840.1751698537      6.86e-05   Normal BFGS step
   12    -840.1751703288      6.32e-05   Normal BFGS step
   13    -840.1751710558      2.39e-05   Normal BFGS step
   14    -840.1751709467      2.14e-05  Line search: overstep
   15    -840.1751709520      2.16e-05  Line search: overstep
   16    -840.1751714182      2.36e-05  Line search: understep
   17    -840.1751708600      2.18e-05  Line search: overstep
   18    -840.1751715624      2.34e-05  Line search: understep
   19    -840.1751707073      2.19e-05  Line search: overstep
   20    -840.1751716579      2.33e-05  Line search: understep
   21    -840.1751705973      2.21e-05  Line search: overstep
   22    -840.1751718005      2.31e-05  Line search: understep
   23    -840.1751705049      2.22e-05  Line search: overstep
   24    -840.1751718524      2.30e-05  Line search: understep
   25    -840.1751704818      2.23e-05  Line search: overstep
   26    -840.1751719185      2.30e-05  Line search: understep
   27    -840.1751704381      2.24e-05  Line search: overstep
   28    -840.1751718853      2.29e-05  Line search: understep
   29    -840.1751703796      2.24e-05  Line search: overstep
  GDM::   16 failed line searches.  Resetting
   30    -840.1751720533      2.29e-05  Line search: understep
  GDM::   17 failed line searches.  Resetting
   31    -840.1751702757      2.24e-05  Line search: overstep
  GDM::   18 failed line searches.  Resetting
   32    -840.1751721771      2.28e-05  Line search: understep
  GDM::   19 failed line searches.  Resetting
   33    -840.1751701445      2.25e-05  Line search: overstep
  GDM::   20 failed line searches.  Resetting
   34    -840.1751722354      2.28e-05  Line search: understep
  GDM::   21 failed line searches.  Resetting
   35    -840.1751700838      2.25e-05  Line search: overstep
  GDM::   22 failed line searches.  Resetting
   36    -840.1751723388      2.28e-05  Line search: understep
  GDM::   23 failed line searches.  Resetting
   37    -840.1751699386      2.26e-05  Line search: overstep
  GDM::   24 failed line searches.  Resetting
   38    -840.1751724411      2.27e-05  Line search: understep
  GDM::   25 failed line searches.  Resetting
   39    -840.1751699489      2.26e-05  Line search: overstep
  GDM::   26 failed line searches.  Resetting
   40    -840.1751724010      2.27e-05  Line search: understep
  GDM::   27 failed line searches.  Resetting
   41    -840.1751700144      2.26e-05  Line search: overstep
  GDM::   28 failed line searches.  Resetting
   42    -840.1751722838      2.27e-05  Line search: understep
  GDM::   29 failed line searches.  Resetting
   43    -840.1751701276      2.26e-05  Line search: overstep
  GDM::   30 failed line searches.  Resetting
   44    -840.1751722401      2.27e-05  Line search: understep
  GDM::   31 failed line searches.  Resetting
   45    -840.1751703588      2.26e-05  Line search: overstep
  GDM::   32 failed line searches.  Resetting
   46    -840.1751720080      2.27e-05  Line search: understep
  GDM::   33 failed line searches.  Resetting
   47    -840.1751703676      2.26e-05  Line search: overstep
  GDM::   34 failed line searches.  Resetting
   48    -840.1751717606      2.27e-05  Line search: understep
  GDM::   35 failed line searches.  Resetting
   49    -840.1751705389      2.26e-05  Line search: overstep
  GDM::   36 failed line searches.  Resetting
   50    -840.1751717786      2.27e-05  Line search: understep
  GDM::   37 failed line searches.  Resetting
   51    -840.1751706245      2.26e-05  Line search: overstep
  GDM::   38 failed line searches.  Resetting
   52    -840.1751715438      2.27e-05  Line search: understep
  GDM::   39 failed line searches.  Resetting
   53    -840.1751708990      2.26e-05  Line search: overstep
  GDM::   40 failed line searches.  Resetting
   54    -840.1751712335      2.27e-05  Line search: understep
  GDM::   41 failed line searches.  Resetting
   55    -840.1751710543      2.26e-05   Normal BFGS step
   56    -840.1751648607      1.56e-03  Line search: overstep
   57    -840.1751711080      1.36e-04   Normal BFGS step
   58    -840.1751715418      1.42e-05   Normal BFGS step
   59    -840.1751714065      7.86e-06  Convergence criterion met
The disked orbital energies are calculated using alpha and beta Focks
 ---------------------------------------
 SCF time:   CPU 432.38s  wall 439.00s 
<S^2> =          2.000000000
 SCF   energy in the final basis set =     -840.1751714065
 Total energy in the final basis set =     -840.1751714065
  
     ##========================================##
     ||                                        ||
     ||              R A S M A N 2             ||
     ||________________________________________||
     ||                                        ||
     ||  Author:                               ||
     ||                                        ||
     ||        David Casanova (2010)           ||
     ||                                        ||
     ##========================================##
  
Setting single-point xc-functionals (if necessary)

  ***************************************************
  *  RAS-CI Dimensions:                             *
  *                                                 *
  *  Active Elec.:   8 ( 5, 3)   Active Orb.:   8   *
  *  Doubly Occ. :  68           Doubly Vir.: 292   *
  *  Frozen Occ. :   0           Frozen Vir.:   0   *
  *                                                 *
  *  Total CI configurations:   1978816             * 
  *    Active configurations:      3136             * 
  *      Hole configurations:    373184             * 
  *  Particle configurations:   1602496             * 
  *                                                 *
  *   Requested states:       20                    *
  *  Spin multiplicity: Any multiplicity            *
  *                                                 *
  ***************************************************
-----------------------------------------
    Memory requirements of RASCI

 Each CI-vector requires     15.10 MiB 
 Max. subspace vectors           3000      

 Reduced Lists                0.00 MiB 
 Excitation Lists             0.00 MiB 
 Excitation Lists Sign        0.00 MiB 
 CI-space (Max)           45662.13 MiB 
 Integrals                  113.39 MiB 
 Memory required (Max)    45662.15 MiB 
 Memory available          7811.55 MiB 

 Q-Chem warning in module rasman2/ras_mem_check.C, line 162:

 Static memory may be insufficient to store the subspace vectors


    Disk requirements of RASCI

 Fock matrix                  2.07 MiB 
 2-electron integrals       197.83 MiB 
 CI-space                 90583.01 MiB 
 Disk required            90782.90 MiB 
-----------------------------------------
  
RAS1 HF-like energy:           -833.3703157361
 Computing integrals
 Computing J and K matrices
 Computing addressing
 Making amplitude guesses
 
Direct CI diagonalization
 ---------------------------------------------------
 Iter    Rts Conv    Rts Left    Ttl Dev     Max Dev
 ---------------------------------------------------
   1         0          20      0.002773    0.000174
   2         0          20      0.001482    0.000087
   3         0          20      0.001090    0.000071
   4         0          20      0.000998    0.000074
   5         0          20      0.001291    0.000163
   6         0          20      0.001196    0.000098
   7         0          20      0.001164    0.000119
   8         0          20      0.001318    0.000113
   9         0          20      0.001284    0.000128
  10         1          19      0.000876    0.000085
  11         1          19      0.000691    0.000060
  12         1          19      0.000644    0.000052
  13         1          19      0.000493    0.000042
  14         1          19      0.000337    0.000029
  15         1          19      0.000284    0.000026
  16         1          19      0.000247    0.000024
  17         1          19      0.000171    0.000018
  18         1          19      0.000131    0.000017
  19         3          17      0.000119    0.000017
  20         3          17      0.000083    0.000012
  21         4          16      0.000059    0.000010
  22         7          13      0.000053    0.000010
  23         8          12      0.000040    0.000009
  24        11           9      0.000028    0.000007
  25        13           7      0.000024    0.000007
  26        15           5      0.000021    0.000006
  27        15           5      0.000016    0.000005
  28        16           4      0.000014    0.000004
  29        18           2      0.000013    0.000004
  30        19           1      0.000012    0.000003
  31        19           1      0.000011    0.000003
  32        19           1      0.000011    0.000002
  33        19           1      0.000010    0.000002
  34        19           1      0.000010    0.000001
  35        19           1      0.000010    0.000001
  36        19           1      0.000010    0.000001
  37        20           0      0.000010    0.000001    Roots Converged
 ---------------------------------------------------
   
**************************************************
 RAS-CI total energy for state   1:   -840.253087264129
  Excitation energy (eV) =  0.000000000000
  State symmetry: A1  (C1       )
  <S^2>      :  2.0000
  Dipole Moment:    0.0000 X     0.0319 Y     0.0009 Z
 NATURAL OCCUPATION NUMBERS (higher than 1.0E-05)
            1           2           3           4           5           6
    1   2.0000000   2.0000000   2.0000000   2.0000000   2.0000000   2.0000000
            7           8           9          10          11          12
    1   2.0000000   2.0000000   2.0000000   2.0000000   2.0000000   2.0000000
           13          14          15          16          17          18
    1   2.0000000   2.0000000   2.0000000   2.0000000   2.0000000   2.0000000
           19          20          21          22          23          24
    1   2.0000000   2.0000000   2.0000000   2.0000000   2.0000000   2.0000000
           25          26          27          28          29          30
    1   2.0000000   2.0000000   2.0000000   2.0000000   2.0000000   2.0000000
           31          32          33          34          35          36
    1   2.0000000   2.0000000   2.0000000   2.0000000   2.0000000   2.0000000
           37          38          39          40          41          42
    1   2.0000000   2.0000000   2.0000000   2.0000000   2.0000000   2.0000000
           43          44          45          46          47          48
    1   2.0000000   2.0000000   2.0000000   2.0000000   2.0000000   2.0000000
           49          50          51          52          53          54
    1   2.0000000   2.0000000   2.0000000   2.0000000   2.0000000   2.0000000
           55          56          57          58          59          60
    1   2.0000000   2.0000000   2.0000000   2.0000000   2.0000000   2.0000000
           61          62          63          64          65          66
    1   2.0000000   1.9994218   1.9985135   1.9982795   1.9960634   1.9948781
           67          68          69          70          71          72
    1   1.9948301   1.9880638   1.9572832   1.9533380   1.9343647   1.0024790
           73          74          75          76          77          78
    1   1.0013906   0.0614357   0.0431660   0.0324016   0.0247618   0.0052709
           79          80          81          82          83          84
    1   0.0049276   0.0030752   0.0017356   0.0008442   0.0005258   0.0004145
           85          86          87          88          89          90
    1   0.0002678   0.0002599   0.0002319   0.0002010   0.0001725   0.0001383
           91          92          93          94          95          96
    1   0.0001309   0.0001299   0.0000930   0.0000870   0.0000850   0.0000715
           97          98          99         100         101         102
    1   0.0000610   0.0000583   0.0000539   0.0000514   0.0000469   0.0000399
          103         104         105         106         107         108
    1   0.0000387   0.0000384   0.0000367   0.0000359   0.0000294   0.0000261
          109         110         111         112         113
    1   0.0000228   0.0000227   0.0000186   0.0000158   0.0000138

 Head-Gordon Nu:    2.36
 Head-Gordon Nu_nl: 2.06
 Created directory ./qchem11590/plots

  Amplitudes : 
  
 | HOLE  | ALPHA    | BETA     | PART  |    AMPLITUDE 
--------------------------------------------------
 |       | 11111000 | 11100000 |       |     9.3335722191221E-01
--------------------------------------------------
*** Contributions RASCI wfn    Active:  92.30
                                 Hole:   3.05
                                 Part:   4.66

      Mulliken population analysis 
 ---------------------------------------------------
   Atom    Charge (a.u.)   Spin (a.u.)  
 ---------------------------------------------------
   1  C    0.017180       -0.038487 
   2  C    0.024571        0.208682 
   3  C   -0.081358       -0.027067 
   4  C   -0.041860        0.078349 
   5  C   -0.081359       -0.027068 
   6  C    0.024563        0.208682 
   7  C    0.065072        0.267748 
   8  C   -0.079133       -0.027760 
   9  H    0.003260        0.001940 
  10  C   -0.050029        0.072981 
  11  C    0.090190       -0.036537 
  12  C   -0.049985        0.072981 
  13  C   -0.079130       -0.027760 
  14  C    0.065096        0.267748 
  15  H    0.003261        0.001940 
  16  C    0.024801        0.205001 
  17  C    0.012824       -0.030715 
  18  C    0.025482        0.213552 
  19  C   -0.080581       -0.026813 
  20  C    0.065877        0.271232 
  21  C   -0.080545       -0.026813 
  22  C    0.025455        0.213552 
  23  C    0.012837       -0.030715 
  24  C    0.024783        0.205001 
  25  H    0.010391        0.001539 
  26  H    0.010392        0.001539 
  27  H    0.024343       -0.000326 
  28  H    0.010377        0.001524 
  29  H    0.024108       -0.000279 
  30  H    0.010577        0.001568 
  31  H    0.003477        0.001964 
  32  H    0.010376        0.001524 
  33  H    0.010577        0.001568 
  34  H    0.024110       -0.000279 
 ---------------------------------------------------
   Sum:   -0.000000        2.000000 
 ---------------------------------------------------
 
*** Unpaired Electrons
 Yamaguchi Nd:         2.72
  
**************************************************
 RAS-CI total energy for state   2:   -840.144898972552
  Excitation energy (eV) =  2.943953197463
  State symmetry: A1  (C1       )
  <S^2>      :  2.0000
  Dipole Moment:    0.0001 X     0.1219 Y     0.0008 Z
  Trans. Moment:   -0.0618 X     0.0000 Y    -0.0000 Z
  Strength   :  0.000275
  Natural transition orbitals ( 1 -> 2 ):
   e-/hole pair  1 alpha:  ampl =  0.647650 ( 41.9%)   [8 : 9]
   e-/hole pair  2 alpha:  ampl =  0.113960 (  1.3%)   [7 : 10]
   e-/hole pair  1 beta :  ampl =  0.604865 ( 36.6%)   [8 : 9]
   e-/hole pair  2 beta :  ampl =  0.090537 (  0.8%)   [7 : 10]
   Sum of square amplitudes: 0.83

 NATURAL OCCUPATION NUMBERS (higher than 1.0E-05)
            1           2           3           4           5           6
    1   2.0000000   2.0000000   2.0000000   2.0000000   2.0000000   2.0000000
            7           8           9          10          11          12
    1   2.0000000   2.0000000   2.0000000   2.0000000   2.0000000   2.0000000
           13          14          15          16          17          18
    1   2.0000000   2.0000000   2.0000000   2.0000000   2.0000000   2.0000000
           19          20          21          22          23          24
    1   2.0000000   2.0000000   2.0000000   2.0000000   2.0000000   2.0000000
           25          26          27          28          29          30
    1   2.0000000   2.0000000   2.0000000   2.0000000   2.0000000   2.0000000
           31          32          33          34          35          36
    1   2.0000000   2.0000000   2.0000000   2.0000000   2.0000000   2.0000000
           37          38          39          40          41          42
    1   2.0000000   2.0000000   2.0000000   2.0000000   2.0000000   2.0000000
           43          44          45          46          47          48
    1   2.0000000   2.0000000   2.0000000   2.0000000   2.0000000   2.0000000
           49          50          51          52          53          54
    1   2.0000000   2.0000000   2.0000000   2.0000000   2.0000000   2.0000000
           55          56          57          58          59          60
    1   2.0000000   2.0000000   2.0000000   2.0000000   2.0000000   2.0000000
           61          62          63          64          65          66
    1   2.0000000   1.9991264   1.9986155   1.9979857   1.9930079   1.9910396
           67          68          69          70          71          72
    1   1.9904247   1.9821129   1.9511858   1.9510188   1.5156150   0.9954670
           73          74          75          76          77          78
    1   0.9496680   0.5425494   0.0495699   0.0428441   0.0159330   0.0125512
           79          80          81          82          83          84
    1   0.0099536   0.0048024   0.0019457   0.0009559   0.0005856   0.0003598
           85          86          87          88          89          90
    1   0.0003093   0.0002468   0.0002451   0.0001998   0.0001775   0.0001544
           91          92          93          94          95          96
    1   0.0001382   0.0001102   0.0001096   0.0000963   0.0000777   0.0000771
           97          98          99         100         101         102
    1   0.0000682   0.0000652   0.0000546   0.0000544   0.0000484   0.0000483
          103         104         105         106         107         108
    1   0.0000463   0.0000426   0.0000375   0.0000342   0.0000310   0.0000260
          109         110         111         112         113         114
    1   0.0000260   0.0000223   0.0000210   0.0000178   0.0000165   0.0000112
          115
    1   0.0000109

 Head-Gordon Nu:    3.26
 Head-Gordon Nu_nl: 3.20

  Amplitudes : 
  
 | HOLE  | ALPHA    | BETA     | PART  |    AMPLITUDE 
--------------------------------------------------
 |       | 11111000 | 11010000 |       |     5.8700404000915E-01
 |       | 11111000 | 01110000 |       |    -1.4131726555888E-01
 |       | 11110100 | 11010000 |       |     1.1486975812509E-01
 |       | 11101100 | 11100000 |       |    -6.3159568986191E-01
 |       | 11101100 | 11001000 |       |    -1.1240333006782E-01
 |       | 11101010 | 11100000 |       |    -1.4999194584319E-01
--------------------------------------------------
*** Contributions RASCI wfn    Active:  87.63
                                 Hole:   6.18
                                 Part:   6.20

      Mulliken population analysis 
 ---------------------------------------------------
   Atom    Charge (a.u.)   Spin (a.u.)  
 ---------------------------------------------------
   1  C    0.011289        0.165341 
   2  C    0.031188       -0.012856 
   3  C   -0.085586        0.057824 
   4  C   -0.040619        0.032140 
   5  C   -0.085587        0.057823 
   6  C    0.031180       -0.012856 
   7  C    0.073878        0.156327 
   8  C   -0.076966        0.015076 
   9  H    0.003067        0.001197 
  10  C   -0.048360        0.046440 
  11  C    0.072958        0.213618 
  12  C   -0.048316        0.046439 
  13  C   -0.076962        0.015075 
  14  C    0.073902        0.156333 
  15  H    0.003068        0.001197 
  16  C    0.027466        0.134227 
  17  C    0.010876        0.019106 
  18  C    0.026880        0.146586 
  19  C   -0.086229        0.008928 
  20  C    0.065748        0.434419 
  21  C   -0.086193        0.008927 
  22  C    0.026853        0.146589 
  23  C    0.010889        0.019105 
  24  C    0.027448        0.134231 
  25  H    0.010458       -0.000134 
  26  H    0.010460       -0.000134 
  27  H    0.023980        0.001387 
  28  H    0.010412        0.001012 
  29  H    0.023982        0.000178 
  30  H    0.010606        0.001023 
  31  H    0.003231        0.003217 
  32  H    0.010410        0.001012 
  33  H    0.010606        0.001024 
  34  H    0.023984        0.000178 
 ---------------------------------------------------
   Sum:   -0.000000        2.000000 
 ---------------------------------------------------
 
*** Unpaired Electrons
 Yamaguchi Nd:         4.09
  
**************************************************
 RAS-CI total energy for state   3:   -840.143981735866
  Excitation energy (eV) =  2.968912477564
  State symmetry: A1  (C1       )
  <S^2>      :  2.0000
  Dipole Moment:   -0.0000 X    -0.0498 Y     0.0010 Z
  Trans. Moment:    0.0000 X     0.1212 Y    -0.0001 Z
  Strength   :  0.001068
  Natural transition orbitals ( 1 -> 3 ):
   e-/hole pair  1 alpha:  ampl =  0.661307 ( 43.7%)   [8 : 9]
   e-/hole pair  2 alpha:  ampl =  0.134613 (  1.8%)   [7 : 10]
   e-/hole pair  1 beta :  ampl =  0.584598 ( 34.2%)   [8 : 9]
   e-/hole pair  2 beta :  ampl =  0.091649 (  0.8%)   [7 : 10]
   Sum of square amplitudes: 0.82

 NATURAL OCCUPATION NUMBERS (higher than 1.0E-05)
            1           2           3           4           5           6
    1   2.0000000   2.0000000   2.0000000   2.0000000   2.0000000   2.0000000
            7           8           9          10          11          12
    1   2.0000000   2.0000000   2.0000000   2.0000000   2.0000000   2.0000000
           13          14          15          16          17          18
    1   2.0000000   2.0000000   2.0000000   2.0000000   2.0000000   2.0000000
           19          20          21          22          23          24
    1   2.0000000   2.0000000   2.0000000   2.0000000   2.0000000   2.0000000
           25          26          27          28          29          30
    1   2.0000000   2.0000000   2.0000000   2.0000000   2.0000000   2.0000000
           31          32          33          34          35          36
    1   2.0000000   2.0000000   2.0000000   2.0000000   2.0000000   2.0000000
           37          38          39          40          41          42
    1   2.0000000   2.0000000   2.0000000   2.0000000   2.0000000   2.0000000
           43          44          45          46          47          48
    1   2.0000000   2.0000000   2.0000000   2.0000000   2.0000000   2.0000000
           49          50          51          52          53          54
    1   2.0000000   2.0000000   2.0000000   2.0000000   2.0000000   2.0000000
           55          56          57          58          59          60
    1   2.0000000   2.0000000   2.0000000   2.0000000   2.0000000   2.0000000
           61          62          63          64          65          66
    1   2.0000000   1.9990036   1.9986255   1.9984017   1.9931607   1.9919054
           67          68          69          70          71          72
    1   1.9874017   1.9810222   1.9544915   1.9507618   1.5415383   0.9942903
           73          74          75          76          77          78
    1   0.9106521   0.5539222   0.0519461   0.0455563   0.0126276   0.0122343
           79          80          81          82          83          84
    1   0.0096329   0.0063458   0.0016017   0.0011257   0.0006943   0.0003532
           85          86          87          88          89          90
    1   0.0002730   0.0002473   0.0002251   0.0002197   0.0001708   0.0001493
           91          92          93          94          95          96
    1   0.0001430   0.0001265   0.0001099   0.0001073   0.0000953   0.0000813
           97          98          99         100         101         102
    1   0.0000773   0.0000644   0.0000629   0.0000576   0.0000528   0.0000475
          103         104         105         106         107         108
    1   0.0000404   0.0000398   0.0000362   0.0000346   0.0000315   0.0000304
          109         110         111         112         113         114
    1   0.0000274   0.0000253   0.0000209   0.0000186   0.0000144   0.0000110

 Head-Gordon Nu:    3.21
 Head-Gordon Nu_nl: 3.16

  Amplitudes : 
  
 | HOLE  | ALPHA    | BETA     | PART  |    AMPLITUDE 
--------------------------------------------------
 |       | 11111000 | 11001000 |       |     5.7664797166054E-01
 |       | 11110100 | 11100000 |       |     6.5053312161644E-01
 |       | 11110100 | 11001000 |       |    -1.1876287969511E-01
 |       | 11110010 | 11100000 |       |    -1.2370823717560E-01
 |       | 11101100 | 11010000 |       |    -1.1414864324084E-01
 |       | 11101001 | 11100000 |       |     1.0556812763819E-01
--------------------------------------------------
*** Contributions RASCI wfn    Active:  87.90
                                 Hole:   6.09
                                 Part:   6.01

      Mulliken population analysis 
 ---------------------------------------------------
   Atom    Charge (a.u.)   Spin (a.u.)  
 ---------------------------------------------------
   1  C    0.017604       -0.010548 
   2  C    0.025817        0.191763 
   3  C   -0.082141        0.006200 
   4  C   -0.039953        0.050178 
   5  C   -0.082142        0.006201 
   6  C    0.025808        0.191763 
   7  C    0.066081        0.342588 
   8  C   -0.085014        0.037902 
   9  H    0.003006        0.002555 
  10  C   -0.047802        0.035197 
  11  C    0.068633        0.235040 
  12  C   -0.047758        0.035197 
  13  C   -0.085011        0.037903 
  14  C    0.066106        0.342582 
  15  H    0.003007        0.002555 
  16  C    0.032091        0.043687 
  17  C    0.004710        0.085248 
  18  C    0.034484        0.036011 
  19  C   -0.082885        0.046293 
  20  C    0.078644        0.064599 
  21  C   -0.082849        0.046293 
  22  C    0.034457        0.036008 
  23  C    0.004723        0.085247 
  24  C    0.032073        0.043684 
  25  H    0.010409        0.001393 
  26  H    0.010410        0.001393 
  27  H    0.024260       -0.000067 
  28  H    0.010474        0.000255 
  29  H    0.023826        0.000767 
  30  H    0.010665        0.000270 
  31  H    0.003305        0.000552 
  32  H    0.010472        0.000255 
  33  H    0.010665        0.000270 
  34  H    0.023828        0.000767 
 ---------------------------------------------------
   Sum:   -0.000000        2.000000 
 ---------------------------------------------------
 
*** Unpaired Electrons
 Yamaguchi Nd:         4.07
  
**************************************************
 RAS-CI total energy for state   4:   -840.126630266860
  Excitation energy (eV) =  3.441069971842
  State symmetry: A1  (C1       )
  <S^2>      :  2.0000
  Dipole Moment:    0.0000 X     0.1982 Y     0.0008 Z
  Trans. Moment:   -0.1462 X     0.0002 Y     0.0000 Z
  Strength   :  0.001801
  Natural transition orbitals ( 1 -> 4 ):
   e-/hole pair  1 alpha:  ampl =  0.644990 ( 41.6%)   [8 : 9]
   e-/hole pair  2 alpha:  ampl =  0.262494 (  6.9%)   [7 : 10]
   e-/hole pair  1 beta :  ampl =  0.462038 ( 21.3%)   [8 : 9]
   e-/hole pair  2 beta :  ampl =  0.365941 ( 13.4%)   [7 : 10]
   Sum of square amplitudes: 0.85

 NATURAL OCCUPATION NUMBERS (higher than 1.0E-05)
            1           2           3           4           5           6
    1   2.0000000   2.0000000   2.0000000   2.0000000   2.0000000   2.0000000
            7           8           9          10          11          12
    1   2.0000000   2.0000000   2.0000000   2.0000000   2.0000000   2.0000000
           13          14          15          16          17          18
    1   2.0000000   2.0000000   2.0000000   2.0000000   2.0000000   2.0000000
           19          20          21          22          23          24
    1   2.0000000   2.0000000   2.0000000   2.0000000   2.0000000   2.0000000
           25          26          27          28          29          30
    1   2.0000000   2.0000000   2.0000000   2.0000000   2.0000000   2.0000000
           31          32          33          34          35          36
    1   2.0000000   2.0000000   2.0000000   2.0000000   2.0000000   2.0000000
           37          38          39          40          41          42
    1   2.0000000   2.0000000   2.0000000   2.0000000   2.0000000   2.0000000
           43          44          45          46          47          48
    1   2.0000000   2.0000000   2.0000000   2.0000000   2.0000000   2.0000000
           49          50          51          52          53          54
    1   2.0000000   2.0000000   2.0000000   2.0000000   2.0000000   2.0000000
           55          56          57          58          59          60
    1   2.0000000   2.0000000   2.0000000   2.0000000   2.0000000   2.0000000
           61          62          63          64          65          66
    1   2.0000000   1.9989725   1.9974133   1.9960276   1.9957514   1.9904033
           67          68          69          70          71          72
    1   1.9886116   1.9860754   1.9247332   1.7988552   1.7180415   1.0731061
           73          74          75          76          77          78
    1   0.7911940   0.5120168   0.0980107   0.0667259   0.0260367   0.0147208
           79          80          81          82          83          84
    1   0.0098275   0.0041482   0.0035271   0.0018710   0.0007991   0.0003671
           85          86          87          88          89          90
    1   0.0003005   0.0002575   0.0002426   0.0001974   0.0001921   0.0001629
           91          92          93          94          95          96
    1   0.0001301   0.0001265   0.0001229   0.0000964   0.0000916   0.0000841
           97          98          99         100         101         102
    1   0.0000699   0.0000649   0.0000638   0.0000479   0.0000473   0.0000453
          103         104         105         106         107         108
    1   0.0000448   0.0000411   0.0000367   0.0000341   0.0000336   0.0000285
          109         110         111         112         113         114
    1   0.0000265   0.0000252   0.0000213   0.0000202   0.0000158   0.0000145
          115
    1   0.0000124

 Head-Gordon Nu:    3.06
 Head-Gordon Nu_nl: 2.93

  Amplitudes : 
  
 | HOLE  | ALPHA    | BETA     | PART  |    AMPLITUDE 
--------------------------------------------------
 |       | 11111000 | 11010000 |       |     1.1260536617062E-01
 |       | 11111000 | 10101000 |       |    -3.5386627041509E-01
 |       | 11111000 | 01110000 |       |     4.4165195170272E-01
 |       | 11110001 | 11100000 |       |    -1.3958314594099E-01
 |       | 11101100 | 11100000 |       |    -1.0417060234305E-01
 |       | 11101010 | 11100000 |       |     6.3375681243528E-01
 |       | 11110000 | 11100000 |  77   |    -2.1088616995562E-01
--------------------------------------------------
*** Contributions RASCI wfn    Active:  83.05
                                 Hole:   5.81
                                 Part:  11.14

      Mulliken population analysis 
 ---------------------------------------------------
   Atom    Charge (a.u.)   Spin (a.u.)  
 ---------------------------------------------------
   1  C   -0.020448        0.127675 
   2  C    0.055154        0.081500 
   3  C   -0.086363        0.030381 
   4  C   -0.080815        0.265162 
   5  C   -0.086337        0.030102 
   6  C    0.055125        0.081722 
   7  C    0.091483        0.075121 
   8  C   -0.093983        0.092384 
   9  H    0.003447        0.000571 
  10  C   -0.055503        0.057224 
  11  C    0.098964       -0.013768 
  12  C   -0.055395        0.057029 
  13  C   -0.093966        0.092031 
  14  C    0.091481        0.075656 
  15  H    0.003447        0.000575 
  16  C    0.033909        0.126086 
  17  C   -0.000524        0.037403 
  18  C    0.025010        0.193782 
  19  C   -0.066814        0.002723 
  20  C    0.052649        0.217216 
  21  C   -0.066794        0.002690 
  22  C    0.024963        0.193865 
  23  C   -0.000454        0.037243 
  24  C    0.033844        0.126366 
  25  H    0.010545        0.000661 
  26  H    0.010546        0.000663 
  27  H    0.023879        0.001008 
  28  H    0.010432        0.000931 
  29  H    0.023914        0.000306 
  30  H    0.010453        0.001440 
  31  H    0.003352        0.001576 
  32  H    0.010429        0.000933 
  33  H    0.010453        0.001440 
  34  H    0.023917        0.000304 
 ---------------------------------------------------
   Sum:   -0.000000        2.000000 
 ---------------------------------------------------
 
*** Unpaired Electrons
 Yamaguchi Nd:         4.24
  
**************************************************
 RAS-CI total energy for state   5:   -840.126487017339
  Excitation energy (eV) =  3.444967989645
  State symmetry: A1  (C1       )
  <S^2>      :  2.0000
  Dipole Moment:   -0.0000 X    -0.2359 Y     0.0009 Z
  Trans. Moment:    0.0002 X     0.1239 Y     0.0001 Z
  Strength   :  0.001295
  Natural transition orbitals ( 1 -> 5 ):
   e-/hole pair  1 alpha:  ampl =  0.452053 ( 20.4%)   [8 : 9]
   e-/hole pair  2 alpha:  ampl =  0.448480 ( 20.1%)   [7 : 10]
   e-/hole pair  1 beta :  ampl =  0.559627 ( 31.3%)   [8 : 9]
   e-/hole pair  2 beta :  ampl =  0.332278 ( 11.0%)   [7 : 10]
   Sum of square amplitudes: 0.85

 NATURAL OCCUPATION NUMBERS (higher than 1.0E-05)
            1           2           3           4           5           6
    1   2.0000000   2.0000000   2.0000000   2.0000000   2.0000000   2.0000000
            7           8           9          10          11          12
    1   2.0000000   2.0000000   2.0000000   2.0000000   2.0000000   2.0000000
           13          14          15          16          17          18
    1   2.0000000   2.0000000   2.0000000   2.0000000   2.0000000   2.0000000
           19          20          21          22          23          24
    1   2.0000000   2.0000000   2.0000000   2.0000000   2.0000000   2.0000000
           25          26          27          28          29          30
    1   2.0000000   2.0000000   2.0000000   2.0000000   2.0000000   2.0000000
           31          32          33          34          35          36
    1   2.0000000   2.0000000   2.0000000   2.0000000   2.0000000   2.0000000
           37          38          39          40          41          42
    1   2.0000000   2.0000000   2.0000000   2.0000000   2.0000000   2.0000000
           43          44          45          46          47          48
    1   2.0000000   2.0000000   2.0000000   2.0000000   2.0000000   2.0000000
           49          50          51          52          53          54
    1   2.0000000   2.0000000   2.0000000   2.0000000   2.0000000   2.0000000
           55          56          57          58          59          60
    1   2.0000000   2.0000000   2.0000000   2.0000000   2.0000000   2.0000000
           61          62          63          64          65          66
    1   2.0000000   1.9989752   1.9980759   1.9962207   1.9957949   1.9886685
           67          68          69          70          71          72
    1   1.9873205   1.9867361   1.9336875   1.8282685   1.6057391   1.1168801
           73          74          75          76          77          78
    1   0.9105203   0.2791832   0.2512667   0.0628224   0.0223769   0.0131404
           79          80          81          82          83          84
    1   0.0120459   0.0041403   0.0030359   0.0012409   0.0007446   0.0003523
           85          86          87          88          89          90
    1   0.0002883   0.0002522   0.0002301   0.0002055   0.0001836   0.0001392
           91          92          93          94          95          96
    1   0.0001294   0.0001228   0.0001157   0.0001084   0.0000974   0.0000939
           97          98          99         100         101         102
    1   0.0000888   0.0000742   0.0000569   0.0000553   0.0000517   0.0000473
          103         104         105         106         107         108
    1   0.0000420   0.0000382   0.0000379   0.0000361   0.0000336   0.0000305
          109         110         111         112         113         114
    1   0.0000266   0.0000263   0.0000218   0.0000206   0.0000179   0.0000149
          115
    1   0.0000117

 Head-Gordon Nu:    3.13
 Head-Gordon Nu_nl: 2.92

  Amplitudes : 
  
 | HOLE  | ALPHA    | BETA     | PART  |    AMPLITUDE 
--------------------------------------------------
 |       | 11111000 | 11001000 |       |     1.2188949941866E-01
 |       | 11111000 | 10110000 |       |     5.4053352032649E-01
 |       | 11111000 | 01101000 |       |    -2.9245265758938E-01
 |       | 11110010 | 11100000 |       |     4.3068222121118E-01
 |       | 11101001 | 11100000 |       |    -3.3612872213496E-01
 |  68   | 11111000 | 11110000 |       |    -1.3215052426472E-01
 |       | 11101000 | 11100000 |  77   |    -3.0603085070322E-01
--------------------------------------------------
*** Contributions RASCI wfn    Active:  76.79
                                 Hole:   7.20
                                 Part:  16.01

      Mulliken population analysis 
 ---------------------------------------------------
   Atom    Charge (a.u.)   Spin (a.u.)  
 ---------------------------------------------------
   1  C    0.001994        0.068543 
   2  C    0.022230        0.138003 
   3  C   -0.075314        0.111313 
   4  C   -0.051948        0.098077 
   5  C   -0.075344        0.111591 
   6  C    0.022244        0.137782 
   7  C    0.058534        0.087772 
   8  C   -0.077779        0.073064 
   9  H    0.003183        0.000627 
  10  C   -0.073531        0.075319 
  11  C    0.098976       -0.010905 
  12  C   -0.073552        0.075510 
  13  C   -0.077792        0.073417 
  14  C    0.058586        0.087236 
  15  H    0.003184        0.000623 
  16  C    0.051423        0.127831 
  17  C   -0.008069        0.012321 
  18  C    0.035159        0.182248 
  19  C   -0.064779        0.014543 
  20  C    0.070719        0.189535 
  21  C   -0.064725        0.014578 
  22  C    0.035153        0.182164 
  23  C   -0.008115        0.012478 
  24  C    0.051454        0.127551 
  25  H    0.010243        0.001022 
  26  H    0.010245        0.001020 
  27  H    0.024112        0.000547 
  28  H    0.010594        0.000921 
  29  H    0.023910        0.000091 
  30  H    0.010520        0.001377 
  31  H    0.003462        0.001416 
  32  H    0.010593        0.000919 
  33  H    0.010519        0.001376 
  34  H    0.023912        0.000092 
 ---------------------------------------------------
   Sum:   -0.000000        2.000000 
 ---------------------------------------------------
 
*** Unpaired Electrons
 Yamaguchi Nd:         4.31
  
**************************************************
 RAS-CI total energy for state   6:   -840.121900506418
  Excitation energy (eV) =  3.569773301707
  State symmetry: A1  (C1       )
  <S^2>      :  2.0000
  Dipole Moment:    0.0000 X     0.0651 Y     0.0010 Z
  Trans. Moment:   -0.0159 X     0.0000 Y    -0.0000 Z
  Strength   :  0.000022
  Natural transition orbitals ( 1 -> 6 ):
   e-/hole pair  1 alpha:  ampl =  0.783292 ( 61.4%)   [8 : 9]
   e-/hole pair  2 alpha:  ampl =  0.167980 (  2.8%)   [7 : 10]
   e-/hole pair  1 beta :  ampl =  0.446153 ( 19.9%)   [8 : 9]
   e-/hole pair  2 beta :  ampl =  0.098283 (  1.0%)   [7 : 10]
   Sum of square amplitudes: 0.86

 NATURAL OCCUPATION NUMBERS (higher than 1.0E-05)
            1           2           3           4           5           6
    1   2.0000000   2.0000000   2.0000000   2.0000000   2.0000000   2.0000000
            7           8           9          10          11          12
    1   2.0000000   2.0000000   2.0000000   2.0000000   2.0000000   2.0000000
           13          14          15          16          17          18
    1   2.0000000   2.0000000   2.0000000   2.0000000   2.0000000   2.0000000
           19          20          21          22          23          24
    1   2.0000000   2.0000000   2.0000000   2.0000000   2.0000000   2.0000000
           25          26          27          28          29          30
    1   2.0000000   2.0000000   2.0000000   2.0000000   2.0000000   2.0000000
           31          32          33          34          35          36
    1   2.0000000   2.0000000   2.0000000   2.0000000   2.0000000   2.0000000
           37          38          39          40          41          42
    1   2.0000000   2.0000000   2.0000000   2.0000000   2.0000000   2.0000000
           43          44          45          46          47          48
    1   2.0000000   2.0000000   2.0000000   2.0000000   2.0000000   2.0000000
           49          50          51          52          53          54
    1   2.0000000   2.0000000   2.0000000   2.0000000   2.0000000   2.0000000
           55          56          57          58          59          60
    1   2.0000000   2.0000000   2.0000000   2.0000000   2.0000000   2.0000000
           61          62          63          64          65          66
    1   2.0000000   1.9987552   1.9969786   1.9968209   1.9960425   1.9946090
           67          68          69          70          71          72
    1   1.9823538   1.9818534   1.9564867   1.9258394   1.7269894   0.9821758
           73          74          75          76          77          78
    1   0.7109529   0.5811428   0.0663744   0.0508463   0.0199066   0.0145769
           79          80          81          82          83          84
    1   0.0048807   0.0042214   0.0022316   0.0018949   0.0009393   0.0003342
           85          86          87          88          89          90
    1   0.0002828   0.0002716   0.0002042   0.0001808   0.0001783   0.0001737
           91          92          93          94          95          96
    1   0.0001448   0.0001362   0.0001228   0.0001136   0.0001055   0.0000835
           97          98          99         100         101         102
    1   0.0000773   0.0000758   0.0000669   0.0000602   0.0000525   0.0000507
          103         104         105         106         107         108
    1   0.0000469   0.0000444   0.0000393   0.0000356   0.0000345   0.0000323
          109         110         111         112         113         114
    1   0.0000227   0.0000222   0.0000213   0.0000188   0.0000151   0.0000114

 Head-Gordon Nu:    2.89
 Head-Gordon Nu_nl: 2.80

  Amplitudes : 
  
 | HOLE  | ALPHA    | BETA     | PART  |    AMPLITUDE 
--------------------------------------------------
 |       | 11111000 | 10101000 |       |     4.1129572980042E-01
 |       | 11110001 | 11100000 |       |    -7.4416236810385E-01
 |       | 11101010 | 11100000 |       |     1.4691325024666E-01
 |  68   | 11111000 | 11101000 |       |     1.6972366305453E-01
 |       | 11110000 | 11100000 |  77   |     2.2537266452433E-01
--------------------------------------------------
*** Contributions RASCI wfn    Active:  80.51
                                 Hole:   8.35
                                 Part:  11.14

      Mulliken population analysis 
 ---------------------------------------------------
   Atom    Charge (a.u.)   Spin (a.u.)  
 ---------------------------------------------------
   1  C    0.013958       -0.029696 
   2  C    0.029124        0.224907 
   3  C   -0.084621        0.005048 
   4  C   -0.023590        0.006171 
   5  C   -0.084622        0.005049 
   6  C    0.029115        0.224906 
   7  C    0.075071        0.204105 
   8  C   -0.058204        0.007888 
   9  H    0.003308        0.001509 
  10  C   -0.109917        0.164250 
  11  C    0.107965       -0.014784 
  12  C   -0.109875        0.164250 
  13  C   -0.058201        0.007889 
  14  C    0.075097        0.204103 
  15  H    0.003309        0.001509 
  16  C    0.053369        0.155847 
  17  C   -0.060620        0.083566 
  18  C    0.097065        0.058553 
  19  C   -0.139686        0.135889 
  20  C    0.152771       -0.052335 
  21  C   -0.139650        0.135889 
  22  C    0.097041        0.058553 
  23  C   -0.060608        0.083566 
  24  C    0.053353        0.155846 
  25  H    0.010397        0.001652 
  26  H    0.010399        0.001652 
  27  H    0.024297       -0.000250 
  28  H    0.010402        0.001255 
  29  H    0.023361        0.000758 
  30  H    0.011123        0.000420 
  31  H    0.004186       -0.000396 
  32  H    0.010400        0.001255 
  33  H    0.011123        0.000420 
  34  H    0.023363        0.000758 
 ---------------------------------------------------
   Sum:   -0.000000        2.000000 
 ---------------------------------------------------
 
*** Unpaired Electrons
 Yamaguchi Nd:         3.87
  
**************************************************
 RAS-CI total energy for state   7:   -840.109065208093
  Excitation energy (eV) =  3.919039539239
  State symmetry: A1  (C1       )
  <S^2>      :  2.0000
  Dipole Moment:    0.0001 X     0.0971 Y     0.0008 Z
  Trans. Moment:    0.0000 X     0.0803 Y     0.0001 Z
  Strength   :  0.000620
  Natural transition orbitals ( 1 -> 7 ):
   e-/hole pair  1 alpha:  ampl =  0.504490 ( 25.5%)   [8 : 9]
   e-/hole pair  2 alpha:  ampl =  0.460015 ( 21.2%)   [7 : 10]
   e-/hole pair  1 beta :  ampl =  0.411270 ( 16.9%)   [8 : 9]
   e-/hole pair  2 beta :  ampl =  0.342508 ( 11.7%)   [7 : 10]
   Sum of square amplitudes: 0.77

 NATURAL OCCUPATION NUMBERS (higher than 1.0E-05)
            1           2           3           4           5           6
    1   2.0000000   2.0000000   2.0000000   2.0000000   2.0000000   2.0000000
            7           8           9          10          11          12
    1   2.0000000   2.0000000   2.0000000   2.0000000   2.0000000   2.0000000
           13          14          15          16          17          18
    1   2.0000000   2.0000000   2.0000000   2.0000000   2.0000000   2.0000000
           19          20          21          22          23          24
    1   2.0000000   2.0000000   2.0000000   2.0000000   2.0000000   2.0000000
           25          26          27          28          29          30
    1   2.0000000   2.0000000   2.0000000   2.0000000   2.0000000   2.0000000
           31          32          33          34          35          36
    1   2.0000000   2.0000000   2.0000000   2.0000000   2.0000000   2.0000000
           37          38          39          40          41          42
    1   2.0000000   2.0000000   2.0000000   2.0000000   2.0000000   2.0000000
           43          44          45          46          47          48
    1   2.0000000   2.0000000   2.0000000   2.0000000   2.0000000   2.0000000
           49          50          51          52          53          54
    1   2.0000000   2.0000000   2.0000000   2.0000000   2.0000000   2.0000000
           55          56          57          58          59          60
    1   2.0000000   2.0000000   2.0000000   2.0000000   2.0000000   2.0000000
           61          62          63          64          65          66
    1   2.0000000   1.9989689   1.9984681   1.9957786   1.9944269   1.9891678
           67          68          69          70          71          72
    1   1.9879382   1.9719760   1.9118893   1.8067614   1.7362398   0.9056784
           73          74          75          76          77          78
    1   0.9034259   0.3735503   0.2904653   0.0706276   0.0310561   0.0102564
           79          80          81          82          83          84
    1   0.0081378   0.0061364   0.0034340   0.0013516   0.0005676   0.0003653
           85          86          87          88          89          90
    1   0.0003416   0.0002942   0.0002894   0.0002535   0.0002444   0.0001801
           91          92          93          94          95          96
    1   0.0001789   0.0001518   0.0001393   0.0001324   0.0001118   0.0001095
           97          98          99         100         101         102
    1   0.0000914   0.0000840   0.0000665   0.0000613   0.0000554   0.0000553
          103         104         105         106         107         108
    1   0.0000480   0.0000450   0.0000438   0.0000413   0.0000381   0.0000340
          109         110         111         112         113         114
    1   0.0000324   0.0000277   0.0000245   0.0000223   0.0000216   0.0000190
          115         116
    1   0.0000162   0.0000123

 Head-Gordon Nu:    3.22
 Head-Gordon Nu_nl: 2.97

  Amplitudes : 
  
 | HOLE  | ALPHA    | BETA     | PART  |    AMPLITUDE 
--------------------------------------------------
 |       | 11111000 | 10110000 |       |     2.8984165256727E-01
 |       | 11111000 | 01101000 |       |     3.9441748908225E-01
 |       | 11111000 | 01100010 |       |     1.0165717181820E-01
 |       | 11110010 | 11100000 |       |    -4.8666375515792E-01
 |       | 11110010 | 01101000 |       |     1.1896331313099E-01
 |       | 11101001 | 11100000 |       |    -4.3569448599378E-01
 |       | 01111010 | 11100000 |       |    -1.0147626992999E-01
 |  68   | 11111000 | 11110000 |       |    -1.4812323477144E-01
 |       | 11101000 | 11100000 |  77   |    -1.1390797231514E-01
--------------------------------------------------
*** Contributions RASCI wfn    Active:  81.38
                                 Hole:   9.67
                                 Part:   8.95

      Mulliken population analysis 
 ---------------------------------------------------
   Atom    Charge (a.u.)   Spin (a.u.)  
 ---------------------------------------------------
   1  C   -0.010969        0.099968 
   2  C    0.043541        0.147499 
   3  C   -0.090169        0.096088 
   4  C   -0.038868        0.119143 
   5  C   -0.090175        0.096082 
   6  C    0.043537        0.147504 
   7  C    0.076233        0.123064 
   8  C   -0.074653        0.070533 
   9  H    0.003329        0.000912 
  10  C   -0.066005        0.098296 
  11  C    0.096065        0.006740 
  12  C   -0.065960        0.098297 
  13  C   -0.074653        0.070525 
  14  C    0.076257        0.123060 
  15  H    0.003330        0.000912 
  16  C    0.037523        0.097524 
  17  C   -0.012211        0.039574 
  18  C    0.042783        0.136115 
  19  C   -0.095035        0.018670 
  20  C    0.084624        0.109602 
  21  C   -0.094997        0.018668 
  22  C    0.042751        0.136105 
  23  C   -0.012198        0.039572 
  24  C    0.037503        0.097519 
  25  H    0.010468        0.001103 
  26  H    0.010469        0.001103 
  27  H    0.023994        0.000807 
  28  H    0.010476        0.000715 
  29  H    0.023852        0.000321 
  30  H    0.010640        0.001039 
  31  H    0.003549        0.000865 
  32  H    0.010474        0.000715 
  33  H    0.010639        0.001039 
  34  H    0.023854        0.000321 
 ---------------------------------------------------
   Sum:   -0.000000        2.000000 
 ---------------------------------------------------
 
*** Unpaired Electrons
 Yamaguchi Nd:         4.45
  
**************************************************
 RAS-CI total energy for state   8:   -840.103974224583
  Excitation energy (eV) =  4.057572248856
  State symmetry: A1  (C1       )
  <S^2>      :  2.0000
  Dipole Moment:    0.0001 X     0.4537 Y     0.0010 Z
  Trans. Moment:    0.2329 X    -0.0001 Y    -0.0000 Z
  Strength   :  0.005391
  Natural transition orbitals ( 1 -> 8 ):
   e-/hole pair  1 alpha:  ampl =  0.445681 ( 19.9%)   [8 : 9]
   e-/hole pair  2 alpha:  ampl =  0.331827 ( 11.0%)   [7 : 10]
   e-/hole pair  1 beta :  ampl =  0.560993 ( 31.5%)   [8 : 9]
   e-/hole pair  2 beta :  ampl =  0.419799 ( 17.6%)   [7 : 10]
   Sum of square amplitudes: 0.81

 NATURAL OCCUPATION NUMBERS (higher than 1.0E-05)
            1           2           3           4           5           6
    1   2.0000000   2.0000000   2.0000000   2.0000000   2.0000000   2.0000000
            7           8           9          10          11          12
    1   2.0000000   2.0000000   2.0000000   2.0000000   2.0000000   2.0000000
           13          14          15          16          17          18
    1   2.0000000   2.0000000   2.0000000   2.0000000   2.0000000   2.0000000
           19          20          21          22          23          24
    1   2.0000000   2.0000000   2.0000000   2.0000000   2.0000000   2.0000000
           25          26          27          28          29          30
    1   2.0000000   2.0000000   2.0000000   2.0000000   2.0000000   2.0000000
           31          32          33          34          35          36
    1   2.0000000   2.0000000   2.0000000   2.0000000   2.0000000   2.0000000
           37          38          39          40          41          42
    1   2.0000000   2.0000000   2.0000000   2.0000000   2.0000000   2.0000000
           43          44          45          46          47          48
    1   2.0000000   2.0000000   2.0000000   2.0000000   2.0000000   2.0000000
           49          50          51          52          53          54
    1   2.0000000   2.0000000   2.0000000   2.0000000   2.0000000   2.0000000
           55          56          57          58          59          60
    1   2.0000000   2.0000000   2.0000000   2.0000000   2.0000000   2.0000000
           61          62          63          64          65          66
    1   2.0000000   1.9981304   1.9977003   1.9960050   1.9955441   1.9919493
           67          68          69          70          71          72
    1   1.9892534   1.9797739   1.9310213   1.7505983   1.5877816   1.1277168
           73          74          75          76          77          78
    1   1.0717893   0.2680248   0.1896854   0.0610966   0.0305279   0.0101433
           79          80          81          82          83          84
    1   0.0086792   0.0051198   0.0033798   0.0015119   0.0008157   0.0004122
           85          86          87          88          89          90
    1   0.0003615   0.0003327   0.0002995   0.0002188   0.0002153   0.0001851
           91          92          93          94          95          96
    1   0.0001723   0.0001517   0.0001298   0.0001260   0.0001063   0.0000974
           97          98          99         100         101         102
    1   0.0000926   0.0000857   0.0000765   0.0000715   0.0000607   0.0000551
          103         104         105         106         107         108
    1   0.0000511   0.0000496   0.0000451   0.0000414   0.0000376   0.0000332
          109         110         111         112         113         114
    1   0.0000318   0.0000296   0.0000285   0.0000233   0.0000214   0.0000175
          115         116         117
    1   0.0000155   0.0000121   0.0000105

 Head-Gordon Nu:    3.17
 Head-Gordon Nu_nl: 2.95

  Amplitudes : 
  
 | HOLE  | ALPHA    | BETA     | PART  |    AMPLITUDE 
--------------------------------------------------
 |       | 11111000 | 11010000 |       |    -1.0804771449290E-01
 |       | 11111000 | 10101000 |       |     5.6065230569191E-01
 |       | 11111000 | 01110000 |       |     3.9607087659663E-01
 |       | 11110001 | 11100000 |       |     3.9231114660547E-01
 |       | 11101100 | 11100000 |       |    -2.9412338235517E-01
 |       | 11101010 | 11100000 |       |     1.3169411402661E-01
 |       | 11110000 | 11100000 |  77   |     2.1362848945995E-01
 |       | 11110000 | 10110000 |  77   |     1.0170591799476E-01
--------------------------------------------------
*** Contributions RASCI wfn    Active:  82.06
                                 Hole:   5.86
                                 Part:  12.08

      Mulliken population analysis 
 ---------------------------------------------------
   Atom    Charge (a.u.)   Spin (a.u.)  
 ---------------------------------------------------
   1  C    0.054117        0.039309 
   2  C    0.024502        0.204921 
   3  C   -0.066335        0.068872 
   4  C   -0.037368        0.057155 
   5  C   -0.066336        0.068881 
   6  C    0.024493        0.204914 
   7  C    0.040028        0.138755 
   8  C   -0.064380        0.068911 
   9  H    0.003035        0.001015 
  10  C   -0.063677        0.064528 
  11  C    0.071338        0.025296 
  12  C   -0.063642        0.064529 
  13  C   -0.064376        0.068918 
  14  C    0.040057        0.138761 
  15  H    0.003036        0.001015 
  16  C    0.034251        0.117361 
  17  C   -0.013260        0.025944 
  18  C    0.036197        0.152343 
  19  C   -0.055157        0.040183 
  20  C    0.023506        0.104304 
  21  C   -0.055120        0.040180 
  22  C    0.036177        0.152357 
  23  C   -0.013249        0.025941 
  24  C    0.034239        0.117368 
  25  H    0.010288        0.001503 
  26  H    0.010289        0.001503 
  27  H    0.024617        0.000182 
  28  H    0.010421        0.000795 
  29  H    0.023808        0.000269 
  30  H    0.010586        0.001079 
  31  H    0.003098        0.000763 
  32  H    0.010419        0.000796 
  33  H    0.010586        0.001079 
  34  H    0.023810        0.000269 
 ---------------------------------------------------
   Sum:   -0.000000        2.000000 
 ---------------------------------------------------
 
*** Unpaired Electrons
 Yamaguchi Nd:         4.36
  
**************************************************
 RAS-CI total energy for state   9:   -840.101826173105
  Excitation energy (eV) =  4.116023703488
  State symmetry: A1  (C1       )
  <S^2>      :  2.0000
  Dipole Moment:    0.0001 X     0.1264 Y     0.0009 Z
  Trans. Moment:    0.0001 X     0.3113 Y     0.0003 Z
  Strength   :  0.009772
  Natural transition orbitals ( 1 -> 9 ):
   e-/hole pair  1 alpha:  ampl =  0.599160 ( 35.9%)   [8 : 9]
   e-/hole pair  2 alpha:  ampl =  0.395469 ( 15.6%)   [7 : 10]
   e-/hole pair  1 beta :  ampl =  0.475423 ( 22.6%)   [8 : 9]
   e-/hole pair  2 beta :  ampl =  0.238112 (  5.7%)   [7 : 10]
   Sum of square amplitudes: 0.81

 NATURAL OCCUPATION NUMBERS (higher than 1.0E-05)
            1           2           3           4           5           6
    1   2.0000000   2.0000000   2.0000000   2.0000000   2.0000000   2.0000000
            7           8           9          10          11          12
    1   2.0000000   2.0000000   2.0000000   2.0000000   2.0000000   2.0000000
           13          14          15          16          17          18
    1   2.0000000   2.0000000   2.0000000   2.0000000   2.0000000   2.0000000
           19          20          21          22          23          24
    1   2.0000000   2.0000000   2.0000000   2.0000000   2.0000000   2.0000000
           25          26          27          28          29          30
    1   2.0000000   2.0000000   2.0000000   2.0000000   2.0000000   2.0000000
           31          32          33          34          35          36
    1   2.0000000   2.0000000   2.0000000   2.0000000   2.0000000   2.0000000
           37          38          39          40          41          42
    1   2.0000000   2.0000000   2.0000000   2.0000000   2.0000000   2.0000000
           43          44          45          46          47          48
    1   2.0000000   2.0000000   2.0000000   2.0000000   2.0000000   2.0000000
           49          50          51          52          53          54
    1   2.0000000   2.0000000   2.0000000   2.0000000   2.0000000   2.0000000
           55          56          57          58          59          60
    1   2.0000000   2.0000000   2.0000000   2.0000000   2.0000000   2.0000000
           61          62          63          64          65          66
    1   2.0000000   1.9979179   1.9970244   1.9967217   1.9949210   1.9926941
           67          68          69          70          71          72
    1   1.9884902   1.9790743   1.9423071   1.8642179   1.6912334   0.8902719
           73          74          75          76          77          78
    1   0.8510260   0.4791362   0.2348688   0.0494205   0.0201497   0.0099328
           79          80          81          82          83          84
    1   0.0059397   0.0058194   0.0020771   0.0019455   0.0009537   0.0003912
           85          86          87          88          89          90
    1   0.0003517   0.0003229   0.0002989   0.0002442   0.0002379   0.0001973
           91          92          93          94          95          96
    1   0.0001639   0.0001632   0.0001495   0.0001163   0.0001145   0.0001076
           97          98          99         100         101         102
    1   0.0001031   0.0000935   0.0000790   0.0000728   0.0000656   0.0000609
          103         104         105         106         107         108
    1   0.0000545   0.0000515   0.0000504   0.0000449   0.0000410   0.0000383
          109         110         111         112         113         114
    1   0.0000357   0.0000302   0.0000268   0.0000257   0.0000169   0.0000153
          115         116         117
    1   0.0000122   0.0000119   0.0000115

 Head-Gordon Nu:    3.11
 Head-Gordon Nu_nl: 3.00

  Amplitudes : 
  
 | HOLE  | ALPHA    | BETA     | PART  |    AMPLITUDE 
--------------------------------------------------
 |       | 11111000 | 11001000 |       |     2.2100274693935E-01
 |       | 11111000 | 10110000 |       |     4.6496365931550E-01
 |       | 11110100 | 11100000 |       |    -3.2364081517056E-01
 |       | 11110010 | 11100000 |       |    -1.9844503470834E-01
 |       | 11101001 | 11100000 |       |     5.6571906639392E-01
 |  68   | 11111000 | 11110000 |       |     1.0016801998271E-01
 |       | 11101000 | 11100000 |  77   |    -1.8076286081825E-01
--------------------------------------------------
*** Contributions RASCI wfn    Active:  82.84
                                 Hole:   6.89
                                 Part:  10.28

      Mulliken population analysis 
 ---------------------------------------------------
   Atom    Charge (a.u.)   Spin (a.u.)  
 ---------------------------------------------------
   1  C   -0.006128        0.023495 
   2  C    0.045215        0.078911 
   3  C   -0.084325        0.025700 
   4  C   -0.028864        0.026736 
   5  C   -0.084323        0.025698 
   6  C    0.045207        0.078913 
   7  C    0.065439        0.117340 
   8  C   -0.053563        0.019774 
   9  H    0.003205        0.000899 
  10  C   -0.085419        0.089590 
  11  C    0.083981        0.049213 
  12  C   -0.085369        0.089588 
  13  C   -0.053559        0.019774 
  14  C    0.065458        0.117343 
  15  H    0.003206        0.000899 
  16  C    0.037034        0.208561 
  17  C   -0.032380        0.049841 
  18  C    0.077673        0.147213 
  19  C   -0.111290        0.104738 
  20  C    0.089192        0.206378 
  21  C   -0.111255        0.104742 
  22  C    0.077643        0.147213 
  23  C   -0.032372        0.049847 
  24  C    0.037013        0.208563 
  25  H    0.010563        0.000549 
  26  H    0.010565        0.000549 
  27  H    0.024046        0.000271 
  28  H    0.010302        0.001630 
  29  H    0.023641        0.000434 
  30  H    0.010952        0.001025 
  31  H    0.003620        0.001481 
  32  H    0.010300        0.001630 
  33  H    0.010952        0.001025 
  34  H    0.023643        0.000434 
 ---------------------------------------------------
   Sum:   -0.000000        2.000000 
 ---------------------------------------------------
 
*** Unpaired Electrons
 Yamaguchi Nd:         4.30
  
**************************************************
 RAS-CI total energy for state  10:   -840.097572047697
  Excitation energy (eV) =  4.231784345569
  State symmetry: A1  (C1       )
  <S^2>      :  2.0000
  Dipole Moment:   -0.0000 X    -0.0914 Y     0.0009 Z
  Trans. Moment:   -0.0697 X     0.0000 Y     0.0000 Z
  Strength   :  0.000503
  Natural transition orbitals ( 1 -> 10 ):
   e-/hole pair  1 alpha:  ampl =  0.565581 ( 32.0%)   [8 : 9]
   e-/hole pair  2 alpha:  ampl =  0.091920 (  0.8%)   [7 : 10]
   e-/hole pair  1 beta :  ampl =  0.686493 ( 47.1%)   [8 : 9]
   e-/hole pair  2 beta :  ampl =  0.167910 (  2.8%)   [7 : 10]
   Sum of square amplitudes: 0.84

 NATURAL OCCUPATION NUMBERS (higher than 1.0E-05)
            1           2           3           4           5           6
    1   2.0000000   2.0000000   2.0000000   2.0000000   2.0000000   2.0000000
            7           8           9          10          11          12
    1   2.0000000   2.0000000   2.0000000   2.0000000   2.0000000   2.0000000
           13          14          15          16          17          18
    1   2.0000000   2.0000000   2.0000000   2.0000000   2.0000000   2.0000000
           19          20          21          22          23          24
    1   2.0000000   2.0000000   2.0000000   2.0000000   2.0000000   2.0000000
           25          26          27          28          29          30
    1   2.0000000   2.0000000   2.0000000   2.0000000   2.0000000   2.0000000
           31          32          33          34          35          36
    1   2.0000000   2.0000000   2.0000000   2.0000000   2.0000000   2.0000000
           37          38          39          40          41          42
    1   2.0000000   2.0000000   2.0000000   2.0000000   2.0000000   2.0000000
           43          44          45          46          47          48
    1   2.0000000   2.0000000   2.0000000   2.0000000   2.0000000   2.0000000
           49          50          51          52          53          54
    1   2.0000000   2.0000000   2.0000000   2.0000000   2.0000000   2.0000000
[...]
 Reading 1e-SO integrals
 1e Reduced matrix elements (cm-1)
<S|| Hso(L-) ||S'> =    -0.0008640122     0.0000253622i
<S|| Hso(L0) ||S'> =     0.0000000000     0.7067168736i
<S|| Hso(L+) ||S'> =    -0.0008640122    -0.0000253622i
 1-elec SOC matrix (cm-1): < B(S,Sz) | Hso(1e) | A(S',Sz') >
                       |Sz'=-1.00>                |Sz'= 0.00>                |Sz'= 1.00>
 <Sz=-1.00|      0.000000     -0.499724i      -0.000611     -0.000018i      -0.000000      0.000000i
 <Sz= 0.00|      0.000611     -0.000018i       0.000000      0.000000i      -0.000611     -0.000018i
 <Sz= 1.00|     -0.000000      0.000000i       0.000611     -0.000018i       0.000000      0.499724i
1-elec SOCC =     0.706717931 cm-1
 Reading 2e-SOMF integrals
 2e-SOMF Reduced matrix elements (cm-1)
<S|| Hso(L-) ||S'> =     0.0005889453    -0.0000080502i
<S|| Hso(L0) ||S'> =     0.0000000000    -0.7424467257i
<S|| Hso(L+) ||S'> =     0.0005889453     0.0000080502i
 2-elec mean-field SOC matrix (cm-1): < B(S,Sz) | Hso(2e-mf) | A(S',Sz') >
                       |Sz'=-1.00>                |Sz'= 0.00>                |Sz'= 1.00>
 <Sz=-1.00|     -0.000000      0.524989i       0.000416      0.000006i       0.000000     -0.000000i
 <Sz= 0.00|     -0.000416      0.000006i      -0.000000     -0.000000i       0.000416      0.000006i
 <Sz= 1.00|      0.000000     -0.000000i      -0.000416      0.000006i      -0.000000     -0.524989i
 Total mean-field SOC matrix (cm-1): < B(S,Sz) | Hsomf | A(S',Sz') >
                       |Sz'=-1.00>                |Sz'= 0.00>                |Sz'= 1.00>
 <Sz=-1.00|      0.000000      0.025265i      -0.000195     -0.000012i      -0.000000     -0.000000i
 <Sz= 0.00|      0.000195     -0.000012i       0.000000     -0.000000i      -0.000195     -0.000012i
 <Sz= 1.00|     -0.000000     -0.000000i       0.000195     -0.000012i       0.000000     -0.025265i
Mean-Field SOCC =     0.035731978 cm-1
   
**************************************************
State A: Root 20
State B: Root 18
  
Angular momentum components (a.u.)
< B | Lx | A > =     0.000090233i
< B | Ly | A > =    -0.000001773i
< B | Lz | A > =    -0.000009839i
  
Norm of one-particle transition density matrix
||gamma^AB||_total       =  0.346244
||gamma^AB||_symmetrized =  0.315393
||gamma^AB||_anti-symm   =  0.142871
  
Spin-orbit couplings
 Using HF (reference) density for the 2-elec mean-field SOC contribution
KET: S',Sz' (Root  20) =  1.000 1.000
BRA: S ,Sz  (Root  18) =  1.000 1.000
Clebsh-Gordan coefficient: < 1.000, 1.000; 1.000, 0.000| 1.000, 1.000> =  0.707
 Reading 1e-SO integrals
 1e Reduced matrix elements (cm-1)
<S|| Hso(L-) ||S'> =    -0.0000061643     0.0004441400i
<S|| Hso(L0) ||S'> =     0.0000000000    -0.0000251796i
<S|| Hso(L+) ||S'> =    -0.0000061643    -0.0004441400i
 1-elec SOC matrix (cm-1): < B(S,Sz) | Hso(1e) | A(S',Sz') >
                       |Sz'=-1.00>                |Sz'= 0.00>                |Sz'= 1.00>
 <Sz=-1.00|      0.000000      0.000018i      -0.000004     -0.000314i      -0.000000     -0.000000i
 <Sz= 0.00|      0.000004     -0.000314i       0.000000      0.000000i      -0.000004     -0.000314i
 <Sz= 1.00|     -0.000000      0.000000i       0.000004     -0.000314i       0.000000     -0.000018i
1-elec SOCC =     0.000628674 cm-1
 Reading 2e-SOMF integrals
 2e-SOMF Reduced matrix elements (cm-1)
<S|| Hso(L-) ||S'> =     0.0000035759    -0.0001983677i
<S|| Hso(L0) ||S'> =     0.0000000000     0.0000250242i
<S|| Hso(L+) ||S'> =     0.0000035759     0.0001983677i
 2-elec mean-field SOC matrix (cm-1): < B(S,Sz) | Hso(2e-mf) | A(S',Sz') >
                       |Sz'=-1.00>                |Sz'= 0.00>                |Sz'= 1.00>
 <Sz=-1.00|     -0.000000     -0.000018i       0.000003      0.000140i       0.000000      0.000000i
 <Sz= 0.00|     -0.000003      0.000140i      -0.000000     -0.000000i       0.000003      0.000140i
 <Sz= 1.00|      0.000000     -0.000000i      -0.000003      0.000140i      -0.000000      0.000018i
 Total mean-field SOC matrix (cm-1): < B(S,Sz) | Hsomf | A(S',Sz') >
                       |Sz'=-1.00>                |Sz'= 0.00>                |Sz'= 1.00>
 <Sz=-1.00|      0.000000      0.000000i      -0.000002     -0.000174i      -0.000000     -0.000000i
 <Sz= 0.00|      0.000002     -0.000174i       0.000000      0.000000i      -0.000002     -0.000174i
 <Sz= 1.00|     -0.000000      0.000000i       0.000002     -0.000174i       0.000000     -0.000000i
Mean-Field SOCC =     0.000347594 cm-1
   
**************************************************
State A: Root 20
State B: Root 19
  
Angular momentum components (a.u.)
< B | Lx | A > =    -0.000002532i
< B | Ly | A > =     0.000094930i
< B | Lz | A > =     0.436337358i
  
Norm of one-particle transition density matrix
||gamma^AB||_total       =  0.393762
||gamma^AB||_symmetrized =  0.211552
||gamma^AB||_anti-symm   =  0.332105
  
Spin-orbit couplings
 Using HF (reference) density for the 2-elec mean-field SOC contribution
KET: S',Sz' (Root  20) =  1.000 1.000
BRA: S ,Sz  (Root  19) =  1.000 1.000
Clebsh-Gordan coefficient: < 1.000, 1.000; 1.000, 0.000| 1.000, 1.000> =  0.707
 Reading 1e-SO integrals
 1e Reduced matrix elements (cm-1)
<S|| Hso(L-) ||S'> =     0.0021162884    -0.0000503569i
<S|| Hso(L0) ||S'> =     0.0000000000     0.4590644684i
<S|| Hso(L+) ||S'> =     0.0021162884     0.0000503569i
 1-elec SOC matrix (cm-1): < B(S,Sz) | Hso(1e) | A(S',Sz') >
                       |Sz'=-1.00>                |Sz'= 0.00>                |Sz'= 1.00>
 <Sz=-1.00|     -0.000000     -0.324608i       0.001496      0.000036i       0.000000      0.000000i
 <Sz= 0.00|     -0.001496      0.000036i      -0.000000      0.000000i       0.001496      0.000036i
 <Sz= 1.00|      0.000000      0.000000i      -0.001496      0.000036i      -0.000000      0.324608i
1-elec SOCC =     0.459074230 cm-1
 Reading 2e-SOMF integrals
 2e-SOMF Reduced matrix elements (cm-1)
<S|| Hso(L-) ||S'> =    -0.0007782017     0.0000169415i
<S|| Hso(L0) ||S'> =     0.0000000000    -0.4524056315i
<S|| Hso(L+) ||S'> =    -0.0007782017    -0.0000169415i
 2-elec mean-field SOC matrix (cm-1): < B(S,Sz) | Hso(2e-mf) | A(S',Sz') >
                       |Sz'=-1.00>                |Sz'= 0.00>                |Sz'= 1.00>
 <Sz=-1.00|      0.000000      0.319899i      -0.000550     -0.000012i      -0.000000     -0.000000i
 <Sz= 0.00|      0.000550     -0.000012i       0.000000     -0.000000i      -0.000550     -0.000012i
 <Sz= 1.00|     -0.000000     -0.000000i       0.000550     -0.000012i       0.000000     -0.319899i
 Total mean-field SOC matrix (cm-1): < B(S,Sz) | Hsomf | A(S',Sz') >
                       |Sz'=-1.00>                |Sz'= 0.00>                |Sz'= 1.00>
 <Sz=-1.00|     -0.000000     -0.004709i       0.000946      0.000024i       0.000000      0.000000i
 <Sz= 0.00|     -0.000946      0.000024i      -0.000000      0.000000i       0.000946      0.000024i
 <Sz= 1.00|      0.000000      0.000000i      -0.000946      0.000024i      -0.000000      0.004709i
Mean-Field SOCC =     0.006922665 cm-1
   
**************************************************
RAS-CI timing summary (seconds)
  CPU time      43690.68s
  System time       2.19s
  Wall time     50877.15s
Detailed CPU timing summary
     Fock matrix         :        20.9803 s
     Integrals           :       132.3154 s
     Addressing matrices :         0.0001 s
     Guesses             :         0.2315 s
     Iterations          :     39300.8268 s
     Properties          :      4236.3190 s
     RAS-CI(2) correction:         0.0000 s
  
 
 --------------------------------------------------------------
 
                    Orbital Energies (a.u.)
 --------------------------------------------------------------
 
 Alpha MOs
 -- Occupied --
-11.2506 -11.2504 -11.2504 -11.2503 -11.2503 -11.2502 -11.2501 -11.2473
-11.2473 -11.2470 -11.2445 -11.2446 -11.2445 -11.2463 -11.2462 -11.2462
-11.2448 -11.2448 -11.2448 -11.2434 -11.2433 -11.2433  -1.2184  -1.1706
 -1.1706  -1.1018  -1.1027  -1.1026  -1.0280  -1.0196  -1.0195  -1.0151
 -0.9273  -0.9273  -0.8644  -0.8624  -0.8624  -0.8227  -0.7612  -0.7552
 -0.7551  -0.7177  -0.7177  -0.6622  -0.6621  -0.6492  -0.6357  -0.6357
 -0.6241  -0.6004  -0.5864  -0.5864  -0.5744  -0.5836  -0.5572  -0.5572
 -0.5364  -0.5194  -0.5194  -0.5277  -0.5277  -0.5074  -0.4659  -0.4658
 -0.4413  -0.4478  -0.4478  -0.3396  -0.3395  -0.3535  -0.3408  -0.2153
 -0.2154
 -- Virtual --
  0.0818   0.1063   0.1065   0.1022   0.1808   0.1895   0.1895   0.2059
  0.2059   0.2224   0.2199   0.2180   0.2181   0.2321   0.2496   0.2496
  0.2892   0.2893   0.2988   0.3524   0.3525   0.3798   0.3798   0.4089
  0.4262   0.4262   0.4455   0.4525   0.4527   0.4627   0.4725   0.4785
  0.4791   0.4915   0.4915   0.5168   0.5168   0.5880   0.5881   0.6130
  0.6292   0.6471   0.6472   0.6514   0.6547   0.6548   0.6644   0.6662
  0.6662   0.6803   0.6803   0.6886   0.6886   0.7005   0.6963   0.6963
  0.7051   0.7158   0.7172   0.7203   0.7205   0.7366   0.7390   0.7452
  0.7452   0.7529   0.7530   0.7511   0.7569   0.7592   0.7592   0.7702
  0.7748   0.7750   0.8015   0.8143   0.8143   0.8224   0.8225   0.8227
  0.8227   0.8558   0.8772   0.8915   0.8916   0.9024   0.9121   0.9122
  0.9228   0.9236   0.9229   0.9230   0.9302   0.9389   0.9519   0.9520
  1.0122   1.0122   1.0199   1.0201   1.0462   1.0462   1.0775   1.0775
  1.0870   1.0939   1.0939   1.0971   1.1200   1.1345   1.1354   1.1354
  1.1368   1.1389   1.1389   1.1593   1.1799   1.1799   1.1860   1.1926
  1.1927   1.1927   1.2007   1.2007   1.2049   1.2129   1.2287   1.2288
  1.2320   1.2393   1.2393   1.2547   1.2912   1.2913   1.2888   1.2950
  1.2934   1.2934   1.3283   1.3284   1.3449   1.3450   1.3565   1.3792
  1.3793   1.4188   1.4189   1.4551   1.4625   1.5684   1.5685   1.6067
  1.6162   1.6163   1.6164   1.6183   1.6185   1.6365   1.6366   1.6576
  1.6620   1.6620   1.6635   1.6935   1.6937   1.6954   1.7230   1.7447
  1.7448   1.7454   1.7471   1.7472   1.7595   1.7689   1.7983   1.7984
  1.8064   1.8538   1.8540   1.8607   1.8608   1.8662   1.8663   1.8781
  1.8782   1.8810   1.8939   1.9126   1.9270   1.9271   1.9341   1.9341
  1.9594   1.9596   1.9634   1.9709   1.9777   1.9778   1.9802   2.0011
  2.0073   2.0074   2.0063   2.0354   2.0355   2.0516   2.0526   2.0540
  2.0609   2.0610   2.0765   2.0767   2.0777   2.0779   2.1123   2.1205
  2.1240   2.1241   2.1551   2.1547   2.1546   2.1654   2.1655   2.1752
  2.1918   2.1920   2.2111   2.2111   2.2231   2.2457   2.2458   2.2669
  2.2797   2.2827   2.3171   2.3172   2.3431   2.3432   2.3462   2.3741
  2.3742   2.3973   2.3974   2.4168   2.4657   2.5137   2.5137   2.5168
  2.5169   2.5304   2.5345   2.5365   2.5366   2.5378   2.5458   2.5658
  2.5661   2.6158   2.6159   2.6458   2.7067   2.7329   2.7329   2.7505
  2.7507   2.7670   2.8001   2.8002   2.8759   2.8803   2.8805   2.9139
  2.9476   2.9479   2.9699   3.0193   3.0195   3.0633   3.0634   3.0659
  3.1092   3.1451   3.1452   3.2185   3.2187   3.2239   3.2418   3.2418
  3.2685   3.5473   3.7211   3.7211   3.8839   3.9460   3.9463
 
 Beta MOs
 -- Occupied --
-11.2504 -11.2503 -11.2503 -11.2503 -11.2502 -11.2502 -11.2500 -11.2464
-11.2464 -11.2462 -11.2433 -11.2432 -11.2433 -11.2422 -11.2421 -11.2421
-11.2413 -11.2413 -11.2413 -11.2411 -11.2411 -11.2411  -1.2119  -1.1616
 -1.1615  -1.0933  -1.0908  -1.0907  -1.0167  -1.0126  -1.0125  -1.0031
 -0.9090  -0.9090  -0.8579  -0.8575  -0.8574  -0.8136  -0.7551  -0.7484
 -0.7484  -0.7138  -0.7138  -0.6569  -0.6568  -0.6450  -0.6317  -0.6316
 -0.6209  -0.5959  -0.5829  -0.5829  -0.5693  -0.5638  -0.5527  -0.5527
 -0.5334  -0.5159  -0.5159  -0.4980  -0.4978  -0.5033  -0.4629  -0.4628
 -0.4131  -0.4024  -0.4023  -0.3146  -0.3144  -0.2925  -0.2820
 -- Virtual --
  0.0124   0.0125   0.1301   0.1268   0.1269   0.1571   0.1822   0.1907
  0.1907   0.2073   0.2073   0.2236   0.2449   0.2544   0.2544   0.2337
  0.2508   0.2508   0.2917   0.2917   0.3012   0.3737   0.3738   0.3816
  0.3816   0.4105   0.4309   0.4309   0.4492   0.4547   0.4549   0.4652
  0.4839   0.4827   0.4820   0.4943   0.4944   0.5193   0.5193   0.5921
  0.5921   0.6182   0.6403   0.6577   0.6577   0.6653   0.6609   0.6609
  0.6670   0.6829   0.6828   0.6878   0.6879   0.6920   0.6920   0.7053
  0.7155   0.7155   0.7134   0.7191   0.7214   0.7265   0.7266   0.7463
  0.7603   0.7518   0.7518   0.7572   0.7573   0.7701   0.7603   0.7688
  0.7688   0.7797   0.7788   0.7789   0.8034   0.8293   0.8293   0.8269
  0.8269   0.8340   0.8340   0.8654   0.8791   0.8939   0.8940   0.9126
  0.9150   0.9151   0.9251   0.9284   0.9331   0.9331   0.9342   0.9424
  0.9550   0.9551   1.0168   1.0168   1.0261   1.0262   1.0538   1.0539
  1.0821   1.0821   1.0901   1.0963   1.0964   1.1068   1.1223   1.1367
  1.1462   1.1462   1.1454   1.1413   1.1413   1.1670   1.1830   1.1831
  1.1904   1.1956   1.2024   1.2025   1.2049   1.2050   1.2087   1.2288
  1.2421   1.2421   1.2394   1.2424   1.2425   1.2575   1.2952   1.2951
  1.3009   1.2985   1.3033   1.3033   1.3308   1.3309   1.3543   1.3544
  1.3607   1.3828   1.3829   1.4240   1.4240   1.4582   1.4664   1.5719
  1.5719   1.6096   1.6200   1.6255   1.6254   1.6221   1.6221   1.6435
  1.6435   1.6668   1.6662   1.6662   1.6686   1.6957   1.6959   1.7009
  1.7308   1.7498   1.7498   1.7503   1.7495   1.7495   1.7615   1.7718
  1.8012   1.8013   1.8100   1.8591   1.8592   1.8630   1.8631   1.8683
  1.8684   1.8840   1.8841   1.8842   1.8984   1.9150   1.9309   1.9309
  1.9363   1.9364   1.9622   1.9624   1.9656   1.9772   1.9816   1.9817
  1.9840   2.0023   2.0116   2.0116   2.0144   2.0421   2.0421   2.0537
  2.0546   2.0592   2.0635   2.0635   2.0786   2.0788   2.0839   2.0841
  2.1157   2.1234   2.1272   2.1273   2.1578   2.1608   2.1609   2.1668
  2.1669   2.1765   2.1948   2.1950   2.2122   2.2122   2.2271   2.2524
  2.2524   2.2735   2.2817   2.2901   2.3202   2.3202   2.3452   2.3453
  2.3484   2.3794   2.3795   2.4046   2.4047   2.4214   2.4689   2.5196
  2.5196   2.5205   2.5205   2.5365   2.5378   2.5387   2.5388   2.5408
  2.5511   2.5674   2.5677   2.6187   2.6188   2.6493   2.7079   2.7346
  2.7347   2.7551   2.7553   2.7684   2.8019   2.8020   2.8777   2.8827
  2.8828   2.9161   2.9498   2.9501   2.9718   3.0215   3.0217   3.0647
  3.0648   3.0678   3.1107   3.1470   3.1471   3.2203   3.2205   3.2259
  3.2435   3.2435   3.2701   3.5491   3.7227   3.7227   3.8859   3.9475
  3.9478
 --------------------------------------------------------------
 
          Ground-State Mulliken Net Atomic Charges

     Atom                 Charge (a.u.)
  ----------------------------------------
      1 C                     0.019382
      2 C                     0.021137
      3 C                    -0.081005
      4 C                    -0.041673
      5 C                    -0.081006
      6 C                     0.021129
      7 C                     0.064650
      8 C                    -0.081625
      9 H                     0.003267
     10 C                    -0.041028
     11 C                     0.087675
     12 C                    -0.040983
     13 C                    -0.081622
     14 C                     0.064674
     15 H                     0.003268
     16 C                     0.021057
     17 C                     0.019719
     18 C                     0.020403
     19 C                    -0.080749
     20 C                     0.064210
     21 C                    -0.080713
     22 C                     0.020376
     23 C                     0.019732
     24 C                     0.021039
     25 H                     0.010349
     26 H                     0.010350
     27 H                     0.024390
     28 H                     0.010341
     29 H                     0.024184
     30 H                     0.010533
     31 H                     0.003483
     32 H                     0.010339
     33 H                     0.010533
     34 H                     0.024186
  ----------------------------------------
  Sum of atomic charges =     0.000000

 -----------------------------------------------------------------
                    Cartesian Multipole Moments
 -----------------------------------------------------------------
    Charge (ESU x 10^10)
                 0.0000
    Dipole Moment (Debye)
         X      -0.0000      Y       0.0001      Z      -0.0022
       Tot       0.0022
    Quadrupole Moments (Debye-Ang)
        XX    -108.1226     XY      -0.0000     YY    -108.1300
        XZ       0.0000     YZ      -0.0018     ZZ    -137.2434
    Octopole Moments (Debye-Ang^2)
       XXX      -0.0011    XXY      -0.9260    XYY       0.0010
       YYY       0.9625    XXZ       0.0342    XYZ      -0.0019
       YYZ      -0.1208    XZZ       0.0000    YZZ      -0.0017
       ZZZ      -0.0029
    Hexadecapole Moments (Debye-Ang^3)
      XXXX   -3431.1378   XXXY      -0.0001   XXYY   -1143.6202
      XYYY      -0.0002   YYYY   -3430.8460   XXXZ      -0.0025
      XXYZ      -0.0749   XYYZ      -0.0004   YYYZ       0.1636
      XXZZ    -749.4762   XYZZ      -0.0000   YYZZ    -749.3841
      XZZZ      -0.0000   YZZZ      -0.0008   ZZZZ    -158.1439
 -----------------------------------------------------------------
 Total job time:  51317.49s(wall), 44123.40s(cpu) 
 Thu Apr  4 06:49:18 2024

======= MOLDEN-FORMATTED INPUT FILE FOLLOWS =======
[Molden Format]
[Atoms] (Angs)
  C      1    6     -0.00163452     -4.22459841     -0.00216471
  C      2    6     -1.20567537     -3.54068992     -0.00119022
  C      3    6     -1.23515529     -2.12679554      0.00044974
  C      4    6     -0.00054771     -1.41572292      0.00025218
  C      5    6      1.23350949     -2.12775020      0.00051431
  C      6    6      1.20293487     -3.54162180     -0.00111662
  C      7    6     -2.43820131     -1.40640422      0.00128368
  C      8    6     -2.45924845     -0.00407650      0.00143124
  H      9    1     -3.37760539     -1.94739145      0.00158001
  C     10    6     -1.22632653      0.70851766      0.00039605
  C     11    6     -0.00000008     -0.00031235      0.00040075
  C     12    6      1.22687436      0.70756871      0.00039447
  C     13    6      2.45924464     -0.00597892      0.00147002
  C     14    6      2.43711216     -1.40829001      0.00136542
  H     15    1      3.37609747     -1.95000371      0.00169039
  C     16    6     -3.66884938      0.72918866      0.00147803
  C     17    6     -3.65813742      2.11359030      0.00004145
  C     18    6     -2.46355461      2.81432719     -0.00110404
  C     19    6     -1.22455617      2.13272646     -0.00082370
  C     20    6      0.00108897      2.81462310     -0.00147331
  C     21    6      1.22620601      2.13177849     -0.00085162
  C     22    6      2.46573175      2.81242019     -0.00117871
  C     23    6      3.65977193      2.11075932     -0.00002191
  C     24    6      3.66941263      0.72634977      0.00147821
  H     25    1     -2.14360372     -4.08177924     -0.00170318
  H     26    1      2.14044398     -4.08343699     -0.00156922
  H     27    1     -0.00205334     -5.30744510     -0.00398033
  H     28    1     -4.60696501      0.18841636      0.00251575
  H     29    1     -4.59528024      2.65526535     -0.00016329
  H     30    1     -2.46377008      3.89752682     -0.00216033
  H     31    1      0.00150810      3.89901424     -0.00237546
  H     32    1      4.60710944      0.18485169      0.00252971
  H     33    1      2.46678488      3.89561925     -0.00227273
  H     34    1      4.59733415      2.65170835     -0.00027568

======= END OF MOLDEN-FORMATTED INPUT FILE =======


        *************************************************************
        *                                                           *
        *  Thank you very much for using Q-Chem.  Have a nice day.  *
        *                                                           *
        *************************************************************


