                  Welcome to Q-Chem
     A Quantum Leap Into The Future Of Chemistry


 Q-Chem 6.0 (devel), Q-Chem, Inc., Pleasanton, CA (2022)

 E. Epifanovsky,  A. T. B. Gilbert,  Xintian Feng,  Joonho Lee,  Yuezhi Mao,  
 N. Mardirossian,  P. Pokhilko,  A. White,  M. Wormit,  M. P. Coons,  
 A. L. Dempwolff,  Zhengting Gan,  D. Hait,  P. R. Horn,  L. D. Jacobson,  
 I. Kaliman,  J. Kussmann,  A. W. Lange,  Ka Un Lao,  D. S. Levine,  Jie Liu,  
 S. C. McKenzie,  A. F. Morrison,  K. Nanda,  F. Plasser,  D. R. Rehn,  
 M. L. Vidal,  Zhi-Qiang You,  Ying Zhu,  B. Alam,  B. Albrecht,  
 A. Aldossary,  E. Alguire,  J. H. Andersen,  V. Athavale,  D. Barton,  
 K. Begam,  A. Behn,  N. Bellonzi,  Y. A. Bernard,  E. J. Berquist,  
 H. Burton,  A. Carreras,  K. Carter-Fenk,  Romit Chakraborty,  
 Chandrima Chakravarty,  Junhan Chen,  A. D. Chien,  K. D. Closser,  
 V. Cofer-Shabica,  L. Cunha,  S. Dasgupta,  Jia Deng,  M. de Wergifosse,  
 M. Diedenhofen,  Hainam Do,  S. Ehlert,  Po-Tung Fang,  S. Fatehi,  
 Qingguo Feng,  T. Friedhoff,  B. Ganoe,  J. Gayvert,  Qinghui Ge,  
 G. Gidofalvi,  M. Goldey,  J. Gomes,  C. Gonzalez-Espinoza,  S. Gulania,  
 A. Gunina,  J. A. Gyamfi,  M. W. D. Hanson-Heine,  P. H. P. Harbach,  
 A. W. Hauser,  M. F. Herbst,  M. Hernandez Vera,  M. Hodecker,  
 Z. C. Holden,  S. Houck,  Xunkun Huang,  Kerwin Hui,  B. C. Huynh,  
 K. Ikeda,  M. Ivanov,  Hyunjun Ji,  Zuxin Jin,  Hanjie Jiang,  B. Kaduk,  
 S. Kaehler,  R. Kang,  K. Khistyaev,  Jaehoon Kim,  Yongbin Kim,  
 P. Klunzinger,  Z. Koczor-Benda,  Joong Hoon Koh,  D. Kosenkov,  
 Saikiran Kotaru,  L. Koulias,  T. Kowalczyk,  C. M. Krauter,  K. Kue,  
 A. Kunitsa,  T. Kus,  A. Landau,  K. V. Lawler,  D. Lefrancois,  S. Lehtola,  
 Rain Li,  Shaozhi Li,  Yi-Pei Li,  Jiashu Liang,  M. Liebenthal,  
 Hung-Hsuan Lin,  You-Sheng Lin,  Fenglai Liu,  Kuan-Yu Liu,  
 M. Loipersberger,  A. Luenser,  C. Malbon,  A. Manjanath,  P. Manohar,  
 E. Mansoor,  S. F. Manzer,  Shan-Ping Mao,  A. V. Marenich,  T. Markovich,  
 S. Mason,  F. Matz,  S. A. Maurer,  P. F. McLaughlin,  M. F. S. J. Menger,  
 J.-M. Mewes,  S. A. Mewes,  P. Morgante,  Mohammad Mostafanejad,  
 J. W. Mullinax,  K. J. Oosterbaan,  G. Paran,  V. Parravicini,  
 Alexander C. Paul,  Suranjan K. Paul,  F. Pavosevic,  Zheng Pei,  S. Prager,  
 E. I. Proynov,  E. Ramos,  B. Rana,  A. E. Rask,  A. Rettig,  R. M. Richard,  
 F. Rob,  E. Rossomme,  T. Scheele,  M. Scheurer,  M. Schneider,  
 P. E. Schneider,  N. Sergueev,  S. M. Sharada,  Hengyuan Shen,  
 W. Skomorowski,  D. W. Small,  C. J. Stein,  Yingli Su,  Yu-Chuan Su,  
 E. J. Sundstrom,  Zhen Tao,  J. Thirman,  Hung-Yi Tsai,  T. Tsuchimochi,  
 N. M. Tubman,  C. Utku,  S. P. Veccham,  O. Vydrov,  J. Wenzel,  
 Jonathan Wong,  J. Witte,  A. Yamada,  Chou-Hsun Yang,  Kun Yao,  
 S. Yeganeh,  S. R. Yost,  A. Zech,  F. Zeller,  Igor Ying Zhang,  
 Xing Zhang,  Yu Zhang,  D. Zuev,  A. Aspuru-Guzik,  A. T. Bell,  
 N. A. Besley,  K. B. Bravaya,  B. R. Brooks,  D. Casanova,  Jeng-Da Chai,  
 Hsing-Ta Chen,  S. Coriani,  C. J. Cramer,  A. E. DePrince, III,  
 R. A. DiStasio Jr.,  A. Dreuw,  B. D. Dunietz,  T. R. Furlani,  
 W. A. Goddard III,  S. Grimme,  S. Hammes-Schiffer,  T. Head-Gordon,  
 W. J. Hehre,  Chao-Ping Hsu,  T.-C. Jagau,  Yousung Jung,  A. Klamt,  
 Jing Kong,  D. S. Lambrecht,  Xiangyuan Li,  WanZhen Liang,  N. J. Mayhall,  
 C. W. McCurdy,  J. B. Neaton,  T. Neudecker,  C. Ochsenfeld,  
 J. A. Parkhill,  R. Peverati,  V. A. Rassolov,  Haisheng Ren,  Yihan Shao,  
 L. V. Slipchenko,  R. P. Steele,  J. E. Subotnik,  A. J. W. Thom,  
 A. Tkatchenko,  D. G. Truhlar,  T. Van Voorhis,  Fan Wang,  
 T. A. Wesolowski,  K. B. Whaley,  H. L. Woodcock III,  P. M. Zimmerman,  
 S. Faraji,  P. M. W. Gill,  M. Head-Gordon,  J. M. Herbert,  A. I. Krylov

 Contributors to earlier versions of Q-Chem not listed above: 
 R. D. Adamson,  B. Austin,  R. Baer,  J. Baker,  G. J. O. Beran,  
 K. Brandhorst,  S. T. Brown,  E. F. C. Byrd,  Arup K. Chakraborty,  
 G. K. L. Chan,  Chun-Min Chang,  Yunqing Chen,  C.-L. Cheng,  
 Siu Hung Chien,  D. M. Chipman,  D. L. Crittenden,  H. Dachsel,  
 R. J. Doerksen,  A. D. Dutoi,  R. G. Edgar,  J. Fosso-Tande,  
 L. Fusti-Molnar,  D. Ghosh,  A. Ghysels,  A. Golubeva-Zadorozhnaya,  
 J. Gonthier,  M. S. Gordon,  S. R. Gwaltney,  G. Hawkins,  J. E. Herr,  
 A. Heyden,  S. Hirata,  E. G. Hohenstein,  G. Kedziora,  F. J. Keil,  
 C. Kelley,  Jihan Kim,  R. A. King,  R. Z. Khaliullin,  P. P. Korambath,  
 W. Kurlancheek,  A. Laurent,  A. M. Lee,  M. S. Lee,  S. V. Levchenko,  
 Ching Yeh Lin,  D. Liotard,  E. Livshits,  R. C. Lochan,  I. Lotan,  
 L. A. Martinez-Martinez,  P. E. Maslen,  N. Nair,  D. P. O'Neill,  
 D. Neuhauser,  E. Neuscamman,  C. M. Oana,  R. Olivares-Amaya,  R. Olson,  
 T. M. Perrine,  B. Peters,  P. A. Pieniazek,  A. Prociuk,  Y. M. Rhee,  
 J. Ritchie,  M. A. Rohrdanz,  E. Rosta,  N. J. Russ,  H. F. Schaefer III,  
 M. W. Schmidt,  N. E. Schultz,  S. Sharma,  N. Shenvi,  C. D. Sherrill,  
 A. C. Simmonett,  A. Sodt,  T. Stein,  D. Stuck,  K. S. Thanthiriwatte,  
 V. Vanovschi,  L. Vogt,  Tao Wang,  A. Warshel,  M. A. Watson,  
 C. F. Williams,  Q. Wu,  X. Xu,  Jun Yang,  W. Zhang,  Yan Zhao

   Please cite Q-Chem as follows:
  "Software for the frontiers of quantum chemistry:
   An overview of developments in the Q-Chem 5 package"
   J. Chem. Phys. 155, 084801 (2021)
   https://doi.org/10.1063/5.0055522 (open access)

 Q-Chem 6.0.1 for Intel X86 EM64T Linux

 Parts of Q-Chem use Armadillo 9.900.5 (Nocturnal Misbehaviour).
 http://arma.sourceforge.net/

 Q-Chem begins on Thu Dec 22 13:36:57 2022  

 Host: atlas-184
0

     Scratch files written to ./qchem102134//
 Processing $rem in /scratch/abel/SOFTWARE/qchem/config/preferences:
 Processing $rem in /dipc/acebg/.qchemrc:

 Checking the input file for inconsistencies... 	...done.

--------------------------------------------------------------
User input:
--------------------------------------------------------------
$comment
 RAS-SF CALCULATION
$end

$molecule
 READ co2.molecule
$end

$rem
!**CALCULATION TYPE***     
JOBTYPE            sp    
EXCHANGE           HF
CORRELATION        RASCI    !RASCI=Casanova; RASCI2=Zimmerman
BASIS              GEN
PURECART           111

!***SCF REFERENCE***
SKIP_SCFMAN        FALSE
UNRESTRICTED       FALSE
!SCF_GUESS          core
!SCF_GUESS_MIX      FALSE
!SCF_GUESS_ALWAYS   FALSE
MAX_SCF_CYCLES     500
SCF_CONVERGENCE    8
!SCF_ALGORITHM      DIIS !DIIS,DM,DIIS_DM,GDM,DIIS_GDM,GD

SYMMETRY           TRUE !use of symmetry for calculating integrals
SYM_IGNORE         FALSE !turn off using symmetry
SYM_TOL            5 !tolerance for determining point group

!THRESH             14
SCF_FINAL_PRINT     1 !0,1,2,3

!****RAS-SF****
RAS_ROOTS          10       !number of RAS-CI roots to be computed
SET_ITER           100     !number of iterations in RASCI
RAS_ELEC           11       !number of electrons in RAS2
!RAS_ELEC_ALPHA            !spin-α electrons in RAS2 
!RAS_ELEC_BETA             !spin-β electrons in RAS2

RAS_ACT            9       !number of orbitals in RAS2 
RAS_ACT_ORB   [7,8,9,10,11,12,13,14,15]  !user-selected RAS2 orbitals
RAS_OCC            6       !number of orbitals in RAS1
N_FROZEN_CORE      0     !Number of frozen core orbitals
N_FROZEN_VIRTUAL   0      !Number of frozen virtual orbitals
RAS_NATORB         TRUE    !computation of the natural orbital occupancies
!RAS_NATORB_STATE  0      !Saves NO of i RAS computed state in .fchk ﬁle

RAS_DO_HOLE        TRUE   !presence of hole excitations in RAS-CI wave function
RAS_DO_PART        TRUE   !presence of particle excitations
RAS_AMPL_PRINT     10     !threshold (×10 2 ) for the CI amplitudes

RAS_GUESS_CS       0      !number of closed shell guess conﬁgurations
RAS_SPIN_MULT      0      !spin multiplicity: 0=any, 2n+1=defined 
RAS_SRDFT          FALSE  !short-range density functional RAS-CI
RAS_NFRAG          0     !fragments of excitation analysis in RASCI

RAS_PRINT          2      !level of information
RAS_NATORB         TRUE   !computation of the natural orbital occupancies
!RAS_NATORB_STATE  0      !Saves NO of i RAS computed state in .fchk ﬁle
RAS_FOD            TRUE

!****RAS-SOC****
CALC_SOC           TRUE   !calculate SOC for EOM-CC, RAS-CI, ADC, TDDFT/TDA and TDDFT
!RAS_SOC_2E        TRUE   !two-electron mean-ﬁeld contribution, default=true
RAS_SOC_SYM_DENS   TRUE   !averaging of α and β densities

!****MEMORY****
MEM_TOTAL          40000 !Default 2000 MB
MEM_STATIC         8000  !Default 64 MB

!**Molecular Properties and Analysis **                                                                                          
GUI                2
STATE_ANALYSIS     TRUE
MOLDEN_FORMAT      TRUE
PRINT_ORBITALS     20
$end                                           

$basis
C     0
S   14   1.00
  50557.501                  0.0001128874
   7524.7856                 0.0005295373
   1694.3276                 0.0024500383
    472.82279                0.0100539847
    151.71075                0.0354539806
     53.918746               0.1044071086
     20.659311               0.2412894918
      8.3839760              0.3834225483
      3.5770150              0.3078514393
      1.5471180              0.0687244299
       .61301300             0.0002224445
       .24606800             0.0019767489
       .09908700             0.0020578594
       .03468000             0.0004182020
S   14   1.00
  50557.501                 -0.0006400206
   7524.7856                -0.0024479036
   1694.3276                -0.0159523501
    472.82279               -0.0372785972
    151.71075               -0.2506200965
     53.918746              -0.1791819195
     20.659311              -1.5772268037
      8.3839760              5.7184285569
      3.5770150             -8.2164445667
      1.5471180              7.1132676158
       .61301300            -4.7193061493
       .24606800             2.8900008029
       .09908700            -1.3932172689
       .03468000             0.3911167762
S   14   1.00
  50557.501                 -0.0000250742
   7524.7856                -0.0001175945
   1694.3276                -0.0005456275
    472.82279               -0.0022450771
    151.71075               -0.0080434718
     53.918746              -0.0244258871
     20.659311              -0.0613679118
      8.3839760             -0.1177767835
      3.5770150             -0.1550487783
      1.5471180             -0.0193331686
       .61301300             0.3996930678
       .24606800             0.5589420949
       .09908700             0.1711195023
       .03468000             0.0074562446
S   14   1.00
  50557.501                  0.0000161788
   7524.7856                 0.0000749712
   1694.3276                 0.0003573467
    472.82279                0.0014349316
    151.71075                0.0055086779
     53.918746               0.0169149690
     20.659311               0.0514166524
      8.3839760              0.1137343741
      3.5770150              0.2337183944
      1.5471180             -0.0718378257
       .61301300            -1.0490908711
       .24606800            -0.0666273399
       .09908700             1.0119993798
       .03468000             0.1656046386
S   14   1.00
  50557.501                 -0.0000455357
   7524.7856                -0.0002046470
   1694.3276                -0.0010264601
    472.82279               -0.0037764440
    151.71075               -0.0156602173
     53.918746              -0.0398609476
     20.659311              -0.1297300876
      8.3839760             -0.1592692975
      3.5770150             -0.4821720801
      1.5471180              1.0854256553
       .61301300             1.0468686972
       .24606800            -2.5679529689
       .09908700             1.0616687974
       .03468000             0.4583312911
S   14   1.00
  50557.501                  0.0003415578
   7524.7856                 0.0015697366
   1694.3276                 0.0074831115
    472.82279                0.0290165926
    151.71075                0.1056576253
     53.918746               0.2681028330
     20.659311               0.5135966936
      8.3839760             -0.1021184467
      3.5770150             -3.0729237930
      1.5471180              5.6454932531
       .61301300            -6.1962604440
       .24606800             5.4968144267
       .09908700            -3.5909939703
       .03468000             1.3356713112
S   14   1.00
  50557.501                  0.0001059789
   7524.7856                 0.0005000146
   1694.3276                 0.0022900300
    472.82279                0.0095150376
    151.71075                0.0330270816
     53.918746               0.1002478805
     20.659311               0.2221842219
      8.3839760              0.3220864618
      3.5770150              0.2408948842
      1.5471180             -2.8745692198
       .61301300             3.7177783169
       .24606800            -1.7961600650
       .09908700            -0.5562529043
       .03468000             0.9636896239
S   14   1.00
  50557.501                 -0.0002337223
   7524.7856                -0.0011546472
   1694.3276                -0.0048180306
    472.82279               -0.0225496690
    151.71075               -0.0639828310
     53.918746              -0.2286084574
     20.659311              -0.2557490777
      8.3839760             -0.5242019365
      3.5770150              2.0689771252
      1.5471180             -1.1259055404
       .61301300            -1.5234592048
       .24606800             3.6308337827
       .09908700            -3.6682141859
       .03468000             1.7535197766
P   9   1.00
     83.333155              -0.1271056369
     19.557611              -1.4204789704
      6.0803650              1.8981106324
      2.1793170             -1.6939507041
       .86515000             1.3520106188
       .36194400            -0.9820831024
       .15474000             0.6117405307
       .06542900            -0.2806072579
       .02290000             0.0702228828
P   9   1.00
     83.333155               0.0013446560
     19.557611               0.0102355550
      6.0803650              0.0452006710
      2.1793170              0.1410756198
       .86515000             0.3047388085
       .36194400             0.3995281011
       .15474000             0.2719163432
       .06542900             0.0585766933
       .02290000            -0.0001263813
P   9   1.00
     83.333155               0.0037861905
     19.557611               0.0363883533
      6.0803650              0.1506435667
      2.1793170              0.6668914580
       .86515000             0.1737240264
       .36194400            -1.2802244007
       .15474000             0.3963864423
       .06542900             0.5244641843
       .02290000             0.0062295092
P   9   1.00
     83.333155              -0.0017715885
     19.557611              -0.0145621810
      6.0803650             -0.0574573357
      2.1793170             -0.2126582848
       .86515000            -0.5271712924
       .36194400            -0.0929697730
       .15474000             0.6630031669
       .06542900             0.3360877793
       .02290000             0.0054695244
P   9   1.00
     83.333155              -0.0067096998
     19.557611              -0.0438742624
      6.0803650             -0.3529508598
      2.1793170             -0.8475388374
       .86515000             1.8580484727
       .36194400            -0.9137409185
       .15474000            -0.7767580357
       .06542900             0.9862380406
       .02290000             0.0139706728
P   9   1.00
     83.333155              -0.0256777099
     19.557611              -0.0576281761
      6.0803650             -1.3169923219
      2.1793170              2.7769648377
       .86515000            -3.4573972441
       .36194400             3.1734295563
       .15474000            -1.9856313522
       .06542900             0.4403392280
       .02290000             0.3974795511
P   9   1.00
     83.333155               0.0160325983
     19.557611               0.0186258711
      6.0803650              0.9038907240
      2.1793170             -0.6624490157
       .86515000            -0.9421602177
       .36194400             2.6278069489
       .15474000            -2.9682072978
       .06542900             1.5756401971
       .02290000            -0.0250513272
P   9   1.00
     83.333155               0.0011923578
     19.557611               0.0331246853
      6.0803650              0.4053865450
      2.1793170             -1.0231532583
       .86515000             1.7008746894
       .36194400            -2.4415135044
       .15474000             3.0465039841
       .06542900            -2.8927459674
       .02290000             1.7535665865
D   4   1.00
      1.9000000              0.1424518048
       .66500000             0.5591973019
       .23275000             0.4430004380
       .08146300             0.0410665370
D   4   1.00
      1.9000000              1.1665506082
       .66500000            -1.1805431636
       .23275000             0.2758232149
       .08146300             0.4452547223
D   4   1.00
      1.9000000             -0.4383799723
       .66500000            -0.5926781395
       .23275000             0.8672435762
       .08146300             0.1701714938
D   4   1.00
      1.9000000             -0.6029804689
       .66500000             1.1860981635
       .23275000            -1.5620697905
       .08146300             1.3069103936
F   3   1.00
      1.2500000              0.3217598929
       .50000000             0.5894204460
       .20000000             0.2711660139
F   3   1.00
      1.2500000             -0.7955719786
       .50000000             0.0506528708
       .20000000             0.7726058303
F   3   1.00
      1.2500000              1.0846656765
       .50000000            -1.6528938208
       .20000000             1.1146806966
G   2   1.00
      0.625000               0.9627951097
      0.250000               0.0626980518
G   2   1.00
      0.625000              -0.7483859121
      0.250000               1.2178361347
****
O     0
S   14   1.00
 105374.95                   0.00012386
  15679.240                  0.00051201
   3534.5447                 0.00215291
    987.36516                0.00852844
    315.97875                0.03018049
    111.65428                0.09099702
     42.699451               0.21779364
     17.395596               0.36862457
      7.4383090              0.33667073
      3.2228620              0.09657630
      1.2538770              0.00214452
       .49515500             0.00119435
       .19166500             0.00053902
       .06708300             0.00021034
S   14   1.00
 105374.95                  -0.00074282
  15679.240                 -0.00234233
   3534.5447                -0.01591640
    987.36516               -0.02654546
    315.97875               -0.25914159
    111.65428               -0.10283024
     42.699451              -2.13479838
     17.395596               6.05081927
      7.4383090             -7.46850493
      3.2228620              5.73131339
      1.2538770             -3.43918753
       .49515500             1.98094698
       .19166500            -0.92207192
       .06708300             0.26077136
S   14   1.00
 105374.95                  -0.00002815
  15679.240                 -0.00011630
   3534.5447                -0.00049092
    987.36516               -0.00194616
    315.97875               -0.00700530
    111.65428               -0.02167814
     42.699451              -0.05641213
     17.395596              -0.11270530
      7.4383090             -0.15891197
      3.2228620             -0.03355083
      1.2538770              0.35319028
       .49515500             0.55341993
       .19166500             0.23018391
       .06708300             0.01127267
S   14   1.00
 105374.95                   0.00028260
  15679.240                  0.00129918
   3534.5447                 0.00432159
    987.36516                0.02387042
    315.97875                0.05255072
    111.65428                0.29061324
     42.699451               0.20167956
     17.395596               1.51837289
      7.4383090             -5.38029979
      3.2228620              6.65712125
      1.2538770             -5.49075525
       .49515500             3.95898574
       .19166500            -2.26298568
       .06708300             0.79637701
S   14   1.00
 105374.95                   0.00002616
  15679.240                  0.00010748
   3534.5447                 0.00045972
    987.36516                0.00179555
    315.97875                0.00667574
    111.65428                0.02053445
     42.699451               0.05828602
     17.395596               0.12129691
      7.4383090              0.22641475
      3.2228620             -0.04238700
      1.2538770             -1.01045538
       .49515500            -0.15386868
       .19166500             0.99345320
       .06708300             0.18587254
S   14   1.00
 105374.95                  -0.00005058
  15679.240                 -0.00020024
   3534.5447                -0.00091952
    987.36516               -0.00320240
    315.97875               -0.01359974
    111.65428               -0.03392296
     42.699451              -0.11685462
     17.395596              -0.14040275
      7.4383090             -0.47546666
      3.2228620              0.83350096
      1.2538770              1.30186138
       .49515500            -2.48175844
       .19166500             0.81134659
       .06708300             0.58210417
S   14   1.00
 105374.95                   0.00005196
  15679.240                  0.00019612
   3534.5447                 0.00099303
    987.36516                0.00297658
    315.97875                0.01564071
    111.65428                0.03231923
     42.699451               0.16012253
     17.395596               0.15386867
      7.4383090              0.93886300
      3.2228620             -3.16442722
      1.2538770              2.94545392
       .49515500            -0.46724256
       .19166500            -1.59503813
       .06708300             1.34403482
S   14   1.00
 105374.95                  -0.00010763
  15679.240                 -0.00052397
   3534.5447                -0.00154004
    987.36516               -0.00999424
    315.97875               -0.01742170
    111.65428               -0.12514010
     42.699451              -0.05984838
     17.395596              -0.78330815
      7.4383090              0.91900687
      3.2228620              1.50335971
      1.2538770             -4.17166405
       .49515500             5.18802378
       .19166500            -4.10387047
       .06708300             1.75198360
P   9   1.00
    200.00000                0.02945525
     46.533367              -0.02705478
     14.621809               1.72712535
      5.3130640             -3.00927511
      2.1025250              3.08624913
       .85022300            -2.41840603
       .33759700             1.57480283
       .12889200            -0.83583205
       .04511200             0.29255222
P   9   1.00
    200.00000                0.00091730
     46.533367               0.00737714
     14.621809               0.03483515
      5.3130640              0.11443970
      2.1025250              0.25549664
       .85022300             0.37225574
       .33759700             0.33233149
       .12889200             0.14008479
       .04511200             0.02395784
P   9   1.00
    200.00000               -0.00087213
     46.533367              -0.00706424
     14.621809              -0.03330489
      5.3130640             -0.11441275
      2.1025250             -0.29901068
       .85022300            -0.31986054
       .33759700             0.20550900
       .12889200             0.59359268
       .04511200             0.28229027
P   9   1.00
    200.00000               -0.00917182
     46.533367              -0.00978879
     14.621809              -0.53210575
      5.3130640             -0.40505984
      2.1025250              2.13358472
       .85022300            -3.15879340
       .33759700             3.04624588
       .12889200            -2.09941359
       .04511200             0.87380728
P   9   1.00
    200.00000               -0.00195602
     46.533367              -0.02399585
     14.621809              -0.09118427
      5.3130640             -0.52863388
      2.1025250             -0.38198314
       .85022300             1.44198816
       .33759700            -0.67366146
       .12889200            -0.66496950
       .04511200             0.82977107
P   9   1.00
    200.00000                0.00129603
     46.533367               0.01151279
     14.621809               0.05159120
      5.3130640              0.20459407
      2.1025250              0.55019345
       .85022300            -0.14872038
       .33759700            -0.89690085
       .12889200             0.24707597
       .04511200             0.64443405
P   9   1.00
    200.00000                0.00319452
     46.533367               0.03858703
     14.621809               0.17878547
      5.3130640              1.00984499
      2.1025250             -1.47243471
       .85022300             0.20837011
       .33759700             1.29713750
       .12889200            -1.71838884
       .04511200             0.97758318
D   4   1.00
      3.7500000              0.13609758
      1.3125000              0.51401475
       .45937500             0.47407125
       .16078100             0.08166905
D   4   1.00
      3.7500000             -0.39151953
      1.3125000             -0.62262728
       .45937500             0.72160073
       .16078100             0.31870103
D   4   1.00
      3.7500000              0.95199748
      1.3125000             -0.67736624
       .45937500            -0.34608569
       .16078100             0.81524547
D   4   1.00
      3.7500000             -0.92670660
      1.3125000              1.53420070
       .45937500            -1.61221613
       .16078100             1.07889990
F   3   1.00
      2.3500000              0.33460642
       .94000000             0.56136672
       .37600000             0.29572786
F   3   1.00
      2.3500000             -0.83677707
       .94000000             0.10721970
       .37600000             0.72955061
F   3   1.00
      2.3500000              1.04919327
       .94000000            -1.65994322
       .37600000             1.13721800
G   2   1.00
      1.175000               0.89524901
      0.470000               0.16664235
G   2   1.00
      1.175000              -0.82800067
      0.470000               1.20800920
****
$end

--------------------------------------------------------------
 ----------------------------------------------------------------
             Standard Nuclear Orientation (Angstroms)
    I     Atom           X                Y                Z
 ----------------------------------------------------------------
    1      C      -0.0000000000     0.0000000000     0.3242786145
    2      O      -1.1495552469    -0.0000000000    -0.1216044804
    3      O       1.1495552469     0.0000000000    -0.1216044804
 ----------------------------------------------------------------
 Molecular Point Group                 C2v   NOp =  4
 Largest Abelian Subgroup              C2v   NOp =  4
 Nuclear Repulsion Energy =          55.93177340 hartrees
 There are       12 alpha and       11 beta electrons
 Requested basis set is non-standard
 There are 73 shells and 267 basis functions

 Total QAlloc Memory Limit  40000 MB
 Mega-Array Size      7821 MB
 MEM_STATIC part      8000 MB


                       Distance Matrix (Angstroms)
             C (  1)   O (  2)
   O (  2)  1.233000
   O (  3)  1.233000  2.299110
 
 A cutoff of  1.0D-12 yielded   2701 shell pairs
 There are     36369 function pairs (     59934 Cartesian)
 Smallest overlap matrix eigenvalue = 8.01E-06

 Scale SEOQF with 1.000000e-01/1.000000e-01/1.000000e-01

 Standard Electronic Orientation quadrupole field applied
 Nucleus-field energy     =     0.0000000007 hartrees
 ================ Generating on-the-fly SAD Guess ================
 Attempting to make child job directory: ./qchem102134//Frg1/
 Attempting to make child job directory: ./qchem102134//Frg2/
 Creating input file ./qchem102134/Frg1.input
 using default PutDataFrgm: nothing
 calling putenv with: QCSCRATCH=./qchem102134/ 
 Spawning Job For Fragment 0
