
                                 *****************
                                 * O   R   C   A *
                                 *****************

                                            #,                                       
                                            ###                                      
                                            ####                                     
                                            #####                                    
                                            ######                                   
                                           ########,                                 
                                     ,,################,,,,,                         
                               ,,#################################,,                 
                          ,,##########################################,,             
                       ,#########################################, ''#####,          
                    ,#############################################,,   '####,        
                  ,##################################################,,,,####,       
                ,###########''''           ''''###############################       
              ,#####''   ,,,,##########,,,,          '''####'''          '####       
            ,##' ,,,,###########################,,,                        '##       
           ' ,,###''''                  '''############,,,                           
         ,,##''                                '''############,,,,        ,,,,,,###''
      ,#''                                            '''#######################'''  
     '                                                          ''''####''''         
             ,#######,   #######,   ,#######,      ##                                
            ,#'     '#,  ##    ##  ,#'     '#,    #''#        ,####,   ,####,        
            ##       ##  ##   ,#'  ##            #'  '#       #'       #'  '#        
            ##       ##  #######   ##           ,######,      #####,   #    #        
            '#,     ,#'  ##    ##  '#,     ,#' ,#      #,     #,   #   #,  ,#        
             '#######'   ##     ##  '#######'  #'      '#     '####' # '####'        



                #########################################################
                #                        -***-                          #
                #          Department of theory and spectroscopy        #
                #                                                       #
                #                      Frank Neese                      #
                #                                                       #
                #     Directorship, Architecture, Infrastructure        #
                #                    SHARK, DRIVERS                     #
                #        Core code/Algorithms in most modules           #
                #                                                       #
                #        Max Planck Institute fuer Kohlenforschung      #
                #                Kaiser Wilhelm Platz 1                 #
                #                 D-45470 Muelheim/Ruhr                 #
                #                      Germany                          #
                #                                                       #
                #                  All rights reserved                  #
                #                        -***-                          #
                #########################################################


                         Program Version 6.0.0  -   RELEASE  -


 With contributions from (in alphabetic order):
   Daniel Aravena         : Magnetic Suceptibility
   Michael Atanasov       : Ab Initio Ligand Field Theory (pilot matlab implementation)
   Alexander A. Auer      : GIAO ZORA, VPT2 properties, NMR spectrum
   Ute Becker             : All parallelization in ORCA, NUMFREQ, NUMCALC
   Giovanni Bistoni       : ED, misc. LED, open-shell LED, HFLD
   Martin Brehm           : Molecular dynamics
   Dmytro Bykov           : pre 5.0 version of the SCF Hessian
   Marcos Casanova-Páez   : Triplet and SCS-CIS(D). UHF-(DLPNO)-IP/EA/STEOM-CCSD. UHF-CVS-IP/STEOM-CCSD
   Vijay G. Chilkuri      : MRCI spin determinant printing, contributions to CSF-ICE
   Pauline Colinet        : FMM embedding
   Dipayan Datta          : RHF DLPNO-CCSD density
   Achintya Kumar Dutta   : EOM-CC, STEOM-CC
   Nicolas Foglia         : Exact transition moments, OPA infrastructure, MCD improvements
   Dmitry Ganyushin       : Spin-Orbit,Spin-Spin,Magnetic field MRCI
   Miquel Garcia          : C-PCM and meta-GGA Hessian, CCSD/C-PCM, Gaussian charge scheme
   Tiago L. C. Gouveia    : GS-ROHF, GS-ROCIS
   Yang Guo               : DLPNO-NEVPT2, F12-NEVPT2, CIM, IAO-localization
   Andreas Hansen         : Spin unrestricted coupled pair/coupled cluster methods
   Ingolf Harden          : AUTO-CI MPn and infrastructure 
   Benjamin Helmich-Paris : MC-RPA, TRAH-(SCF,CASSCF), AVAS, COSX integrals, SCF dyn. polar.
   Lee Huntington         : MR-EOM, pCC
   Robert Izsak           : Overlap fitted RIJCOSX, COSX-SCS-MP3, EOM
   Riya Kayal             : Wick's Theorem for AUTO-CI, AUTO-CI UHF-CCSDT
   Emily Kempfer          : AUTO-CI, RHF CISDT and CCSDT
   Christian Kollmar      : KDIIS, OOCD, Brueckner-CCSD(T), CCSD density, CASPT2, CASPT2-K, improved NEVPT2
   Axel Koslowski         : Symmetry handling
   Simone Kossmann        : Meta GGA functionals, TD-DFT gradient, OOMP2, (MP2 Hessian; deprecated post 5.0)
   Lucas Lang             : DCDCAS
   Marvin Lechner         : AUTO-CI (C++ implementation), FIC-MRCC
   Spencer Leger          : CASSCF response
   Dagmar Lenk            : GEPOL surface, SMD, ORCA-2-JSON
   Dimitrios Liakos       : Extrapolation schemes; Compound Job, initial MDCI parallelization
   Dimitrios Manganas     : Further ROCIS development; embedding schemes. LFT, Crystal Embedding
   Dimitrios Pantazis     : SARC Basis sets
   Anastasios Papadopoulos: AUTO-CI, single reference methods and gradients
   Taras Petrenko         : pre 6.0 DFT Hessian and TD-DFT gradient, (ASA, deprecated), ECA, 1-Electron XAS/XES, NRVS
   Peter Pinski           : DLPNO-MP2, DLPNO-MP2 Gradient
   Christoph Reimann      : Effective Core Potentials
   Marius Retegan         : Local ZFS, SOC
   Christoph Riplinger    : Optimizer, TS searches, QM/MM, DLPNO-CCSD(T), (RO)-DLPNO pert. Triples
   Michael Roemelt        : Original ROCIS implementation
   Masaaki Saitow         : Open-shell DLPNO-CCSD energy and density
   Barbara Sandhoefer     : DKH picture change effects
   Kantharuban Sivalingam : CASSCF convergence/infrastructure, NEVPT2 and variants, FIC-MRCI
   Bernardo de Souza      : ESD, SOC TD-DFT
   Georgi Stoychev        : AutoAux, RI-MP2 NMR, DLPNO-MP2 response, X2C
   Van Anh Tran           : RI-MP2 g-tensors
   Willem Van den Heuvel  : Paramagnetic NMR
   Zikuan Wang            : NOTCH, Electric field optimization 
   Frank Wennmohs         : Technical directorship and infrastructure
   Hang Xu                : AUTO-CI-Response properties 


 We gratefully acknowledge several colleagues who have allowed us to
 interface, adapt or use parts of their codes:
   Stefan Grimme, W. Hujo, H. Kruse, P. Pracht,  : VdW corrections, initial TS optimization,
                  C. Bannwarth, S. Ehlert,         DFT functionals, gCP, sTDA/sTD-DF
                  L. Wittmann, M. Mueller
   Ed Valeev, F. Pavosevic, A. Kumar             : LibInt (2-el integral package), F12 methods
   Garnet Chan, S. Sharma, J. Yang, R. Olivares  : DMRG
   Ulf Ekstrom                                   : XCFun DFT Library
   Mihaly Kallay                                 : mrcc  (arbitrary order and MRCC methods)
   Frank Weinhold                                : gennbo (NPA and NBO analysis)
   Simon Mueller                                 : openCOSMO-RS
   Christopher J. Cramer and Donald G. Truhlar   : smd solvation model
   Lars Goerigk                                  : TD-DFT with DH, B97 family of functionals
   V. Asgeirsson, H. Jonsson                     : NEB implementation
   FAccTs GmbH                                   : IRC, NEB, NEB-TS, DLPNO-Multilevel, CI-OPT
                                                   MM, QMMM, 2- and 3-layer-ONIOM, Crystal-QMMM,
                                                   LR-CPCM, SF, NACMEs, symmetry and pop. for TD-DFT,
                                                   nearIR, NL-DFT gradient (VV10), updates on ESD,
                                                   ML-optimized integration grids, MBIS, APM,
                                                   GOAT, DOCKER, SOLVATOR, interface openCOSMO-RS
   S Lehtola, MJT Oliveira, MAL Marques          : LibXC Library
   Liviu Ungur et al                             : ANISO software


 Your calculation uses the libint2 library for the computation of 2-el integrals
 For citations please refer to: http://libint.valeyev.net

 Your ORCA version has been built with support for libXC version: 6.2.2
 For citations please refer to: https://libxc.gitlab.io

 This ORCA versions uses:
   CBLAS   interface :  Fast vector & matrix operations
   LAPACKE interface :  Fast linear algebra routines
   SCALAPACK package :  Parallel linear algebra routines
   Shared memory     :  Shared parallel matrices
   BLAS/LAPACK       :  OpenBLAS 0.3.27  USE64BITINT DYNAMIC_ARCH NO_AFFINITY SkylakeX SINGLE_THREADED
        Core in use  :  SkylakeX
   Copyright (c) 2011-2014, The OpenBLAS Project




************************************
The Z-Matrix will be read from file: hgh.gzmt
************************************


BuildBasisSet found the ANOflag in the standard basis to be TRUE and will set the global ANO flag
================================================================================

----- Orbital basis set information -----
Your calculation utilizes the basis: ANO-RCC-TZP
   H, He:       P.-O. Widmark, P.-A. Malmqvist, and B. O. Roos, Theor. Chim. Acta 77, 291 (1990).
   s block:     B. O. Roos, V. Veryazov and P.-O. Widmark, Theor. Chem. Acc. 111, 345 (2004).
   p block:     B. O. Roos, R. Lindh, P.-A. Malmqvist, V. Veryazov, and P.-O. Widmark, J. Phys. Chem. A 108, 2851 (2004).
   d block:     B. O. Roos, R. Lindh, P.-A. Malmqvist, V. Veryazov, and P.-O. Widmark, J. Phys. Chem. A 109, 6575 (2005).
   actinides:   B. O. Roos, R. Lindh, P.-A. Malmqvist, V. Veryazov, and P.-O. Widmark, Chem. Phys. Letters 409, 295 (2005).
   lanthanides: B. O. Roos, R. Lindh, P.-A. Malmqvist, V. Veryazov, P.-O. Widmark and A. C. Borin, J. Phys. Chem. A 112, 11431 (2008).

================================================================================
                                        WARNINGS
                       Please study these warnings very carefully!
================================================================================


WARNING: The basis set has functions with high angular momentum (Lmax>4).
         We might need to increase small grids for safety reasons and
         in general, DEFGRID3 is recommend for such cases.
  ===> : GRIDX1, TD-DFT and the CP-SCF AngGrids will be increased to at least 2


WARNING: your system is open-shell and RHF/RKS was chosen
  ===> : WILL SWITCH to UHF/UKS


================================================================================
                                       INPUT FILE
================================================================================
NAME = hgh_cpks.inp
|  1> !B3LYP ANO-RCC-TZP SOMF(1X) LARGEPRINT PrintMOs
|  2> 
|  3> %METHOD
|  4>  Functional B3LYP_G
|  5>  RI false
|  6> END
|  7> 
|  8> %SCF
|  9>  MaxIter 500			# Max. no. of SCF iterations
| 10>  Thresh 1e-12			# Threshold for neglecting integrals
| 11>  TolE 1e-8			# Energy convergence threshold
| 12> END
| 13> 
| 14> %EPRNMR 			# Control of EPR and NMR calculations
| 15>  gtensor 1			# Calculate the g-tensor 
| 16>  ori CenterOfNucCharge		# origin for magnetic properties: CenterOfElCharge, CenterOfNucCharge
| 17>  printlevel 4			# detailed information
| 18> END
| 19> 
| 20> * gzmtfile 0 2 hgh.gzmt 	# Coordinates
| 21> 
| 22> 
| 23>                          ****END OF INPUT****
================================================================================

                       ****************************
                       * Single Point Calculation *
                       ****************************

---------------------------------
CARTESIAN COORDINATES (ANGSTROEM)
---------------------------------
  H      0.000000    0.000000    0.000000
  Hg     1.766000    0.000000    0.000000

----------------------------
CARTESIAN COORDINATES (A.U.)
----------------------------
  NO LB      ZA    FRAG     MASS         X           Y           Z
   0 H     1.0000    0     1.008    0.000000    0.000000    0.000000
   1 Hg   80.0000    0   200.590    3.337256    0.000000    0.000000

--------------------------------
INTERNAL COORDINATES (ANGSTROEM)
--------------------------------
 H      0   0   0     0.000000000000     0.00000000     0.00000000
 Hg     1   0   0     1.766000000000     0.00000000     0.00000000

---------------------------
INTERNAL COORDINATES (A.U.)
---------------------------
 H      0   0   0     0.000000000000     0.00000000     0.00000000
 Hg     1   0   0     3.337256352505     0.00000000     0.00000000

---------------------
BASIS SET INFORMATION
---------------------
There are 2 groups of distinct atoms

 Group   1 Type H   : 32s12p6d contracted to 4s3p2d pattern {8888/444/33}
 Group   2 Type Hg  : 200s154p80d36f8g2h contracted to 8s7p5d3f2g1h pattern {2525252525252525/22222222222222/1616161616/121212/44/2}

Atom   0H    basis set group =>   1
Atom   1Hg   basis set group =>   2

-------------------------
BASIS SET IN INPUT FORMAT
-------------------------

 # Basis set for element : H 
 NewGTO H 
 S 8 
   1     188.6144500000      0.0009638500
   2      28.2765960000      0.0074919600
   3       6.4248300000      0.0375954101
   4       1.8150410000      0.1433949804
   5       0.5910630000      0.3486363010
   6       0.2121490000      0.4382973612
   7       0.0798910000      0.1651066105
   8       0.0279620000      0.0210228701
 S 8 
   1     188.6144500000     -0.0013119000
   2      28.2765960000     -0.0103451000
   3       6.4248300000     -0.0504952998
   4       1.8150410000     -0.2073854991
   5       0.5910630000     -0.4350884981
   6       0.2121490000     -0.0247296999
   7       0.0798910000      0.3225259886
   8       0.0279620000      0.7072753770
 S 8 
   1     188.6144500000      0.0024224000
   2      28.2765960000      0.0203381700
   3       6.4248300000      0.0896393498
   4       1.8150410000      0.4422907090
   5       0.5910630000      0.5757143887
   6       0.2121490000     -0.9802889977
   7       0.0798910000     -0.6721537984
   8       0.0279620000      1.1417684974
 S 8 
   1     188.6144500000     -0.0115701006
   2      28.2765960000     -0.0837154045
   3       6.4248300000     -0.4451663240
   4       1.8150410000     -1.1462710617
   5       0.5910630000      2.5031872348
   6       0.2121490000     -1.5828490853
   7       0.0798910000      0.0309656917
   8       0.0279620000      0.3086286566
 P 4 
   1       2.3050000000      0.1127901896
   2       0.8067500000      0.4185075284
   3       0.2823620000      0.4700077282
   4       0.0988270000      0.1826260293
 P 4 
   1       2.3050000000     -0.2108687968
   2       0.8067500000     -0.5943795909
   3       0.2823620000      0.0896888786
   4       0.0988270000      0.8611633869
 P 4 
   1       2.3050000000      0.7599500731
   2       0.8067500000      0.1646158920
   3       0.2823620000     -1.3710139334
   4       0.0988270000      1.0593154486
 D 3 
   1       1.8190000000      0.2705134090
   2       0.7276000000      0.5510124980
   3       0.2910400000      0.3310866388
 D 3 
   1       1.8190000000     -0.7938035094
   2       0.7276000000     -0.0914252011
   3       0.2910400000      0.8620033502
  end;

 # Basis set for element : Hg
 NewGTO Hg
 S 25 
   1  52311095.5000000000      0.0011135400
   2  12004904.5000000000      0.0015152100
   3  3398412.6200000001      0.0039202000
   4  1053466.2300000000      0.0073235401
   5  352643.1210000000      0.0149874801
   6  125378.8030000000      0.0284748802
   7   46972.2738000000      0.0548850305
   8   18358.5908000000      0.1032187208
   9    7416.8461800000      0.1882659015
  10    3086.3636900000      0.2990158325
  11    1323.9649700000      0.3345996527
  12     582.7863440000      0.1704863314
  13     265.3934500000      0.0146935701
  14     125.7373690000      0.0028021800
  15      61.4474879000     -0.0023084100
  16      30.7434147000      0.0016442600
  17      15.1121715000     -0.0010783100
  18       7.3294646500      0.0006417000
  19       3.4863874400     -0.0003257900
  20       1.4995717300      0.0001422300
  21       0.5971311500     -0.0000602000
  22       0.2083253300      0.0000255200
  23       0.0662640000     -0.0000137900
  24       0.0265056000      0.0000079600
  25       0.0106022400     -0.0000024700
 S 25 
   1  52311095.5000000000     -0.0004339400
   2  12004904.5000000000     -0.0005916800
   3  3398412.6200000001     -0.0015338700
   4  1053466.2300000000     -0.0028796800
   5  352643.1210000000     -0.0059378300
   6  125378.8030000000     -0.0114306900
   7   46972.2738000000     -0.0225167300
   8   18358.5908000000     -0.0439235899
   9    7416.8461800000     -0.0854704199
  10    3086.3636900000     -0.1521554298
  11    1323.9649700000     -0.2026496197
  12     582.7863440000     -0.0524465699
  13     265.3934500000      0.4286308194
  14     125.7373690000      0.5672889892
  15      61.4474879000      0.1473896798
  16      30.7434147000      0.0061966700
  17      15.1121715000     -0.0017058500
  18       7.3294646500      0.0010851400
  19       3.4863874400     -0.0006900200
  20       1.4995717300      0.0003255300
  21       0.5971311500     -0.0001360700
  22       0.2083253300      0.0000588800
  23       0.0662640000     -0.0000318700
  24       0.0265056000      0.0000184500
  25       0.0106022400     -0.0000057300
 S 25 
   1  52311095.5000000000      0.0002081700
   2  12004904.5000000000      0.0002839400
   3  3398412.6200000001      0.0007363500
   4  1053466.2300000000      0.0013834900
   5  352643.1210000000      0.0028565000
   6  125378.8030000000      0.0055102800
   7   46972.2738000000      0.0108962500
   8   18358.5908000000      0.0213812199
   9    7416.8461800000      0.0420981898
  10    3086.3636900000      0.0764694296
  11    1323.9649700000      0.1055643495
  12     582.7863440000      0.0198404099
  13     265.3934500000     -0.3497093984
  14     125.7373690000     -0.6411510671
  15      61.4474879000      0.1253075694
  16      30.7434147000      0.9150694258
  17      15.1121715000      0.2964999886
  18       7.3294646500      0.0047128900
  19       3.4863874400      0.0025760100
  20       1.4995717300     -0.0008722300
  21       0.5971311500      0.0002442000
  22       0.2083253300     -0.0001063200
  23       0.0662640000      0.0000555200
  24       0.0265056000     -0.0000320200
  25       0.0106022400      0.0000099100
 S 25 
   1  52311095.5000000000     -0.0001043200
   2  12004904.5000000000     -0.0001423100
   3  3398412.6200000001     -0.0003690600
   4  1053466.2300000000     -0.0006936000
   5  352643.1210000000     -0.0014323400
   6  125378.8030000000     -0.0027651000
   7   46972.2738000000     -0.0054705700
   8   18358.5908000000     -0.0107581700
   9    7416.8461800000     -0.0212175201
  10    3086.3636900000     -0.0388121302
  11    1323.9649700000     -0.0538470702
  12     582.7863440000     -0.0095493500
  13     265.3934500000      0.2013345508
  14     125.7373690000      0.3985512916
  15      61.4474879000     -0.1198823805
  16      30.7434147000     -1.1203158346
  17      15.1121715000     -0.1465383006
  18       7.3294646500      1.1188430746
  19       3.4863874400      0.3452361214
  20       1.4995717300     -0.0012179500
  21       0.5971311500      0.0031587900
  22       0.2083253300     -0.0010125200
  23       0.0662640000      0.0005260800
  24       0.0265056000     -0.0003028300
  25       0.0106022400      0.0000936100
 S 25 
   1  52311095.5000000000      0.0000455800
   2  12004904.5000000000      0.0000621700
   3  3398412.6200000001      0.0001612700
   4  1053466.2300000000      0.0003030200
   5  352643.1210000000      0.0006260700
   6  125378.8030000000      0.0012079400
   7   46972.2738000000      0.0023930900
   8   18358.5908000000      0.0046993300
   9    7416.8461800000      0.0093003999
  10    3086.3636900000      0.0169595099
  11    1323.9649700000      0.0237763999
  12     582.7863440000      0.0036999300
  13     265.3934500000     -0.0897717695
  14     125.7373690000     -0.1872142389
  15      61.4474879000      0.0692543396
  16      30.7434147000      0.5929308465
  17      15.1121715000      0.0896344095
  18       7.3294646500     -1.0825680636
  19       3.4863874400     -0.3320870280
  20       1.4995717300      1.1137243935
  21       0.5971311500      0.3811915078
  22       0.2083253300     -0.0146177899
  23       0.0662640000      0.0112829899
  24       0.0265056000     -0.0060115400
  25       0.0106022400      0.0018749600
 S 25 
   1  52311095.5000000000     -0.0000136000
   2  12004904.5000000000     -0.0000185500
   3  3398412.6200000001     -0.0000481200
   4  1053466.2300000000     -0.0000904100
   5  352643.1210000000     -0.0001868500
   6  125378.8030000000     -0.0003603700
   7   46972.2738000000     -0.0007144400
   8   18358.5908000000     -0.0014015300
   9    7416.8461800000     -0.0027786600
  10    3086.3636900000     -0.0050550100
  11    1323.9649700000     -0.0071238199
  12     582.7863440000     -0.0010332200
  13     265.3934500000      0.0267526598
  14     125.7373690000      0.0569137596
  15      61.4474879000     -0.0224884698
  16      30.7434147000     -0.1810429387
  17      15.1121715000     -0.0330281298
  18       7.3294646500      0.3819388873
  19       3.4863874400      0.1061478892
  20       1.4995717300     -0.5581869160
  21       0.5971311500     -0.3329964276
  22       0.2083253300      0.6141831056
  23       0.0662640000      0.7013573850
  24       0.0265056000     -0.0471112597
  25       0.0106022400      0.0271733698
 S 25 
   1  52311095.5000000000      0.0000233600
   2  12004904.5000000000      0.0000318700
   3  3398412.6200000001      0.0000826400
   4  1053466.2300000000      0.0001553500
   5  352643.1210000000      0.0003207500
   6  125378.8030000000      0.0006196000
   7   46972.2738000000      0.0012251900
   8   18358.5908000000      0.0024137200
   9    7416.8461800000      0.0047547500
  10    3086.3636900000      0.0087399800
  11    1323.9649700000      0.0120842300
  12     582.7863440000      0.0022227800
  13     265.3934500000     -0.0474074199
  14     125.7373690000     -0.0949050898
  15      61.4474879000      0.0312852499
  16      30.7434147000      0.3360847594
  17      15.1121715000      0.0160427200
  18       7.3294646500     -0.6341469588
  19       3.4863874400     -0.3210604194
  20       1.4995717300      1.7119485068
  21       0.5971311500     -0.7098916187
  22       0.2083253300     -1.4221401374
  23       0.0662640000      1.1610088678
  24       0.0265056000      0.1748543697
  25       0.0106022400      0.0217243100
 S 25 
   1  52311095.5000000000     -0.0000310900
   2  12004904.5000000000     -0.0000423900
   3  3398412.6200000001     -0.0001100200
   4  1053466.2300000000     -0.0002065200
   5  352643.1210000000     -0.0004274100
   6  125378.8030000000     -0.0008224200
   7   46972.2738000000     -0.0016369700
   8   18358.5908000000     -0.0031913300
   9    7416.8461800000     -0.0063909200
  10    3086.3636900000     -0.0114478800
  11    1323.9649700000     -0.0166315900
  12     582.7863440000     -0.0014020500
  13     265.3934500000      0.0590647100
  14     125.7373690000      0.1390660700
  15      61.4474879000     -0.0724346100
  16      30.7434147000     -0.3996397699
  17      15.1121715000     -0.1296004100
  18       7.3294646500      1.1536448097
  19       3.4863874400      0.0942359200
  20       1.4995717300     -3.0116111993
  21       0.5971311500      3.9313763990
  22       0.2083253300     -2.1758073395
  23       0.0662640000     -0.2790580399
  24       0.0265056000      1.1825894797
  25       0.0106022400     -0.1929770800
 P 22 
   1  16369430.4000000004      0.0000332200
   2  2923564.6200000001      0.0000907800
   3  665746.2780000000      0.0002695600
   4  176341.9100000000      0.0007643400
   5   52520.0218000000      0.0022208400
   6   17323.6604000000      0.0065796600
   7    6286.1336100000      0.0195922801
   8    2487.3105200000      0.0565015502
   9    1058.0369200000      0.1461223104
  10     475.7144210000      0.2989582809
  11     223.3130370000      0.3919384212
  12     108.1488390000      0.2392991007
  13      52.3397495000      0.0409337501
  14      26.1868051000      0.0000239100
  15      12.9673095000      0.0001055100
  16       6.2873898600     -0.0001039000
  17       2.9616037400      0.0000148800
  18       1.2745349100      0.0000011400
  19       0.4920498300      0.0000016300
  20       0.1968199300     -0.0000002300
  21       0.0787279700      0.0000001300
  22       0.0314911900     -0.0000000400
 P 22 
   1  16369430.4000000004     -0.0000171100
   2  2923564.6200000001     -0.0000468100
   3  665746.2780000000     -0.0001392700
   4  176341.9100000000     -0.0003959100
   5   52520.0218000000     -0.0011560300
   6   17323.6604000000     -0.0034454600
   7    6286.1336100000     -0.0103883599
   8    2487.3105200000     -0.0305068998
   9    1058.0369200000     -0.0818382293
  10     475.7144210000     -0.1757295986
  11     223.3130370000     -0.2361532181
  12     108.1488390000     -0.0035124600
  13      52.3397495000      0.5081870959
  14      26.1868051000      0.4874716260
  15      12.9673095000      0.0983579292
  16       6.2873898600      0.0040000400
  17       2.9616037400     -0.0003224100
  18       1.2745349100      0.0001689900
  19       0.4920498300     -0.0001381700
  20       0.1968199300      0.0000692700
  21       0.0787279700     -0.0000340700
  22       0.0314911900      0.0000108500
 P 22 
   1  16369430.4000000004      0.0000085300
   2  2923564.6200000001      0.0000233300
   3  665746.2780000000      0.0000694400
   4  176341.9100000000      0.0001975600
   5   52520.0218000000      0.0005773000
   6   17323.6604000000      0.0017241400
   7    6286.1336100000      0.0052093500
   8    2487.3105200000      0.0153826900
   9    1058.0369200000      0.0415760000
  10     475.7144210000      0.0905995200
  11     223.3130370000      0.1218770100
  12     108.1488390000     -0.0248219600
  13      52.3397495000     -0.4089214099
  14      26.1868051000     -0.3680551999
  15      12.9673095000      0.4464530999
  16       6.2873898600      0.6742058199
  17       2.9616037400      0.1482173900
  18       1.2745349100      0.0027724500
  19       0.4920498300      0.0006170500
  20       0.1968199300     -0.0001641300
  21       0.0787279700      0.0000657800
  22       0.0314911900     -0.0000197900
 P 22 
   1  16369430.4000000004     -0.0000034500
   2  2923564.6200000001     -0.0000094500
   3  665746.2780000000     -0.0000281300
   4  176341.9100000000     -0.0000801000
   5   52520.0218000000     -0.0002338100
   6   17323.6604000000     -0.0006999200
   7    6286.1336100000     -0.0021100600
   8    2487.3105200000     -0.0062606200
   9    1058.0369200000     -0.0168739199
  10     475.7144210000     -0.0371188699
  11     223.3130370000     -0.0493833398
  12     108.1488390000      0.0118887500
  13      52.3397495000      0.1867508994
  14      26.1868051000      0.1546552895
  15      12.9673095000     -0.2736058391
  16       6.2873898600     -0.5024508884
  17       2.9616037400      0.2203700993
  18       1.2745349100      0.7597261175
  19       0.4920498300      0.2654647491
  20       0.1968199300     -0.0080912600
  21       0.0787279700      0.0094109200
  22       0.0314911900     -0.0028633600
 P 22 
   1  16369430.4000000004      0.0000008700
   2  2923564.6200000001      0.0000023900
   3  665746.2780000000      0.0000071000
   4  176341.9100000000      0.0000202200
   5   52520.0218000000      0.0000590200
   6   17323.6604000000      0.0001766900
   7    6286.1336100000      0.0005326900
   8    2487.3105200000      0.0015809100
   9    1058.0369200000      0.0042519600
  10     475.7144210000      0.0093567500
  11     223.3130370000      0.0124575300
  12     108.1488390000     -0.0031094600
  13      52.3397495000     -0.0477449700
  14      26.1868051000     -0.0392924000
  15      12.9673095000      0.0733146800
  16       6.2873898600      0.1379367300
  17       2.9616037400     -0.0790870700
  18       1.2745349100     -0.2821687700
  19       0.4920498300     -0.0336648400
  20       0.1968199300      0.3694704800
  21       0.0787279700      0.4921031700
  22       0.0314911900      0.2995872700
 P 22 
   1  16369430.4000000004     -0.0000020200
   2  2923564.6200000001     -0.0000055200
   3  665746.2780000000     -0.0000164200
   4  176341.9100000000     -0.0000468100
   5   52520.0218000000     -0.0001363600
   6   17323.6604000000     -0.0004095900
   7    6286.1336100000     -0.0012291100
   8    2487.3105200000     -0.0036703500
   9    1058.0369200000     -0.0098540400
  10     475.7144210000     -0.0219336100
  11     223.3130370000     -0.0285815000
  12     108.1488390000      0.0062972800
  13      52.3397495000      0.1144360802
  14      26.1868051000      0.0872127102
  15      12.9673095000     -0.1677203803
  16       6.2873898600     -0.3573473706
  17       2.9616037400      0.2622598205
  18       1.2745349100      0.8317331014
  19       0.4920498300     -0.7952407714
  20       0.1968199300     -0.6781760412
  21       0.0787279700      0.4356190408
  22       0.0314911900      0.4737213008
 P 22 
   1  16369430.4000000004      0.0000022300
   2  2923564.6200000001      0.0000061400
   3  665746.2780000000      0.0000181300
   4  176341.9100000000      0.0000523400
   5   52520.0218000000      0.0001492500
   6   17323.6604000000      0.0004632200
   7    6286.1336100000      0.0013276600
   8    2487.3105200000      0.0042059800
   9    1058.0369200000      0.0107457900
  10     475.7144210000      0.0263857300
  11     223.3130370000      0.0283772200
  12     108.1488390000      0.0028741400
  13      52.3397495000     -0.1569068699
  14      26.1868051000     -0.0456607300
  15      12.9673095000      0.0976656499
  16       6.2873898600      0.6548898495
  17       2.9616037400     -0.8559747094
  18       1.2745349100     -0.4224026697
  19       0.4920498300      1.5636045689
  20       0.1968199300     -0.8984706994
  21       0.0787279700     -0.8070032294
  22       0.0314911900      1.1045833992
 D 16 
   1    7416.8461800000      0.0004604700
   2    3086.3636900000      0.0013791900
   3    1323.9649700000      0.0070834800
   4     582.7863440000      0.0295151599
   5     265.3934500000      0.1028440496
   6     125.7373690000      0.2562933189
   7      61.4474879000      0.4021605083
   8      30.7434147000      0.3203689987
   9      15.1121715000      0.0937877296
  10       7.3294646500      0.0046728400
  11       3.4863874400      0.0010794800
  12       1.4995717300     -0.0003096000
  13       0.5971311500      0.0001373400
  14       0.2083253300     -0.0000643300
  15       0.0833301300      0.0000340600
  16       0.0333320500     -0.0000118100
 D 16 
   1    7416.8461800000     -0.0002414300
   2    3086.3636900000     -0.0007152100
   3    1323.9649700000     -0.0037446200
   4     582.7863440000     -0.0155845901
   5     265.3934500000     -0.0556991703
   6     125.7373690000     -0.1394857206
   7      61.4474879000     -0.2116377910
   8      30.7434147000     -0.0597853503
   9      15.1121715000      0.3581651517
  10       7.3294646500      0.5263309324
  11       3.4863874400      0.2317199811
  12       1.4995717300      0.0216499501
  13       0.5971311500     -0.0000642200
  14       0.2083253300      0.0001232700
  15       0.0833301300     -0.0000532000
  16       0.0333320500      0.0000170900
 D 16 
   1    7416.8461800000      0.0000760300
   2    3086.3636900000      0.0002208300
   3    1323.9649700000      0.0011812000
   4     582.7863440000      0.0048541800
   5     265.3934500000      0.0176033800
   6     125.7373690000      0.0436914000
   7      61.4474879000      0.0668189900
   8      30.7434147000      0.0083664700
   9      15.1121715000     -0.1402734400
  10       7.3294646500     -0.2087130400
  11       3.4863874400      0.0521748800
  12       1.4995717300      0.4501336401
  13       0.5971311500      0.4952681601
  14       0.2083253300      0.2096857400
  15       0.0833301300      0.0000454700
  16       0.0333320500      0.0063603000
 D 16 
   1    7416.8461800000     -0.0000891100
   2    3086.3636900000     -0.0002593100
   3    1323.9649700000     -0.0013853700
   4     582.7863440000     -0.0057020000
   5     265.3934500000     -0.0206986599
   6     125.7373690000     -0.0514541098
   7      61.4474879000     -0.0777762597
   8      30.7434147000     -0.0053092400
   9      15.1121715000      0.1781100493
  10       7.3294646500      0.2358773991
  11       3.4863874400     -0.1286608895
  12       1.4995717300     -0.7800054871
  13       0.5971311500      0.2608969790
  14       0.2083253300      0.7158264273
  15       0.0833301300      0.0304343399
  16       0.0333320500      0.0313799899
 D 16 
   1    7416.8461800000      0.0001124100
   2    3086.3636900000      0.0002355400
   3    1323.9649700000      0.0017492300
   4     582.7863440000      0.0058222000
   5     265.3934500000      0.0251618200
   6     125.7373690000      0.0531607001
   7      61.4474879000      0.0991057701
   8      30.7434147000     -0.0318913300
   9      15.1121715000     -0.1558548102
  10       7.3294646500     -0.3708232404
  11       3.4863874400      0.5179870506
  12       1.4995717300      0.6031538207
  13       0.5971311500     -1.2800429914
  14       0.2083253300      0.5971051307
  15       0.0833301300      0.4150439305
  16       0.0333320500      0.0289774900
 F 12 
   1     475.7144210000      0.0016038600
   2     223.3130370000      0.0060402700
   3     108.1488390000      0.0299671400
   4      52.3397495000      0.0955997000
   5      26.1868051000      0.2224993699
   6      12.9673095000      0.3507210998
   7       6.2873898600      0.3563202398
   8       2.9616037400      0.2127567299
   9       1.2745349100      0.0579900000
  10       0.5098139600      0.0024731900
  11       0.2039255800      0.0008890300
  12       0.0815702300     -0.0002747400
 F 12 
   1     475.7144210000     -0.0005099600
   2     223.3130370000     -0.0019167900
   3     108.1488390000     -0.0095520300
   4      52.3397495000     -0.0303119501
   5      26.1868051000     -0.0724732102
   6      12.9673095000     -0.1154806302
   7       6.2873898600     -0.1082999402
   8       2.9616037400      0.0558474801
   9       1.2745349100      0.5221259111
  10       0.5098139600      0.4985363811
  11       0.2039255800      0.0874812202
  12       0.0815702300      0.0058371100
 F 12 
   1     475.7144210000      0.0006895700
   2     223.3130370000      0.0013161400
   3     108.1488390000      0.0119962900
   4      52.3397495000      0.0256357701
   5      26.1868051000      0.0951921103
   6      12.9673095000      0.1151282304
   7       6.2873898600      0.2032678306
   8       2.9616037400     -0.3174358710
   9       1.2745349100     -0.7212173623
  10       0.5098139600      0.6516295721
  11       0.2039255800      0.4122499313
  12       0.0815702300      0.0034599500
 G 4 
   1       3.2515770000      0.1155350500
   2       1.3006310000      0.6704478503
   3       0.5202520000      0.3687200302
   4       0.2081000000      0.0294733100
 G 4 
   1       3.2515770000     -0.3580803410
   2       1.3006310000     -0.5917252117
   3       0.5202520000      0.9022418326
   4       0.2081000000      0.1561910804
 H 2 
   1       1.6258000000      0.6084601621
   2       0.6503000000      0.5390624619
  end;

------------------------------------------------------------------------------
                             ORCA STARTUP CALCULATIONS
------------------------------------------------------------------------------
------------------------------------------------------------------------------
                   ___                                                        
                  /   \      - P O W E R E D   B Y -                         
                 /     \                                                     
                 |  |  |   _    _      __       _____    __    __             
                 |  |  |  | |  | |    /  \     |  _  \  |  |  /  |          
                  \  \/   | |  | |   /    \    | | | |  |  | /  /          
                 / \  \   | |__| |  /  /\  \   | |_| |  |  |/  /          
                |  |  |   |  __  | /  /__\  \  |    /   |      \           
                |  |  |   | |  | | |   __   |  |    \   |  |\   \          
                \     /   | |  | | |  |  |  |  | |\  \  |  | \   \       
                 \___/    |_|  |_| |__|  |__|  |_| \__\ |__|  \__/        
                                                                              
                      - O R C A' S   B I G   F R I E N D -                    
                                      &                                       
                       - I N T E G R A L  F E E D E R -                       
                                                                              
 v1 FN, 2020, v2 2021, v3 2022-2024                                           
------------------------------------------------------------------------------


----------------------
SHARK INTEGRAL PACKAGE
----------------------

Number of atoms                             ...      2
Number of basis functions                   ...    127
Number of shells                            ...     35
Maximum angular momentum                    ...      5
Integral batch strategy                     ... SHARK/LIBINT Hybrid
RI-J (if used) integral strategy            ... SPLIT-RIJ (Revised 2003 algorithm where possible)
Printlevel                                  ...      1
Contraction scheme used                     ... GENERAL contraction
Prescreening option                         ... SCHWARTZ
   Thresh                                   ... 1.000e-12
   Tcut                                     ... 1.000e-11
   Tpresel                                  ... 1.000e-11 
Coulomb Range Separation                    ... NOT USED
Exchange Range Separation                   ... NOT USED
Multipole approximations                    ... NOT USED
Finite Nucleus Model                        ... NOT USED
CABS basis                                  ... NOT available
Auxiliary Coulomb fitting basis             ... NOT available
Auxiliary J/K fitting basis                 ... NOT available
Auxiliary Correlation fitting basis         ... NOT available
Auxiliary 'external' fitting basis          ... NOT available

Checking pre-screening integrals            ... done (  0.0 sec) Dimension = 35
Calculate PGC pre-screening integrals       ... done (  0.2 sec) Dimension = 95
Calculate PGC overlap integrals             ... done (  0.2 sec) Dimension = 95
Check shell pair data                       ... done (  0.0 sec)
Shell pair information
Shell pair cut-off parameter TPreSel        ...   1.0e-11
Total number of shell pairs                 ...       630
Shell pairs after pre-screening             ...         0
Total number of primitive shell pairs       ...    145679
Primitive shell pairs kept                  ...      5254

Calculating one electron integrals          ... done (  0.0 sec)
Calculating Nuclear repulsion               ... done (  0.0 sec) ENN=     23.971787465459 Eh

Diagonalization of the overlap matrix:
Smallest eigenvalue                        ... 1.307e-03
Time for diagonalization                   ...    0.001 sec
Threshold for overlap eigenvalues          ... 1.000e-07
Number of eigenvalues below threshold      ... 0
Time for construction of square roots      ...    0.001 sec
Total time needed                          ...    0.004 sec

-------------------
DFT GRID GENERATION
-------------------

General Integration Accuracy     IntAcc      ... 4.388
Radial Grid Type                 RadialGrid  ... OptM3 with GC (2021)
Angular Grid (max. ang.)         AngularGrid ... 4 (Lebedev-302)
Angular grid pruning method      GridPruning ... 4 (adaptive)
Weight generation scheme         WeightScheme... mBecke (2022)
Basis function cutoff            BFCut       ... 1.0000e-10
Integration weight cutoff        WCut        ... 1.0000e-14
Partially contracted basis set               ... off
Rotationally invariant grid construction     ... off
Angular grids for H and He will be reduced by one unit
Diffuse basis detected: some atoms will have their outermost
                        angular grid increased by 1.
Core-polarized basis detected: some atoms will have their core
                               angular grid increased.
Steep s-basis detected: some atoms will have their radial
                        grid points doubled.

Total number of grid points                  ...    32763
Total number of batches                      ...      513
Average number of points per batch           ...       63
Average number of grid points per atom       ...    16382
Initializing property integral containers    ... done (  0.0 sec)

SHARK setup successfully completed in  17.5 seconds

Maximum memory used throughout the entire STARTUP-calculation: 1252.0 MB
-------------------------------------------------------------------------------
                                 ORCA GUESS
                   Start orbitals & Density for SCF / CASSCF
-------------------------------------------------------------------------------

------------
SCF SETTINGS
------------
Hamiltonian:
 Density Functional     Method          .... DFT(GTOs)
 Exchange Functional    Exchange        .... B88
   X-Alpha parameter    XAlpha          ....  0.666667
   Becke's b parameter  XBeta           ....  0.004200
 Correlation Functional Correlation     .... LYP
 LDA part of GGA corr.  LDAOpt          .... VWN-3
 Gradients option       PostSCFGGA      .... off
 Hybrid DFT is turned on
   Fraction HF Exchange ScalHFX         ....  0.200000
   Scaling of DF-GGA-X  ScalDFX         ....  0.720000
   Scaling of DF-GGA-C  ScalDFC         ....  0.810000
   Scaling of DF-LDA-C  ScalLDAC        ....  1.000000
   Perturbative correction              ....  0.000000
   NL short-range parameter             ....  4.800000


General Settings:
 Integral files         IntName         .... hgh_cpks
 Hartree-Fock type      HFTyp           .... UHF
 Total Charge           Charge          ....    0
 Multiplicity           Mult            ....    2
 Number of Electrons    NEL             ....   81
 Basis Dimension        Dim             ....  127
 Nuclear Repulsion      ENuc            ....     23.9717874655 Eh

Convergence Acceleration:
 AO-DIIS                CNVDIIS         .... on
   Start iteration      DIISMaxIt       ....    12
   Startup error        DIISStart       ....  0.200000
   # of expansion vecs  DIISMaxEq       ....     5
   Bias factor          DIISBfac        ....   1.050
   Max. coefficient     DIISMaxC        ....  10.000
 MO-DIIS                CNVKDIIS        .... off
 Trust-Rad. Augm. Hess. CNVTRAH         .... auto
   Auto Start mean grad. ratio tolernc. ....  1.125000
   Auto Start start iteration           ....    50
   Auto Start num. interpolation iter.  ....    10
   Max. Number of Micro iterations      ....    24
   Max. Number of Macro iterations      .... Maxiter - #DIIS iter
   Number of Davidson start vectors     ....     2
   Converg. threshold    (grad. norm)   ....   5.000e-05
   Grad. Scal. Fac. for Micro threshold ....   0.100
   Minimum threshold for Micro iter.    ....   1.000e-02
   NR start threshold (gradient norm)   ....   1.000e-04
   Initial trust radius                 ....   0.400
   Minimum AH scaling param. (alpha)    ....   1.000
   Maximum AH scaling param. (alpha)    .... 1000.000
   Quad. conv. algorithm                .... NR
   White noise on init. David. guess    .... on
   Maximum white noise                  ....   0.010
   Pseudo random numbers                .... off
   Inactive MOs                         .... canonical
   Orbital update algorithm             .... Taylor
   Preconditioner                       .... Diag
   Full preconditioner red. dimension   ....   250
 SOSCF                  CNVSOSCF        .... on
   Start iteration      SOSCFMaxIt      ....   150
   Startup grad/error   SOSCFStart      ....  0.003300
   Hessian update       SOSCFHessUp     .... L-BFGS
 Level Shifting         CNVShift        .... on
   Level shift para.    LevelShift      ....    0.2500
   Turn off err/grad.   ShiftErr        ....    0.0010
 Zerner damping         CNVZerner       .... off
 Static damping         CNVDamp         .... on
   Fraction old density DampFac         ....    0.7000
   Max. Damping (<1)    DampMax         ....    0.9800
   Min. Damping (>=0)   DampMin         ....    0.0000
   Turn off err/grad.   DampErr         ....    0.1000

SCF Procedure:
 Maximum # iterations   MaxIter         ....   500
 SCF integral mode      SCFMode         .... Direct
   Integral package                     .... SHARK and LIBINT hybrid scheme
 Reset frequency        DirectResetFreq ....    20
 Integral Threshold     Thresh          ....  1.000e-12 Eh
 Primitive CutOff       TCut            ....  1.000e-11 Eh

Convergence Tolerance:
 Convergence Check Mode ConvCheckMode   .... Total+1el-Energy
 Convergence forced     ConvForced      .... 0
 Energy Change          TolE            ....  1.000e-08 Eh
 1-El. energy change                    ....  1.000e-05 Eh
 Orbital Gradient       TolG            ....  5.000e-05
 Orbital Rotation angle TolX            ....  5.000e-05
 DIIS Error             TolErr          ....  1.000e-06

------------------------------
INITIAL GUESS: MODEL POTENTIAL
------------------------------
Loading Hartree-Fock densities                     ... done
Calculating cut-offs                               ... done
Initializing the effective Hamiltonian             ... done
Setting up the integral package (SHARK)            ... done
Starting the Coulomb interaction                   ... done (   2.6 sec)
Making the grid                                    ... done (   0.2 sec)
Mapping shells                                     ... done
Starting the XC term evaluation                    ... done (   0.1 sec)
  promolecular density results
     # of electrons  =     81.004292606
     EX              =   -375.963161079
     EC              =     -4.376609176
     EX+EC           =   -380.339770254
Transforming the Hamiltonian                       ... done (   0.0 sec)
Diagonalizing the Hamiltonian                      ... done (   0.0 sec)
Back transforming the eigenvectors                 ... done (   0.0 sec)
Now organizing SCF variables                       ... done
                      ------------------
                      INITIAL GUESS DONE (   3.0 sec)
                      ------------------
----------------------
INITIAL GUESS ORBITALS
----------------------
                      0         1         2         3         4         5   
                 -1745.29216 -421.48995 -421.48387 -421.48387 -247.31954 -91.67971
                   1.00000   1.00000   1.00000   1.00000   1.00000   1.00000
                  --------  --------  --------  --------  --------  --------
  0H   1s         0.085548  0.022831 -0.000000 -0.000000 -0.203886 -0.066646
  0H   2s         0.019742  0.009365 -0.000000 -0.000000 -0.045764 -0.027278
  0H   3s        -0.032942 -0.006628  0.000000  0.000000  0.079267  0.019422
  0H   4s        -0.003372 -0.001525  0.000000  0.000000  0.008034  0.004376
  0H   1pz       -0.000000  0.000000  0.001418 -0.000000 -0.000000  0.000000
  0H   1px        0.056272  0.010255 -0.000000 -0.000000 -0.134659 -0.030122
  0H   1py       -0.000000  0.000000  0.000000  0.001418 -0.000000  0.000000
  0H   2pz       -0.000000  0.000000  0.001041 -0.000000 -0.000000  0.000000
  0H   2px        0.024608  0.007097 -0.000000 -0.000000 -0.058672 -0.020775
  0H   2py       -0.000000  0.000000  0.000000  0.001041 -0.000000  0.000000
  0H   3pz       -0.000000  0.000000  0.000035 -0.000000 -0.000000  0.000000
  0H   3px       -0.007635  0.000697  0.000000 -0.000000  0.018327 -0.001951
  0H   3py       -0.000000  0.000000  0.000000  0.000035 -0.000000  0.000000
  0H   1dz2      -0.006853 -0.000030 -0.000000  0.000000  0.016377  0.000167
  0H   1dxz      -0.000000  0.000000  0.000382 -0.000000 -0.000000  0.000000
  0H   1dyz       0.000000 -0.000000  0.000000  0.000000  0.000000  0.000000
  0H   1dx2y2     0.011869  0.000052 -0.000000  0.000000 -0.028366 -0.000288
  0H   1dxy      -0.000000  0.000000  0.000000  0.000382 -0.000000  0.000000
  0H   2dz2      -0.003243 -0.000004 -0.000000  0.000000  0.007726  0.000043
  0H   2dxz      -0.000000  0.000000  0.000410 -0.000000 -0.000000  0.000000
  0H   2dyz       0.000000  0.000000  0.000000  0.000000  0.000000  0.000000
  0H   2dx2y2     0.005617  0.000006 -0.000000  0.000000 -0.013381 -0.000074
  0H   2dxy      -0.000000  0.000000  0.000000  0.000410 -0.000000  0.000000
  1Hg  1s         0.887587 -0.000018  0.000000  0.000000 -0.145378  0.000057
  1Hg  2s         0.424290 -0.000316 -0.000000  0.000000  0.620689  0.000660
  1Hg  3s        -0.157557 -0.000701  0.000000  0.000000  0.743383  0.001414
  1Hg  4s         0.064996 -0.002068  0.000000  0.000000 -0.181864  0.005908
  1Hg  5s        -0.060937 -0.007123  0.000000  0.000000  0.149180  0.020900
  1Hg  6s        -0.055523 -0.018664  0.000000  0.000000  0.130921  0.054500
  1Hg  7s        -0.009606 -0.002260  0.000000 -0.000000  0.023421  0.006481
  1Hg  8s         0.034365  0.001394 -0.000000 -0.000000 -0.084016 -0.004098
  1Hg  1pz        0.000000 -0.000000 -0.996408  0.000001 -0.000000 -0.000000
  1Hg  1px        0.000058  0.996411 -0.000000 -0.000000  0.000039 -0.072696
  1Hg  1py        0.000000 -0.000000 -0.000001 -0.996408 -0.000000 -0.000000
  1Hg  2pz        0.000000 -0.000000 -0.077329  0.000000 -0.000000  0.000000
  1Hg  2px        0.000471  0.077398 -0.000000 -0.000000 -0.000998  0.989905
  1Hg  2py       -0.000000 -0.000000 -0.000000 -0.077329  0.000000  0.000000
  1Hg  3pz        0.000000  0.000000  0.030548 -0.000000  0.000000  0.000000
  1Hg  3px        0.003449 -0.029948  0.000000  0.000000 -0.008279  0.107274
  1Hg  3py        0.000000  0.000000  0.000000  0.030548 -0.000000  0.000000
  1Hg  4pz        0.000000 -0.000000 -0.012102  0.000000  0.000000 -0.000000
  1Hg  4px        0.027137  0.016909 -0.000000 -0.000000 -0.064844 -0.050645
  1Hg  4py        0.000000 -0.000000 -0.000000 -0.012102  0.000000 -0.000000
  1Hg  5pz        0.000000 -0.000000  0.001950 -0.000000  0.000000 -0.000000
  1Hg  5px        0.060951  0.012926 -0.000000 -0.000000 -0.145255 -0.037619
  1Hg  5py        0.000000  0.000000  0.000000  0.001950  0.000000 -0.000000
  1Hg  6pz       -0.000000 -0.000000 -0.006909  0.000000 -0.000000 -0.000000
  1Hg  6px       -0.025519  0.004260 -0.000000 -0.000000  0.061461 -0.012402
  1Hg  6py       -0.000000 -0.000000 -0.000000 -0.006909 -0.000000 -0.000000
  1Hg  7pz       -0.000000  0.000000  0.007888 -0.000000 -0.000000  0.000000
  1Hg  7px       -0.018439 -0.012218  0.000000  0.000000  0.044422  0.035692
  1Hg  7py       -0.000000  0.000000  0.000000  0.007888  0.000000  0.000000
  1Hg  1dz2       0.000023  0.000002  0.000000 -0.000000 -0.000056  0.000102
  1Hg  1dxz      -0.000000 -0.000000  0.000000 -0.000000  0.000000  0.000000
  1Hg  1dyz       0.000000  0.000000 -0.000000  0.000000 -0.000000 -0.000000
  1Hg  1dx2y2    -0.000041 -0.000004  0.000000 -0.000000  0.000096 -0.000177
  1Hg  1dxy      -0.000000 -0.000000  0.000000  0.000000  0.000000  0.000000
  1Hg  2dz2       0.000544  0.000078 -0.000000  0.000000 -0.001301 -0.000234
  1Hg  2dxz       0.000000 -0.000000  0.000015 -0.000000 -0.000000  0.000000
  1Hg  2dyz      -0.000000  0.000000 -0.000000  0.000000  0.000000 -0.000000
  1Hg  2dx2y2    -0.000942 -0.000136  0.000000  0.000000  0.002254  0.000406
  1Hg  2dxy      -0.000000  0.000000  0.000000  0.000015  0.000000  0.000000
  1Hg  3dz2       0.012283  0.002093 -0.000000 -0.000000 -0.029408 -0.006148
  1Hg  3dxz      -0.000000  0.000000  0.000476 -0.000000 -0.000000 -0.000000
  1Hg  3dyz      -0.000000 -0.000000  0.000000 -0.000000  0.000000  0.000000
  1Hg  3dx2y2    -0.021275 -0.003626  0.000000  0.000000  0.050935  0.010649
  1Hg  3dxy      -0.000000  0.000000  0.000000  0.000476 -0.000000  0.000000
  1Hg  4dz2       0.015159  0.003148 -0.000000 -0.000000 -0.036291 -0.009213
  1Hg  4dxz      -0.000000  0.000000  0.000793 -0.000000 -0.000000  0.000000
  1Hg  4dyz      -0.000000  0.000000  0.000000  0.000000 -0.000000  0.000000
  1Hg  4dx2y2    -0.026257 -0.005452  0.000000  0.000000  0.062857  0.015957
  1Hg  4dxy      -0.000000  0.000000  0.000000  0.000793 -0.000000  0.000000
  1Hg  5dz2       0.005474  0.001979 -0.000000 -0.000000 -0.013085 -0.005722
  1Hg  5dxz      -0.000000  0.000000  0.000636 -0.000000 -0.000000 -0.000000
  1Hg  5dyz      -0.000000  0.000000  0.000000  0.000000 -0.000000  0.000000
  1Hg  5dx2y2    -0.009481 -0.003429  0.000000  0.000000  0.022664  0.009911
  1Hg  5dxy      -0.000000  0.000000  0.000000  0.000636 -0.000000  0.000000
  1Hg  1f0       -0.000000  0.000000  0.000008 -0.000000  0.000000 -0.000000
  1Hg  1f+1      -0.000385 -0.000044  0.000000  0.000000  0.000919  0.000128
  1Hg  1f-1       0.000000 -0.000000  0.000000  0.000003 -0.000000  0.000000
  1Hg  1f+2      -0.000000 -0.000000 -0.000010  0.000000  0.000000  0.000000
  1Hg  1f-2      -0.000000 -0.000000  0.000000 -0.000000  0.000000  0.000000
  1Hg  1f+3      -0.000497 -0.000057 -0.000000  0.000000  0.001187  0.000165
  1Hg  1f-3      -0.000000  0.000000  0.000000  0.000013  0.000000 -0.000000
  1Hg  2f0       -0.000000  0.000000  0.000192 -0.000000 -0.000000  0.000000
  1Hg  2f+1      -0.006559 -0.000911  0.000000  0.000000  0.015732  0.002687
  1Hg  2f-1      -0.000000  0.000000  0.000000  0.000079 -0.000000  0.000000
  1Hg  2f+2       0.000000 -0.000000 -0.000248  0.000000  0.000000 -0.000000
  1Hg  2f-2       0.000000  0.000000  0.000000  0.000000 -0.000000  0.000000
  1Hg  2f+3      -0.008468 -0.001176  0.000000  0.000000  0.020310  0.003470
  1Hg  2f-3      -0.000000  0.000000  0.000000  0.000304 -0.000000  0.000000
  1Hg  3f0       -0.000000  0.000000  0.000295 -0.000000 -0.000000  0.000000
  1Hg  3f+1      -0.007089 -0.001276  0.000000  0.000000  0.016967  0.003697
  1Hg  3f-1      -0.000000  0.000000  0.000000  0.000121  0.000000  0.000000
  1Hg  3f+2       0.000000 -0.000000 -0.000381  0.000000  0.000000 -0.000000
  1Hg  3f-2       0.000000 -0.000000 -0.000000 -0.000000 -0.000000  0.000000
  1Hg  3f+3      -0.009152 -0.001647  0.000000  0.000000  0.021905  0.004773
  1Hg  3f-3      -0.000000  0.000000  0.000000  0.000467 -0.000000  0.000000
  1Hg  1g0       -0.001223 -0.000099  0.000000 -0.000000  0.002939  0.000296
  1Hg  1g+1       0.000000  0.000000 -0.000097  0.000000  0.000000  0.000000
  1Hg  1g-1      -0.000000  0.000000  0.000000 -0.000000 -0.000000  0.000000
  1Hg  1g+2       0.001823  0.000147 -0.000000 -0.000000 -0.004381 -0.000441
  1Hg  1g-2       0.000000 -0.000000 -0.000000 -0.000046  0.000000 -0.000000
  1Hg  1g+3       0.000000 -0.000000 -0.000086  0.000000  0.000000  0.000000
  1Hg  1g-3       0.000000  0.000000  0.000000  0.000000  0.000000 -0.000000
  1Hg  1g+4       0.002412  0.000195 -0.000000  0.000000 -0.005796 -0.000584
  1Hg  1g-4       0.000000  0.000000 -0.000000 -0.000121  0.000000 -0.000000
  1Hg  2g0       -0.001352 -0.000150  0.000000 -0.000000  0.003249  0.000436
  1Hg  2g+1       0.000000  0.000000 -0.000169  0.000000  0.000000  0.000000
  1Hg  2g-1      -0.000000  0.000000  0.000000 -0.000000 -0.000000  0.000000
  1Hg  2g+2       0.002015  0.000223 -0.000000 -0.000000 -0.004843 -0.000650
  1Hg  2g-2       0.000000 -0.000000 -0.000000 -0.000080  0.000000 -0.000000
  1Hg  2g+3       0.000000 -0.000000 -0.000149  0.000000  0.000000  0.000000
  1Hg  2g-3       0.000000  0.000000 -0.000000  0.000000  0.000000 -0.000000
  1Hg  2g+4       0.002665  0.000295 -0.000000 -0.000000 -0.006407 -0.000860
  1Hg  2g-4       0.000000  0.000000 -0.000000 -0.000211 -0.000000 -0.000000
  1Hg  1h0        0.000000  0.000000 -0.000023  0.000000 -0.000000  0.000000
  1Hg  1h+1       0.000472 -0.000020 -0.000000  0.000000 -0.001134  0.000051
  1Hg  1h-1      -0.000000 -0.000000 -0.000000 -0.000006  0.000000 -0.000000
  1Hg  1h+2      -0.000000 -0.000000  0.000031 -0.000000 -0.000000 -0.000000
  1Hg  1h-2       0.000000 -0.000000 -0.000000  0.000000 -0.000000  0.000000
  1Hg  1h+3       0.000509 -0.000021 -0.000000 -0.000000 -0.001225  0.000055
  1Hg  1h-3       0.000000 -0.000000 -0.000000 -0.000019  0.000000 -0.000000
  1Hg  1h+4      -0.000000  0.000000  0.000027 -0.000000  0.000000 -0.000000
  1Hg  1h-4      -0.000000 -0.000000 -0.000000 -0.000000 -0.000000 -0.000000
  1Hg  1h+5       0.000683 -0.000029 -0.000000  0.000000 -0.001643  0.000074
  1Hg  1h-5       0.000000  0.000000 -0.000000 -0.000043  0.000000 -0.000000
                      6         7         8         9        10        11   
                 -91.66835 -91.66835 -81.03340 -81.03283 -81.03283 -81.03223
                   1.00000   1.00000   1.00000   1.00000   1.00000   1.00000
                  --------  --------  --------  --------  --------  --------
  0H   1s         0.000000  0.000000 -0.023765 -0.000000 -0.000000  0.000000
  0H   2s         0.000000  0.000000 -0.013796 -0.000000  0.000000  0.000000
  0H   3s         0.000000  0.000000  0.003960  0.000000  0.000000  0.000000
  0H   4s         0.000000  0.000000  0.001227  0.000000 -0.000000 -0.000000
  0H   1pz       -0.004118  0.000000 -0.000000 -0.000116 -0.003749 -0.000000
  0H   1px        0.000000  0.000000 -0.006724 -0.000000 -0.000000 -0.000000
  0H   1py       -0.000000 -0.004118 -0.000000  0.003749 -0.000116  0.000000
  0H   2pz       -0.003026  0.000000 -0.000000 -0.000117 -0.003788 -0.000000
  0H   2px        0.000000  0.000000 -0.004103 -0.000000 -0.000000 -0.000000
  0H   2py       -0.000000 -0.003026 -0.000000  0.003788 -0.000117  0.000000
  0H   3pz       -0.000104  0.000000 -0.000000 -0.000034 -0.001109 -0.000000
  0H   3px       -0.000000 -0.000000  0.000024 -0.000000  0.000000  0.000000
  0H   3py       -0.000000 -0.000104 -0.000000  0.001109 -0.000034  0.000000
  0H   1dz2      -0.000000 -0.000000 -0.000280  0.000000  0.000000 -0.000265
  0H   1dxz      -0.001118  0.000000 -0.000000 -0.000027 -0.000863 -0.000000
  0H   1dyz      -0.000000  0.000000 -0.000000 -0.000000 -0.000000 -0.000057
  0H   1dx2y2     0.000000  0.000000  0.000485  0.000000 -0.000000 -0.000153
  0H   1dxy      -0.000000 -0.001118  0.000000  0.000863 -0.000027  0.000000
  0H   2dz2      -0.000000 -0.000000 -0.000198  0.000000  0.000000 -0.000353
  0H   2dxz      -0.001178  0.000000 -0.000000 -0.000028 -0.000902 -0.000000
  0H   2dyz      -0.000000  0.000000 -0.000000 -0.000000 -0.000000 -0.000076
  0H   2dx2y2     0.000000  0.000000  0.000343  0.000000 -0.000000 -0.000204
  0H   2dxy      -0.000000 -0.001178 -0.000000  0.000902 -0.000028  0.000000
  1Hg  1s        -0.000000 -0.000000  0.000025  0.000000  0.000000  0.000000
  1Hg  2s        -0.000000 -0.000000  0.000164  0.000000  0.000000  0.000000
  1Hg  3s        -0.000000 -0.000000  0.000566  0.000000  0.000000  0.000000
  1Hg  4s        -0.000000 -0.000000  0.001759  0.000000  0.000000  0.000000
  1Hg  5s        -0.000000 -0.000000  0.006161  0.000000  0.000000  0.000000
  1Hg  6s        -0.000000 -0.000000  0.019068  0.000000  0.000000  0.000000
  1Hg  7s        -0.000000 -0.000000  0.005651  0.000000 -0.000000 -0.000000
  1Hg  8s        -0.000000 -0.000000  0.001429  0.000000 -0.000000 -0.000000
  1Hg  1pz        0.072723 -0.000000  0.000000 -0.000000 -0.000006 -0.000000
  1Hg  1px       -0.000000 -0.000000  0.000020 -0.000000  0.000000  0.000000
  1Hg  1py        0.000000  0.072723 -0.000000  0.000006 -0.000000  0.000000
  1Hg  2pz       -0.990188  0.000002 -0.000000  0.000003  0.000082  0.000000
  1Hg  2px        0.000000  0.000000 -0.000309 -0.000000 -0.000000 -0.000000
  1Hg  2py       -0.000002 -0.990188  0.000000 -0.000082  0.000003 -0.000000
  1Hg  3pz       -0.109126  0.000000  0.000000  0.000003  0.000098  0.000000
  1Hg  3px        0.000000  0.000000 -0.000542 -0.000000 -0.000000 -0.000000
  1Hg  3py       -0.000000 -0.109126  0.000000 -0.000098  0.000003 -0.000000
  1Hg  4pz        0.036549 -0.000000  0.000000  0.000023  0.000739  0.000000
  1Hg  4px       -0.000000 -0.000000 -0.004144 -0.000000 -0.000000 -0.000000
  1Hg  4py        0.000000  0.036549  0.000000 -0.000739  0.000023 -0.000000
  1Hg  5pz       -0.005845  0.000000  0.000000  0.000104  0.003374  0.000000
  1Hg  5px        0.000000  0.000000 -0.016707 -0.000000 -0.000000  0.000000
  1Hg  5py       -0.000000 -0.005845  0.000000 -0.003374  0.000104 -0.000000
  1Hg  6pz        0.020313 -0.000000 -0.000000  0.000012  0.000404  0.000000
  1Hg  6px       -0.000000 -0.000000 -0.000553  0.000000  0.000000  0.000000
  1Hg  6py        0.000000  0.020313  0.000000 -0.000404  0.000012 -0.000000
  1Hg  7pz       -0.023113  0.000000  0.000000 -0.000009 -0.000292 -0.000000
  1Hg  7px        0.000000  0.000000  0.002103  0.000000  0.000000  0.000000
  1Hg  7py       -0.000000 -0.023113  0.000000  0.000292 -0.000009  0.000000
  1Hg  1dz2      -0.000000  0.000000  0.499858  0.000003  0.000006 -0.850997
  1Hg  1dxz       0.000065 -0.000000  0.000001  0.030792  0.999250  0.000007
  1Hg  1dyz       0.000000 -0.000000 -0.000000 -0.000004 -0.000001 -0.184023
  1Hg  1dx2y2    -0.000000  0.000000 -0.865782  0.000001  0.000005 -0.491322
  1Hg  1dxy       0.000000  0.000065  0.000001 -0.999250  0.030792 -0.000001
  1Hg  2dz2      -0.000000  0.000000  0.010021  0.000000  0.000000 -0.017171
  1Hg  2dxz      -0.000043  0.000000  0.000000  0.000620  0.020122  0.000000
  1Hg  2dyz       0.000000 -0.000000 -0.000000 -0.000000 -0.000000 -0.003713
  1Hg  2dx2y2    -0.000000  0.000000 -0.017356  0.000000  0.000000 -0.009914
  1Hg  2dxy      -0.000000 -0.000043  0.000000 -0.020122  0.000620 -0.000000
  1Hg  3dz2       0.000000  0.000000 -0.004804 -0.000000 -0.000000  0.005059
  1Hg  3dxz      -0.001382  0.000000 -0.000000 -0.000219 -0.007109 -0.000000
  1Hg  3dyz      -0.000000  0.000000  0.000000  0.000000  0.000000  0.001094
  1Hg  3dx2y2     0.000000 -0.000000  0.008320  0.000000 -0.000000  0.002921
  1Hg  3dxy      -0.000000 -0.001382 -0.000000  0.007109 -0.000219  0.000000
  1Hg  4dz2      -0.000000  0.000000  0.000287  0.000000  0.000000 -0.005630
  1Hg  4dxz      -0.002304  0.000000  0.000000  0.000140  0.004542  0.000000
  1Hg  4dyz       0.000000 -0.000000 -0.000000 -0.000000 -0.000000 -0.001217
  1Hg  4dx2y2     0.000000 -0.000000 -0.000496  0.000000  0.000000 -0.003250
  1Hg  4dxy      -0.000000 -0.002304  0.000000 -0.004542  0.000140 -0.000000
  1Hg  5dz2       0.000000 -0.000000 -0.006073 -0.000000 -0.000000  0.006375
  1Hg  5dxz      -0.001835  0.000000 -0.000000 -0.000290 -0.009418 -0.000000
  1Hg  5dyz       0.000000  0.000000  0.000000  0.000000  0.000000  0.001379
  1Hg  5dx2y2     0.000000 -0.000000  0.010519 -0.000000 -0.000000  0.003681
  1Hg  5dxy      -0.000000 -0.001835 -0.000000  0.009418 -0.000290  0.000000
  1Hg  1f0       -0.000022  0.000000  0.000000 -0.000000 -0.000014 -0.000000
  1Hg  1f+1      -0.000000 -0.000000  0.000033  0.000000  0.000000 -0.000000
  1Hg  1f-1       0.000000 -0.000009 -0.000000  0.000006 -0.000000  0.000000
  1Hg  1f+2       0.000029 -0.000000  0.000000  0.000001  0.000018  0.000000
  1Hg  1f-2      -0.000000  0.000000  0.000000 -0.000000 -0.000000 -0.000000
  1Hg  1f+3       0.000000 -0.000000  0.000042  0.000000  0.000000  0.000000
  1Hg  1f-3      -0.000000 -0.000035  0.000000  0.000022 -0.000001  0.000000
  1Hg  2f0       -0.000559  0.000000  0.000000 -0.000012 -0.000398 -0.000000
  1Hg  2f+1       0.000000 -0.000000  0.000835  0.000000  0.000000 -0.000062
  1Hg  2f-1      -0.000000 -0.000228 -0.000000  0.000163 -0.000005  0.000000
  1Hg  2f+2       0.000722 -0.000000  0.000000  0.000016  0.000514  0.000000
  1Hg  2f-2      -0.000000  0.000000  0.000000 -0.000000 -0.000000 -0.000015
  1Hg  2f+3       0.000000 -0.000000  0.001078  0.000000  0.000000  0.000048
  1Hg  2f-3      -0.000000 -0.000884  0.000000  0.000630 -0.000019  0.000000
  1Hg  3f0       -0.000848  0.000000  0.000000 -0.000019 -0.000632 -0.000000
  1Hg  3f+1       0.000000 -0.000000  0.001276  0.000000  0.000000 -0.000103
  1Hg  3f-1      -0.000000 -0.000346 -0.000000  0.000258 -0.000008  0.000000
  1Hg  3f+2       0.001095 -0.000000  0.000000  0.000025  0.000815  0.000000
  1Hg  3f-2      -0.000000  0.000000  0.000000 -0.000000 -0.000000 -0.000024
  1Hg  3f+3       0.000000 -0.000000  0.001647  0.000000  0.000000  0.000080
  1Hg  3f-3      -0.000000 -0.001341  0.000000  0.000999 -0.000031  0.000000
  1Hg  1g0       -0.000000 -0.000000  0.000091  0.000000 -0.000000 -0.000033
  1Hg  1g+1       0.000284 -0.000000  0.000000  0.000005  0.000151 -0.000000
  1Hg  1g-1      -0.000000  0.000000  0.000000 -0.000000 -0.000000 -0.000004
  1Hg  1g+2       0.000000  0.000000 -0.000136 -0.000000  0.000000  0.000030
  1Hg  1g-2       0.000000  0.000134 -0.000000 -0.000071  0.000002  0.000000
  1Hg  1g+3       0.000250 -0.000000  0.000000  0.000004  0.000133  0.000000
  1Hg  1g-3       0.000000 -0.000000 -0.000000  0.000000  0.000000 -0.000010
  1Hg  1g+4       0.000000  0.000000 -0.000179 -0.000000 -0.000000 -0.000039
  1Hg  1g-4       0.000000  0.000354 -0.000000 -0.000189  0.000006 -0.000000
  1Hg  2g0       -0.000000 -0.000000  0.000158  0.000000  0.000000 -0.000066
  1Hg  2g+1       0.000485 -0.000000  0.000000  0.000008  0.000253 -0.000000
  1Hg  2g-1      -0.000000  0.000000  0.000000  0.000000 -0.000000 -0.000008
  1Hg  2g+2       0.000000  0.000000 -0.000236  0.000000  0.000000  0.000059
  1Hg  2g-2       0.000000  0.000228 -0.000000 -0.000119  0.000004  0.000000
  1Hg  2g+3       0.000427 -0.000000  0.000000  0.000007  0.000223  0.000000
  1Hg  2g-3       0.000000 -0.000000 -0.000000  0.000000  0.000000 -0.000021
  1Hg  2g+4      -0.000000  0.000000 -0.000312 -0.000000 -0.000000 -0.000078
  1Hg  2g-4       0.000000  0.000604 -0.000000 -0.000316  0.000010 -0.000000
  1Hg  1h0        0.000066 -0.000000  0.000000  0.000001  0.000021  0.000000
  1Hg  1h+1       0.000000  0.000000  0.000019 -0.000000  0.000000  0.000024
  1Hg  1h-1       0.000000  0.000017 -0.000000 -0.000005  0.000000  0.000000
  1Hg  1h+2      -0.000090  0.000000 -0.000000 -0.000001 -0.000028 -0.000000
  1Hg  1h-2      -0.000000  0.000000  0.000000 -0.000000 -0.000000  0.000003
  1Hg  1h+3       0.000000  0.000000  0.000021 -0.000000 -0.000000  0.000011
  1Hg  1h-3       0.000000  0.000055 -0.000000 -0.000017  0.000001 -0.000000
  1Hg  1h+4      -0.000078  0.000000 -0.000000 -0.000001 -0.000024  0.000000
  1Hg  1h-4       0.000000 -0.000000 -0.000000  0.000000  0.000000  0.000006
  1Hg  1h+5       0.000000  0.000000  0.000028  0.000000 -0.000000 -0.000025
  1Hg  1h-5       0.000000  0.000123 -0.000000 -0.000038  0.000001  0.000000
                     12        13        14        15        16        17   
                 -81.03223 -46.57150 -16.59961 -16.58131 -16.58131 -11.89401
                   1.00000   1.00000   1.00000   1.00000   1.00000   1.00000
                  --------  --------  --------  --------  --------  --------
  0H   1s        -0.000000  0.359473 -0.188081  0.000000 -0.000000 -0.072151
  0H   2s        -0.000000  0.076498 -0.075948  0.000000 -0.000000 -0.042233
  0H   3s         0.000000 -0.142725  0.056007 -0.000000 -0.000000  0.011948
  0H   4s         0.000000 -0.014392  0.011686 -0.000000 -0.000000  0.003345
  0H   1pz        0.000000 -0.000000  0.000000  0.011729  0.001086 -0.000000
  0H   1px       -0.000000  0.239827 -0.086434  0.000000 -0.000000 -0.020359
  0H   1py       -0.000000 -0.000000  0.000000 -0.001086  0.011729 -0.000000
  0H   2pz        0.000000 -0.000000  0.000000  0.008673  0.000803 -0.000000
  0H   2px       -0.000000  0.104410 -0.059770  0.000000  0.000000 -0.012275
  0H   2py       -0.000000  0.000000  0.000000 -0.000803  0.008673 -0.000000
  0H   3pz        0.000000  0.000000  0.000000  0.000343  0.000032 -0.000000
  0H   3px        0.000000 -0.032326 -0.005263  0.000000  0.000000  0.000131
  0H   3py       -0.000000  0.000000  0.000000 -0.000032  0.000343 -0.000000
  0H   1dz2       0.000050 -0.029141  0.000884  0.000000  0.000000 -0.000725
  0H   1dxz       0.000000 -0.000000  0.000000  0.003213  0.000297 -0.000000
  0H   1dyz      -0.000306  0.000000  0.000000  0.000000 -0.000000 -0.000000
  0H   1dx2y2     0.000029  0.050474 -0.001530 -0.000000 -0.000000  0.001257
  0H   1dxy      -0.000000 -0.000000  0.000000 -0.000297  0.003213 -0.000000
  0H   2dz2       0.000066 -0.013774  0.000254  0.000000  0.000000 -0.000566
  0H   2dxz       0.000000 -0.000000  0.000000  0.003131  0.000290 -0.000000
  0H   2dyz      -0.000408  0.000000  0.000000  0.000000 -0.000000 -0.000000
  0H   2dx2y2     0.000038  0.023857 -0.000440 -0.000000 -0.000000  0.000981
  0H   2dxy      -0.000000 -0.000000  0.000000 -0.000290  0.003131 -0.000000
  1Hg  1s         0.000000  0.049360  0.000172 -0.000000  0.000000  0.000077
  1Hg  2s         0.000000 -0.137639  0.001819 -0.000000  0.000000  0.000498
  1Hg  3s         0.000000  0.384950  0.005153 -0.000000  0.000000  0.001730
  1Hg  4s         0.000000  0.844280  0.019668 -0.000000  0.000000  0.005376
  1Hg  5s         0.000000 -0.292158  0.060446 -0.000000  0.000000  0.018793
  1Hg  6s         0.000000 -0.224646  0.153835 -0.000000  0.000000  0.057971
  1Hg  7s         0.000000 -0.044962  0.017233 -0.000000  0.000000  0.017290
  1Hg  8s         0.000000  0.157228 -0.011953  0.000000  0.000000  0.004494
  1Hg  1pz        0.000000  0.000000 -0.000000 -0.034861 -0.003228  0.000000
  1Hg  1px       -0.000000  0.000042 -0.034941  0.000000  0.000000  0.000038
  1Hg  1py       -0.000000 -0.000000 -0.000000  0.003228 -0.034861  0.000000
  1Hg  2pz       -0.000000 -0.000000  0.000000  0.097139  0.008994 -0.000000
  1Hg  2px       -0.000000  0.002673  0.096481 -0.000000 -0.000000 -0.000364
  1Hg  2py        0.000000  0.000000  0.000000 -0.008994  0.097139 -0.000000
  1Hg  3pz       -0.000000  0.000000 -0.000000 -0.976685 -0.090427  0.000000
  1Hg  3px       -0.000000  0.015397 -0.985631  0.000000  0.000000 -0.000558
  1Hg  3py        0.000000  0.000000 -0.000000  0.090427 -0.976685  0.000000
  1Hg  4pz       -0.000000  0.000000 -0.000000 -0.135482 -0.012544  0.000000
  1Hg  4px       -0.000000  0.115021 -0.175842  0.000000  0.000000 -0.012373
  1Hg  4py        0.000000  0.000000 -0.000000  0.012544 -0.135482  0.000000
  1Hg  5pz       -0.000000 -0.000000  0.000000  0.020526  0.001900  0.000000
  1Hg  5px       -0.000000  0.256126 -0.102119  0.000000 -0.000000 -0.050806
  1Hg  5py        0.000000 -0.000000 -0.000000 -0.001900  0.020526  0.000000
  1Hg  6pz       -0.000000 -0.000000 -0.000000 -0.063394 -0.005869  0.000000
  1Hg  6px        0.000000 -0.110966 -0.039564  0.000000  0.000000 -0.001593
  1Hg  6py        0.000000 -0.000000 -0.000000  0.005869 -0.063394  0.000000
  1Hg  7pz        0.000000 -0.000000  0.000000  0.069838  0.006466  0.000000
  1Hg  7px        0.000000 -0.079969  0.105228 -0.000000 -0.000000  0.005832
  1Hg  7py       -0.000000 -0.000000  0.000000 -0.006466  0.069838  0.000000
  1Hg  1dz2       0.159368  0.000106 -0.000060 -0.000000  0.000000  0.009801
  1Hg  1dxz      -0.000002  0.000000 -0.000000  0.000017  0.000002  0.000000
  1Hg  1dyz      -0.982646 -0.000000  0.000000  0.000000 -0.000000 -0.000000
  1Hg  1dx2y2     0.092011 -0.000183  0.000104 -0.000000  0.000000 -0.016975
  1Hg  1dxy       0.000004  0.000000 -0.000000 -0.000002  0.000017  0.000000
  1Hg  2dz2       0.003216  0.002312 -0.001085 -0.000000  0.000000 -0.499610
  1Hg  2dxz      -0.000000  0.000000 -0.000000  0.000419  0.000039 -0.000000
  1Hg  2dyz      -0.019827 -0.000000 -0.000000 -0.000000 -0.000000  0.000000
  1Hg  2dx2y2     0.001857 -0.004005  0.001879 -0.000000  0.000000  0.865350
  1Hg  2dxy       0.000000 -0.000000 -0.000000 -0.000039  0.000419 -0.000000
  1Hg  3dz2      -0.000947  0.052269 -0.017571  0.000000 -0.000000 -0.018119
  1Hg  3dxz       0.000000 -0.000000  0.000000  0.003902  0.000361 -0.000000
  1Hg  3dyz       0.005842 -0.000000  0.000000 -0.000000  0.000000  0.000000
  1Hg  3dx2y2    -0.000547 -0.090533  0.030433 -0.000000  0.000000  0.031384
  1Hg  3dxy      -0.000000 -0.000000  0.000000 -0.000361  0.003902 -0.000000
  1Hg  4dz2       0.001054  0.064402 -0.026174  0.000000  0.000000  0.002974
  1Hg  4dxz      -0.000000 -0.000000  0.000000  0.006559  0.000607  0.000000
  1Hg  4dyz      -0.006500 -0.000000  0.000000 -0.000000 -0.000000 -0.000000
  1Hg  4dx2y2     0.000609 -0.111547  0.045334 -0.000000 -0.000000 -0.005150
  1Hg  4dxy       0.000000  0.000000  0.000000 -0.000607  0.006559 -0.000000
  1Hg  5dz2      -0.001194  0.023147 -0.015621  0.000000  0.000000 -0.019224
  1Hg  5dxz       0.000000 -0.000000  0.000000  0.005060  0.000468 -0.000000
  1Hg  5dyz       0.007361  0.000000  0.000000 -0.000000  0.000000  0.000000
  1Hg  5dx2y2    -0.000689 -0.040091  0.027056 -0.000000 -0.000000  0.033297
  1Hg  5dxy      -0.000000  0.000000  0.000000 -0.000468  0.005060 -0.000000
  1Hg  1f0        0.000000 -0.000000 -0.000000  0.000068  0.000006  0.000000
  1Hg  1f+1       0.000000 -0.001616  0.000362  0.000000  0.000000  0.000156
  1Hg  1f-1      -0.000000  0.000000  0.000000 -0.000003  0.000028 -0.000000
  1Hg  1f+2      -0.000000 -0.000000  0.000000 -0.000087 -0.000008  0.000000
  1Hg  1f-2      -0.000001 -0.000000  0.000000  0.000000 -0.000000  0.000000
  1Hg  1f+3      -0.000000 -0.002086  0.000467 -0.000000  0.000000  0.000202
  1Hg  1f-3      -0.000000 -0.000000 -0.000000 -0.000010  0.000107  0.000000
  1Hg  2f0        0.000000  0.000000  0.000000  0.001585  0.000147 -0.000000
  1Hg  2f+1       0.000012 -0.028002  0.007739 -0.000000  0.000000  0.002594
  1Hg  2f-1      -0.000000 -0.000000  0.000000 -0.000060  0.000647 -0.000000
  1Hg  2f+2       0.000000 -0.000000 -0.000000 -0.002046 -0.000189  0.000000
  1Hg  2f-2      -0.000078  0.000000  0.000000  0.000000  0.000000 -0.000000
  1Hg  2f+3      -0.000009 -0.036151  0.009990 -0.000000  0.000000  0.003348
  1Hg  2f-3      -0.000000 -0.000000  0.000000 -0.000232  0.002506  0.000000
  1Hg  3f0        0.000000  0.000000  0.000000  0.002258  0.000209 -0.000000
  1Hg  3f+1       0.000019 -0.029807  0.009948 -0.000000 -0.000000  0.003577
  1Hg  3f-1      -0.000000 -0.000000  0.000000 -0.000085  0.000921 -0.000000
  1Hg  3f+2      -0.000000  0.000000 -0.000000 -0.002915 -0.000270  0.000000
  1Hg  3f-2      -0.000131  0.000000  0.000000 -0.000000 -0.000000 -0.000000
  1Hg  3f+3      -0.000015 -0.038481  0.012842 -0.000000 -0.000000  0.004618
  1Hg  3f-3      -0.000000 -0.000000  0.000000 -0.000331  0.003570  0.000000
  1Hg  1g0        0.000006 -0.005229  0.000868 -0.000000  0.000000  0.000301
  1Hg  1g+1       0.000000  0.000000 -0.000000 -0.000810 -0.000075  0.000000
  1Hg  1g-1      -0.000021  0.000000 -0.000000 -0.000000 -0.000000  0.000000
  1Hg  1g+2      -0.000006  0.007795 -0.001295  0.000000 -0.000000 -0.000448
  1Hg  1g-2      -0.000000  0.000000 -0.000000  0.000035 -0.000381 -0.000000
  1Hg  1g+3      -0.000000  0.000000 -0.000000 -0.000714 -0.000066  0.000000
  1Hg  1g-3      -0.000055 -0.000000  0.000000  0.000000 -0.000000 -0.000000
  1Hg  1g+4       0.000007  0.010311 -0.001713  0.000000 -0.000000 -0.000593
  1Hg  1g-4       0.000000  0.000000 -0.000000  0.000094 -0.001010 -0.000000
  1Hg  2g0        0.000012 -0.005740  0.001172 -0.000000  0.000000  0.000449
  1Hg  2g+1       0.000000  0.000000 -0.000000 -0.001280 -0.000119  0.000000
  1Hg  2g-1      -0.000042  0.000000 -0.000000  0.000000 -0.000000  0.000000
  1Hg  2g+2      -0.000011  0.008557 -0.001749  0.000000 -0.000000 -0.000669
  1Hg  2g-2      -0.000000  0.000000 -0.000000  0.000056 -0.000602 -0.000000
  1Hg  2g+3      -0.000000  0.000000 -0.000000 -0.001128 -0.000104  0.000000
  1Hg  2g-3      -0.000110  0.000000  0.000000  0.000000 -0.000000 -0.000000
  1Hg  2g+4       0.000015  0.011320 -0.002312  0.000000 -0.000000 -0.000885
  1Hg  2g-4       0.000000  0.000000 -0.000000  0.000148 -0.001596 -0.000000
  1Hg  1h0       -0.000000  0.000000 -0.000000 -0.000173 -0.000016  0.000000
  1Hg  1h+1      -0.000005  0.001980  0.000101 -0.000000 -0.000000  0.000028
  1Hg  1h-1      -0.000000 -0.000000  0.000000  0.000004 -0.000044 -0.000000
  1Hg  1h+2       0.000000 -0.000000  0.000000  0.000236  0.000022 -0.000000
  1Hg  1h-2       0.000018  0.000000 -0.000000 -0.000000  0.000000  0.000000
  1Hg  1h+3      -0.000002  0.002138  0.000108 -0.000000 -0.000000  0.000029
  1Hg  1h-3       0.000000  0.000000 -0.000000  0.000013 -0.000144 -0.000000
  1Hg  1h+4      -0.000000 -0.000000  0.000000  0.000203  0.000019 -0.000000
  1Hg  1h-4       0.000032 -0.000000 -0.000000 -0.000000  0.000000 -0.000000
  1Hg  1h+5       0.000005  0.002869  0.000146 -0.000000 -0.000000  0.000040
  1Hg  1h-5       0.000000  0.000000 -0.000000  0.000030 -0.000323 -0.000000
                     18        19        20        21        22        23   
                 -11.89306 -11.89306 -11.89188 -11.89188  -7.08323  -3.28643
                   1.00000   1.00000   1.00000   1.00000   1.00000   1.00000
                  --------  --------  --------  --------  --------  --------
  0H   1s        -0.000000 -0.000000 -0.000000  0.000000 -0.473854 -0.064922
  0H   2s        -0.000000 -0.000000 -0.000000  0.000000 -0.069473 -0.026063
  0H   3s         0.000000  0.000000  0.000000 -0.000000  0.211195  0.014918
  0H   4s         0.000000  0.000000  0.000000 -0.000000  0.020910  0.000800
  0H   1pz        0.001728  0.011538 -0.000000  0.000000  0.000000  0.000000
  0H   1px       -0.000000  0.000000 -0.000000  0.000000 -0.335158 -0.032895
  0H   1py       -0.011538  0.001728 -0.000000 -0.000000  0.000000  0.000000
  0H   2pz        0.001773  0.011839 -0.000000  0.000000  0.000000  0.000000
  0H   2px       -0.000000 -0.000000 -0.000000  0.000000 -0.146271 -0.013132
  0H   2py       -0.011839  0.001773 -0.000000 -0.000000 -0.000000  0.000000
  0H   3pz        0.000496  0.003314 -0.000000  0.000000 -0.000000  0.000000
  0H   3px       -0.000000 -0.000000  0.000000 -0.000000  0.042859  0.003768
  0H   3py       -0.003314  0.000496 -0.000000 -0.000000 -0.000000 -0.000000
  0H   1dz2      -0.000000 -0.000000 -0.000878 -0.000006  0.041186  0.003833
  0H   1dxz       0.000399  0.002668 -0.000000  0.000000  0.000000  0.000000
  0H   1dyz       0.000000 -0.000000  0.000006 -0.001014 -0.000000 -0.000000
  0H   1dx2y2    -0.000000  0.000000 -0.000507 -0.000003 -0.071337 -0.006640
  0H   1dxy      -0.002668  0.000399 -0.000000 -0.000000  0.000000  0.000000
[...]
 1 Hg g-2             0.3       0.0       0.0       1.2       0.0       0.0
 1 Hg g+3            25.8       0.0       0.0       0.2       4.2       0.0
 1 Hg g+4             0.0       3.9       3.9       0.0       0.0       3.9
 1 Hg g-4             1.9       0.0       0.0       8.3       0.3       0.0
 1 Hg h0              0.6       0.0       0.0       0.3       7.7       0.0
 1 Hg h+1             0.0       1.2       2.2       0.0       0.0       3.4
 1 Hg h-1             0.0       0.0       0.0       0.5       0.0       0.0
 1 Hg h+2             1.1       0.0       0.0       0.5      14.3       0.0
 1 Hg h+3             0.0       1.3       2.5       0.0       0.0       3.9
 1 Hg h-3             0.0       0.0       0.0       5.4       0.2       0.0
 1 Hg h+4             0.8       0.0       0.0       0.4      10.6       0.0
 1 Hg h+5             0.0       2.1       4.2       0.0       0.0       7.0
 1 Hg h-5             0.1       0.0       0.0      26.4       1.0       0.0

                    126   
                 494.28774
                   0.00000
                  --------
 1 Hg s              99.8


                      *****************************
                      * MAYER POPULATION ANALYSIS *
                      *****************************

  NA   - Mulliken gross atomic population
  ZA   - Total nuclear charge
  QA   - Mulliken gross atomic charge
  VA   - Mayer's total valence
  BVA  - Mayer's bonded valence
  FA   - Mayer's free valence

  ATOM       NA         ZA         QA         VA         BVA        FA
  0 H      1.4610     1.0000    -0.4610     1.0520     1.0508     0.0012
  1 Hg    79.5390    80.0000     0.4610     2.0897     1.0508     1.0390

  Mayer bond orders larger than 0.100000
B(  0-H ,  1-Hg) :   1.0508 

-------
TIMINGS
-------

Total SCF time: 0 days 0 hours 49 min 51 sec 

Total time                  ....    2991.449 sec
Sum of individual times     ....    2991.359 sec  (100.0%)

SCF preparation             ....       0.063 sec  (  0.0%)
Fock matrix formation       ....    2990.545 sec  (100.0%)
  Startup                   ....       0.068 sec  (  0.0% of F)
  Coulomb+Exchange Fock     ....    2977.639 sec  ( 99.6% of F)
  XC integration            ....      12.263 sec  (  0.4% of F)
    XC Preparation          ....       0.000 sec  (  0.0% of XC)
    Basis function eval.    ....       4.111 sec  ( 33.5% of XC)
    Density eval.           ....       1.820 sec  ( 14.8% of XC)
    XC-Functional eval.     ....       0.586 sec  (  4.8% of XC)
    XC-Potential eval.      ....       5.389 sec  ( 43.9% of XC)
Diagonalization             ....       0.000 sec  (  0.0%)
Density matrix formation    ....       0.247 sec  (  0.0%)
Total Energy calculation    ....       0.054 sec  (  0.0%)
Population analysis         ....       0.049 sec  (  0.0%)
Orbital Transformation      ....       0.022 sec  (  0.0%)
Orbital Orthonormalization  ....       0.000 sec  (  0.0%)
DIIS solution               ....       0.334 sec  (  0.0%)
  MO trafo                  ....       0.000 sec  (  0.0 % of DIIS)
  Orb grad                  ....       0.000 sec  (  0.0 % of DIIS)
  Energy W gradient         ....       0.000 sec  (  0.0 % of DIIS)
  DIIS error                ....       0.010 sec  (  3.0 % of DIIS)
  DIIS work                 ....       0.280 sec  ( 83.8 % of DIIS)
  Form Q                    ....       0.000 sec  (  0.0 % of DIIS)
  Form QpQm                 ....       0.000 sec  (  0.0 % of DIIS)
  Exp/Cayley                ....       0.000 sec  (  0.0 % of DIIS)
  Orb update                ....       0.000 sec  (  0.0 % of DIIS)
  Wake-sleep                ....       0.033 sec  (  9.8 % of DIIS)
SOSCF solution              ....       0.044 sec  (  0.0%)
  MO trafo                  ....       0.020 sec  ( 45.8 % of SOSCF)
  Orb grad                  ....       0.002 sec  (  5.2 % of SOSCF)
  Rot update                ....       0.010 sec  ( 22.5 % of SOSCF)
  Step                      ....       0.012 sec  ( 26.4 % of SOSCF)
Finished LeanSCF after 2991.5 sec

Maximum memory used throughout the entire LEANSCF-calculation: 1247.1 MB

------------------------------------------------------------------------------
                         ORCA PROPERTY INTEGRAL CALCULATIONS
------------------------------------------------------------------------------

GBWName                                   ... hgh_cpks.gbw
Number of atoms                           ...      2
Number of basis functions                 ...    127
Max core memory                           ...   1024 MB

Dipole integrals                          ... YES
Quadrupole integrals                      ...  NO
Linear momentum integrals                 ...  NO
Angular momentum integrals                ... YES
Higher moments length integrals           ...  NO
Higher moments velocity integrals         ...  NO
Kinetic energy integrals                  ... YES
GIAO right hand sides                     ...  NO
GIAO dipole derivative integrals          ...  NO
SOC integrals                             ... YES
EPR diamagnetic integrals (GIAO)          ...  NO
EPR gauge integrals                       ... YES
Field gradient integrals                  ...  NO (   0 nuclei)
Spin-dipole/Fermi contact integrals       ...  NO (   0 nuclei)
Contact density integrals                 ...  NO (   0 nuclei)
Nucleus-orbit integrals                   ...  NO (   0 nuclei)
Geometric perturbations                   ...  NO (   2 nuclei)

Choice of electric origin   ... Center of mass
Position of electric origin ... (  3.3206,  0.0000,  0.0000) 
Choice of magnetic origin   ... Center of nuclear charge
Position of magnetic origin ... (  3.2961,  0.0000,  0.0000) 

Calculating integrals                     ... Electric Dipole (Length)     done (  0.1 sec)
Calculating integrals                     ... Kinetic Energy               done (  0.0 sec)
Calculating integrals                     ... Angular Momentum  (MagOri)   done (  0.0 sec)
Calculating integrals                     ... EPR-gauge integrals          done (  0.1 sec)
  g-Tensor DSO: Zeff (2-electron approx.) ... YES 
Calculating integrals                     ... Spin-Orbit Coupling
  Spin-orbit operator                     ... Spin-Orbit Mean-Field (SOMF)
      1-El-Flag                           ...  1 ON
      Coulomb-Flag                        ...  2 ON (Via COSJ)
      Exchange-Flag                       ...  3 ON (AMFI type)
      DFT-Correlation Flag                ...  0 OFF
      Max-Center                          ...  4   
      Relativistic Picture Change         ... OFF     
  Electron density on the grid            ... done (%5.1 lf sec) NEL=     0.233458000
  SOC Coulomb terms                       ... done (%5.1 lf sec)
  One-electron part                       ... done (  0.0 sec)
  Two-electron DoJ,X=0,1 MaxCenter=1      ... done (1098.0 sec)
  SOC integrals done (1127.7 sec)

Property integrals calculated in 1127.8 sec

Maximum memory used throughout the entire PROPINT-calculation: 5075.2 MB

-------------------------   --------------------
FINAL SINGLE POINT ENERGY    -15749.520809958483
-------------------------   --------------------

------------------------------------------------------------------------------
                            ORCA SCF RESPONSE CALCULATION
------------------------------------------------------------------------------

GBWName                                 ... hgh_cpks.gbw
Number of atoms                         ...      2
Number of basis functions               ...    127
Max core memory                         ...   1024 MB

Electric field perturbation             ...  NO
Quadrupolar field perturbation          ...  NO
Magnetic field perturbation (no GIAO)   ... YES
Magnetic field perturbation (with GIAO) ...  NO
Linear momentum (velocity) perturbation ...  NO
Spin-orbit coupling perturbation        ...  NO
Choice of electric origin               ... Center of mass
Position of electric origin             ...     3.320570     0.000000     0.000000
Choice of magnetic origin               ... Center of nuclear charge
Position of magnetic origin             ...     3.296056     0.000000     0.000000
Nuclear geometric perturbations         ...  NO (   6 perturbations)
Nucleus-orbit perturbations             ...  NO (   0 perturbations)
Spin-dipole/Fermi contact perturbations ...  NO (   0 perturbations)

Total number of real perturbations      ...      0
Total number of imaginary perturbations ...      3
Total number of triplet perturbations   ...      0
Total number of SOC perturbations       ...      0


                              ***************************
                              * IMAGINARY PERTURBATIONS *
                              ***************************



-------------------
SHARK CP-SCF DRIVER
-------------------

Dimension of the orbital basis          ...    127
Dimension of the CPSCF-problem          ...   7006
Number of operators                     ...      2
Max. number of iterations               ...    128
Convergence Tolerance                   ... 1.0e-03
Number of perturbations                 ...      3
Perturbation type                       ... IMAGINARY

----------------------------
POPLE LINEAR EQUATION SOLVER
----------------------------

  ITERATION   0:   ||err||_max =   9.3560e+00 ( 147.0 sec   0/  3 done)
  ITERATION   1:   ||err||_max =   6.5532e-02 ( 151.1 sec   0/  3 done)
  ITERATION   2:   ||err||_max =   4.2778e-03 ( 148.8 sec   1/  3 done)
  ITERATION   3:   ||err||_max =   3.2253e-04 ( 149.0 sec   3/  3 done)

CP-SCF equations solved in 596.0 sec
Response densities calculated in   0.3 sec

Maximum memory used throughout the entire SCFRESP-calculation: 1249.5 MB

------------------------------------------------------------------------------
                              ORCA PROPERTY CALCULATIONS
------------------------------------------------------------------------------

GBWName                                 ... hgh_cpks.gbw
Number of atoms                         ...      2
Number of basis functions               ...    127
Max core memory                         ...   1024 MB

Electric properties:
Dipole moment                           ... YES
Quadrupole moment                       ...  NO
Static polarizability (Dipole/Dipole)   ...  NO
Static polarizability (Dipole/Quad.)    ...  NO
Static polarizability (Quad./Quad.)     ...  NO
Static polarizability (Velocity)        ...  NO

Atomic electric properties:
Dipole moment                           ...  NO
Quadrupole moment                       ...  NO
Static polarizability                   ...  NO

Choice of electric origin               ... Center of mass
Position of electric origin             ...     3.320570     0.000000     0.000000

General magnetic properties:
Magnetizability                         ...  NO

EPR properties:
g-Tensor (aka g-matrix)                 ... YES
Zero-Field splitting spin-orbit         ...  NO
Zero-field splitting spin-spin          ...  NO
Hyperfine couplings                     ...  NO (   0 nuclei)
Quadrupole couplings                    ...  NO (   0 nuclei)
Contact density                         ...  NO (   0 nuclei)

NMR properties:
Chemical shifts                         ...  NO (   0 nuclei)
Spin-rotation constants                 ...  NO (   0 nuclei)
Spin-spin couplings                     ...  NO (   0 nuclei,    0 pairs)

Choice of magnetic origin               ... Center of nuclear charge
Position of magnetic origin             ...     3.296056     0.000000     0.000000

Properties with geometric perturbations:
SCF Hessian                             ...  NO
IR spectrum                             ...  NO
VCD spectrum                            ...  NO
X-ray spectroscopy properties:
SCF XES/XAS/RIXS spectra                ...  NO


-------------
DIPOLE MOMENT
-------------

Method             : SCF
Type of density    : Electron Density
Multiplicity       :   2
Irrep              :   0
Energy             : -15749.5208099584833690 Eh
Relativity type    : 
Basis              : AO
                                X                 Y                 Z
Electronic contribution:      3.346277376       0.000000018      -0.000000020
Nuclear contribution   :     -1.985654121       0.000000000       0.000000000
                        -----------------------------------------
Total Dipole Moment    :      1.360623255       0.000000018      -0.000000020
                        -----------------------------------------
Magnitude (a.u.)       :      1.360623255
Magnitude (Debye)      :      3.458429468



--------------------
Rotational spectrum 
--------------------
 
Rotational constants in cm-1:             0.000000             5.389294             5.389294 
Rotational constants in MHz :             0.000000        161566.982609        161566.982609 

Dipole components along the rotational axes: 
x,y,z [a.u.] :     1.360623     0.000000    -0.000000 
x,y,z [Debye]:     3.458429     0.000000    -0.000000 

 

Dipole moment calculation done in   0.1 sec 

-------------------
ELECTRONIC G-MATRIX
-------------------

Method             : SCF
Type of density    : Spin Density
Type of derivative : Magnetic Field (no GIAOs) (Direction=X)
Multiplicity       :   2
Irrep              :   0
Relativity type    : 
Basis              : AO
The g-matrix: 
            -19.3511734    0.0000000   -0.0000000
              0.0000000    2.2004921    0.0475274
              0.0000000    0.0474949    1.9635889
DSO contribution to g-matrix:
              0.0005506   -0.0000000   -0.0000000
             -0.0000000    0.0005337    0.0000528
             -0.0000000    0.0000528    0.0002703
PSO contribution to g-matrix:
            -21.3539016    0.0000000   -0.0000000
              0.0000000    0.1977809    0.0474745
              0.0000000    0.0474420   -0.0388590

Breakdown of the contributions
 gel          2.0023193    2.0023193    2.0023193
 gRMC        -0.0001417   -0.0001417   -0.0001417
 gDSO(1el)    0.0002601    0.0005439    0.0005506
 gDSO(2el)    0.0000000    0.0000000    0.0000000
 gDSO(tot)    0.0002601    0.0005439    0.0005506
 gPSO(1el)   -0.0491116    0.2119327  -21.8719455
 gPSO(2el)    0.0010896   -0.0049888    0.5180440
 gPSO(tot)   -0.0480220    0.2069439  -21.3539016
             ----------   ----------   ----------
 g(tot)       1.9544157    2.2096653   19.3511734 iso=  7.8384181
 Delta-g     -0.0479036    0.2073460   17.3488542 iso=  5.8360989

 Orientation: 
  X           0.0000000   -0.0000000   -1.0000000
  Y          -0.1895698    0.9818673   -0.0000000
  Z           0.9818673    0.1895698    0.0000000

Notes:  (1) The g-matrix conforms to the "BgS" spin Hamiltonian convention. 
        (2) The principal values are square roots of the eigenvalues of g*gT.
        (3) Orientations are eigenvectors of g*gT written as column vectors.
        (4) Individual contributions are projections of the full matrices onto the eigenvectors of g*gT.
        (5) Tensor is right-handed.

-------------------------------
G-TENSOR ATOM AND BOND ANALYSIS
-------------------------------

 NOTE: We project onto the eigenvectors of the total g-matrix
       that means that contributions do not necessarily add up to the final total g-values
       However, the values should be close and indicate which atoms dominantly contribute

 NOTE: We ONLY analyze the PSO term here!

 H -  0 :   -0.0000001    -0.0000013    -0.0000008    iso= -0.0000007  
 Hg-  1 :   -0.0480238 *   0.2067365 * -21.3541907 *  iso= -7.0651593 *
           ------------- ------------- ------------- -----------------
 Total-1c   -0.0480239     0.2067352   -21.3541915        -7.0651601
 Total-2c    0.0000019     0.0002087     0.0002899         0.0001668
 Total      -0.0480220     0.2069439   -21.3539016        -7.0649932

EPR g-tensor done in   0.1 sec 

Maximum memory used throughout the entire PROP-calculation: 16.5 MB

--------------------------------
SUGGESTED CITATIONS FOR THIS RUN
--------------------------------

Below you find a list of papers that are relevant to this ORCA run
We neither can nor want to force you to cite these papers, but we appreciate if you do
You receive ORCA, which is the product of decades of hard work by many enthusiastic individuals, for free
The only thing we kindly ask in return is that you cite our papers,
We deeply appreciate it, if you show your appreciation for ORCA by not just citing the generic ORCA reference.

Please note that relegating all ORCA citations to the supporting information does *not* help us.
SI sections are not indexed - citations you put there will not count into any citation statistics
But we need these citations in order to attract the funding resources that allow us to do what we are doing

Therefore, if you are a happy ORCA user, please consider citing a few of the papers listed below in the main body of your paper

In addition to the list printed below, the program has created the file hgh_cpks.bibtex that contains the list in bibtex format
You can import this file easily into all common literature databanks and citation aid programs


List of essential papers. We consider these as the minimum necessary citations

  1. Neese,F.
     Software update: the ORCA program system, version 5.0
     WIRES Comput. Molec. Sci., 2022 12(1)e1606
     doi.org/10.1002/wcms.1606

List of papers to cite with high priority. The work reported in these papers was absolutely
necessary for this run to complete.
Our perspective: the developers of density functionals and basis sets usually get cited in chemistry papers
Good! But without the algorithms to do something with them, the functionals or basis sets would not do anything.
Hence, in our opinion, the algorithm design and method developments papers are equally worthy of getting cited

  1. Neese,F.
     Prediction of electron paramagnetic resonance g values using coupled perturbed Hartree-Fock and Kohn-Sham theory
     J. Chem. Phys., 2001 115(24)11080-11096
     doi.org/10.1063/1.1419058
  2. Neese,F.
     Efficient and accurate approximations to the molecular spin-orbit coupling operator and their use in molecular g-tensor calculations
     J. Chem. Phys., 2005 122(3)Art. No. 034107
     doi.org/10.1063/1.1829047
  3. Neese,F.
     The SHARK Integral Generation and Digestion System
     J. Comp. Chem., 2022  1-16
     doi.org/10.1002/jcc.26942

List of suggested additional citations. These are papers that are important in the 'surrounding' of 
of this run, or papers that preceded the highly important papers. If you like your results we are grateful for a citation.

  1. Neese,F.
     The ORCA program system
     WIRES Comput. Molec. Sci., 2012 2(1)73-78
     doi.org/10.1002/wcms.81
  2. Neese,F.
     Software update: the ORCA program system, version 4.0
     WIRES Comput. Molec. Sci., 2018 8(1)1-6
     doi.org/10.1002/wcms.1327
  3. Neese,F.; Wennmohs,F.; Becker,U.; Riplinger,C.
     The ORCA quantum chemistry program package
     J. Chem. Phys., 2020 152 Art. No. L224108
     doi.org/10.1063/5.0004608

List of optional additional citations

  1. Neese,F.
     Approximate second-order SCF convergence for spin unrestricted wavefunctions
     Chem. Phys. Lett., 2000 325(1-3)93-98
     doi.org/10.1016/s0009-2614(00)00662-x

Timings for individual modules:

Sum of individual times          ...     4737.759 sec (=  78.963 min)
Startup calculation              ...       17.561 sec (=   0.293 min)   0.4 %
SCF iterations                   ...     2994.662 sec (=  49.911 min)  63.2 %
Property integrals               ...     1128.493 sec (=  18.808 min)  23.8 %
SCF Response                     ...      596.715 sec (=   9.945 min)  12.6 %
Property calculations            ...        0.328 sec (=   0.005 min)   0.0 %
                             ****ORCA TERMINATED NORMALLY****
TOTAL RUN TIME: 0 days 1 hours 18 minutes 57 seconds 937 msec
