                  Welcome to Q-Chem
     A Quantum Leap Into The Future Of Chemistry


 Q-Chem 6.0 (devel), Q-Chem, Inc., Pleasanton, CA (2022)

 E. Epifanovsky,  A. T. B. Gilbert,  Xintian Feng,  Joonho Lee,  Yuezhi Mao,  
 N. Mardirossian,  P. Pokhilko,  A. White,  M. Wormit,  M. P. Coons,  
 A. L. Dempwolff,  Zhengting Gan,  D. Hait,  P. R. Horn,  L. D. Jacobson,  
 I. Kaliman,  J. Kussmann,  A. W. Lange,  Ka Un Lao,  D. S. Levine,  Jie Liu,  
 S. C. McKenzie,  A. F. Morrison,  K. Nanda,  F. Plasser,  D. R. Rehn,  
 M. L. Vidal,  Zhi-Qiang You,  Ying Zhu,  B. Alam,  B. Albrecht,  
 A. Aldossary,  E. Alguire,  J. H. Andersen,  V. Athavale,  D. Barton,  
 K. Begam,  A. Behn,  N. Bellonzi,  Y. A. Bernard,  E. J. Berquist,  
 H. Burton,  A. Carreras,  K. Carter-Fenk,  Romit Chakraborty,  
 Chandrima Chakravarty,  Junhan Chen,  A. D. Chien,  K. D. Closser,  
 V. Cofer-Shabica,  L. Cunha,  S. Dasgupta,  Jia Deng,  M. de Wergifosse,  
 M. Diedenhofen,  Hainam Do,  S. Ehlert,  Po-Tung Fang,  S. Fatehi,  
 Qingguo Feng,  T. Friedhoff,  B. Ganoe,  J. Gayvert,  Qinghui Ge,  
 G. Gidofalvi,  M. Goldey,  J. Gomes,  C. Gonzalez-Espinoza,  S. Gulania,  
 A. Gunina,  J. A. Gyamfi,  M. W. D. Hanson-Heine,  P. H. P. Harbach,  
 A. W. Hauser,  M. F. Herbst,  M. Hernandez Vera,  M. Hodecker,  
 Z. C. Holden,  S. Houck,  Xunkun Huang,  Kerwin Hui,  B. C. Huynh,  
 K. Ikeda,  M. Ivanov,  Hyunjun Ji,  Zuxin Jin,  Hanjie Jiang,  B. Kaduk,  
 S. Kaehler,  R. Kang,  K. Khistyaev,  Jaehoon Kim,  Yongbin Kim,  
 P. Klunzinger,  Z. Koczor-Benda,  Joong Hoon Koh,  D. Kosenkov,  
 Saikiran Kotaru,  L. Koulias,  T. Kowalczyk,  C. M. Krauter,  K. Kue,  
 A. Kunitsa,  T. Kus,  A. Landau,  K. V. Lawler,  D. Lefrancois,  S. Lehtola,  
 Rain Li,  Shaozhi Li,  Yi-Pei Li,  Jiashu Liang,  M. Liebenthal,  
 Hung-Hsuan Lin,  You-Sheng Lin,  Fenglai Liu,  Kuan-Yu Liu,  
 M. Loipersberger,  A. Luenser,  C. Malbon,  A. Manjanath,  P. Manohar,  
 E. Mansoor,  S. F. Manzer,  Shan-Ping Mao,  A. V. Marenich,  T. Markovich,  
 S. Mason,  F. Matz,  S. A. Maurer,  P. F. McLaughlin,  M. F. S. J. Menger,  
 J.-M. Mewes,  S. A. Mewes,  P. Morgante,  Mohammad Mostafanejad,  
 J. W. Mullinax,  K. J. Oosterbaan,  G. Paran,  V. Parravicini,  
 Alexander C. Paul,  Suranjan K. Paul,  F. Pavosevic,  Zheng Pei,  S. Prager,  
 E. I. Proynov,  E. Ramos,  B. Rana,  A. E. Rask,  A. Rettig,  R. M. Richard,  
 F. Rob,  E. Rossomme,  T. Scheele,  M. Scheurer,  M. Schneider,  
 P. E. Schneider,  N. Sergueev,  S. M. Sharada,  Hengyuan Shen,  
 W. Skomorowski,  D. W. Small,  C. J. Stein,  Yingli Su,  Yu-Chuan Su,  
 E. J. Sundstrom,  Zhen Tao,  J. Thirman,  Hung-Yi Tsai,  T. Tsuchimochi,  
 N. M. Tubman,  C. Utku,  S. P. Veccham,  O. Vydrov,  J. Wenzel,  
 Jonathan Wong,  J. Witte,  A. Yamada,  Chou-Hsun Yang,  Kun Yao,  
 S. Yeganeh,  S. R. Yost,  A. Zech,  F. Zeller,  Igor Ying Zhang,  
 Xing Zhang,  Yu Zhang,  D. Zuev,  A. Aspuru-Guzik,  A. T. Bell,  
 N. A. Besley,  K. B. Bravaya,  B. R. Brooks,  D. Casanova,  Jeng-Da Chai,  
 Hsing-Ta Chen,  S. Coriani,  C. J. Cramer,  A. E. DePrince, III,  
 R. A. DiStasio Jr.,  A. Dreuw,  B. D. Dunietz,  T. R. Furlani,  
 W. A. Goddard III,  S. Grimme,  S. Hammes-Schiffer,  T. Head-Gordon,  
 W. J. Hehre,  Chao-Ping Hsu,  T.-C. Jagau,  Yousung Jung,  A. Klamt,  
 Jing Kong,  D. S. Lambrecht,  Xiangyuan Li,  WanZhen Liang,  N. J. Mayhall,  
 C. W. McCurdy,  J. B. Neaton,  T. Neudecker,  C. Ochsenfeld,  
 J. A. Parkhill,  R. Peverati,  V. A. Rassolov,  Haisheng Ren,  Yihan Shao,  
 L. V. Slipchenko,  R. P. Steele,  J. E. Subotnik,  A. J. W. Thom,  
 A. Tkatchenko,  D. G. Truhlar,  T. Van Voorhis,  Fan Wang,  
 T. A. Wesolowski,  K. B. Whaley,  H. L. Woodcock III,  P. M. Zimmerman,  
 S. Faraji,  P. M. W. Gill,  M. Head-Gordon,  J. M. Herbert,  A. I. Krylov

 Contributors to earlier versions of Q-Chem not listed above: 
 R. D. Adamson,  B. Austin,  R. Baer,  J. Baker,  G. J. O. Beran,  
 K. Brandhorst,  S. T. Brown,  E. F. C. Byrd,  Arup K. Chakraborty,  
 G. K. L. Chan,  Chun-Min Chang,  Yunqing Chen,  C.-L. Cheng,  
 Siu Hung Chien,  D. M. Chipman,  D. L. Crittenden,  H. Dachsel,  
 R. J. Doerksen,  A. D. Dutoi,  R. G. Edgar,  J. Fosso-Tande,  
 L. Fusti-Molnar,  D. Ghosh,  A. Ghysels,  A. Golubeva-Zadorozhnaya,  
 J. Gonthier,  M. S. Gordon,  S. R. Gwaltney,  G. Hawkins,  J. E. Herr,  
 A. Heyden,  S. Hirata,  E. G. Hohenstein,  G. Kedziora,  F. J. Keil,  
 C. Kelley,  Jihan Kim,  R. A. King,  R. Z. Khaliullin,  P. P. Korambath,  
 W. Kurlancheek,  A. Laurent,  A. M. Lee,  M. S. Lee,  S. V. Levchenko,  
 Ching Yeh Lin,  D. Liotard,  E. Livshits,  R. C. Lochan,  I. Lotan,  
 L. A. Martinez-Martinez,  P. E. Maslen,  N. Nair,  D. P. O'Neill,  
 D. Neuhauser,  E. Neuscamman,  C. M. Oana,  R. Olivares-Amaya,  R. Olson,  
 T. M. Perrine,  B. Peters,  P. A. Pieniazek,  A. Prociuk,  Y. M. Rhee,  
 J. Ritchie,  M. A. Rohrdanz,  E. Rosta,  N. J. Russ,  H. F. Schaefer III,  
 M. W. Schmidt,  N. E. Schultz,  S. Sharma,  N. Shenvi,  C. D. Sherrill,  
 A. C. Simmonett,  A. Sodt,  T. Stein,  D. Stuck,  K. S. Thanthiriwatte,  
 V. Vanovschi,  L. Vogt,  Tao Wang,  A. Warshel,  M. A. Watson,  
 C. F. Williams,  Q. Wu,  X. Xu,  Jun Yang,  W. Zhang,  Yan Zhao

   Please cite Q-Chem as follows:
  "Software for the frontiers of quantum chemistry:
   An overview of developments in the Q-Chem 5 package"
   J. Chem. Phys. 155, 084801 (2021)
   https://doi.org/10.1063/5.0055522 (open access)

 Q-Chem 6.0.1 for Intel X86 EM64T Linux

 Parts of Q-Chem use Armadillo 9.900.5 (Nocturnal Misbehaviour).
 http://arma.sourceforge.net/

 Q-Chem begins on Wed Oct 25 18:24:43 2023  

 Host: atlas-002
0

     Scratch files written to ./qchem31603//
 Processing $rem in /scratch/abel/SOFTWARE/qchem/config/preferences:
 Processing $rem in /dipc/acebg/.qchemrc:

 Checking the input file for inconsistencies... 	...done.

--------------------------------------------------------------
User input:
--------------------------------------------------------------
$comment
 RAS-SF CALCULATION
$end

$molecule
1 2    !charge and multiplicity
O1
H1 O1 oh
H2 O1 oh H1 hoh

oh = 0.997
hoh = 109.17
$end

$rem
!**CALCULATION TYPE***     
JOBTYPE            sp    
EXCHANGE           HF
CORRELATION        RASCI    !RASCI=Casanova; RASCI2=Zimmerman
BASIS              STO-3G

!***SCF REFERENCE***
UNRESTRICTED       FALSE
!SCF_ALGORITHM      DIIS_GDM !DIIS,DM,DIIS_DM,GDM,DIIS_GDM,GD
SCF_FINAL_PRINT     1 !0,1,2,3

!****RAS-SF****
RAS_ROOTS          5       !number of RAS-CI roots to be computed
SET_ITER           50     !number of iterations in RASCI
RAS_ELEC           9       !number of electrons in RAS2
RAS_ELEC_ALPHA     7      !spin-α electrons in RAS2 
RAS_ELEC_BETA      2      !spin-β electrons in RAS2
RAS_ACT            7       !number of orbitals in RAS2 
RAS_OCC            0       !number of orbitals in RAS1
CALC_SOC           TRUE   !calculate SOC for EOM-CC, RAS-CI, ADC, TDDFT/TDA and TDDFT
RAS_SOC_SYM_DENS   TRUE   !averaging of α and β densities
$end                                           
--------------------------------------------------------------
 ----------------------------------------------------------------
             Standard Nuclear Orientation (Angstroms)
    I     Atom           X                Y                Z
 ----------------------------------------------------------------
    1      O       0.0000000000     0.0000000000     0.1155512138
    2      H      -0.8125311840    -0.0000000000    -0.4622048550
    3      H       0.8125311840    -0.0000000000    -0.4622048550
 ----------------------------------------------------------------
 Molecular Point Group                 C2v   NOp =  4
 Largest Abelian Subgroup              C2v   NOp =  4
 Nuclear Repulsion Energy =           8.81794733 hartrees
 There are        5 alpha and        4 beta electrons
 Requested basis set is STO-3G
 There are 4 shells and 7 basis functions

 Total QAlloc Memory Limit   2000 MB
 Mega-Array Size       188 MB
 MEM_STATIC part       192 MB


                       Distance Matrix (Angstroms)
             O (  1)   H (  2)
   H (  2)  0.997000
   H (  3)  0.997000  1.625062
 
 A cutoff of  1.0D-09 yielded     10 shell pairs
 There are        34 function pairs
 Smallest overlap matrix eigenvalue = 3.69E-01

 Scale SEOQF with 1.000000e+00/1.000000e+00/1.000000e+00

 Standard Electronic Orientation quadrupole field applied
 Nucleus-field energy     =    -0.0000000001 hartrees
 Guess from superposition of atomic densities
 Warning:  Energy on first SCF cycle will be non-variational
 SAD guess density has 10.000000 electrons

 -----------------------------------------------------------------------
  General SCF calculation program by
  Eric Jon Sundstrom, Paul Horn, Yuezhi Mao, Dmitri Zuev, Alec White,
  David Stuck, Shaama M.S., Shane Yost, Joonho Lee, David Small,
  Daniel Levine, Susi Lehtola, Hugh Burton, Evgeny Epifanovsky,
  Bang C. Huynh
 -----------------------------------------------------------------------
 Hartree-Fock
 Orthonormalizing orbitals
 A restricted open-shell SCF calculation will be
 performed using GDM
 SCF converges when RMS gradient is below 1.0e-05
 ---------------------------------------
  Cycle       Energy        RMS Gradient
 ---------------------------------------
    1     -73.3635147193      7.08e-01   Descent step
    2     -73.6056312366      4.80e-01   Descent step
    3     -73.7368520924      2.15e-01   Normal BFGS step
Fro norm of D 1.079978425681e+00
transformation scaled by 2
    4     -73.7696809423      2.77e-01   Dog-leg BFGS step
    5     -74.1964929694      7.07e-01   Descent step
    6     -74.4164926355      4.43e-01   Descent step
    7     -74.5374703874      2.36e-01   Dog-leg BFGS step
    8     -74.5869005122      4.17e-02   Normal BFGS step
    9     -74.5890447905      4.57e-03   Normal BFGS step
   10     -74.5890695625      6.95e-04   Normal BFGS step
   11     -74.5890704876      8.08e-05   Normal BFGS step
   12     -74.5890704947      1.48e-05   Normal BFGS step
   13     -74.5890704950      2.79e-06  Convergence criterion met
The disked orbital energies are calculated using alpha and beta Focks
 ---------------------------------------
 Alpha HF Exchange    Energy =  -4.62961310953730
 Beta HF Exchange     Energy =  -3.95691977215189
 Nuclear Attraction   Energy =   0.00000000000000
 One-Electron (alpha) Energy = -61.65834291337190
 One-Electron (beta)  Energy = -54.46822629887320
 Total Coulomb        Energy =  41.30608427296401
 Final Alpha MO Eigenvalues
            1           2           3           4           5           6
    1 -20.9564318  -1.8227426  -1.1498602  -0.9724427  -1.1353990   0.0748869
            7
    1   0.1811098
 Final Beta MO Eigenvalues
            1           2           3           4           5           6
    1 -20.9279095  -1.6999410  -1.1068727  -0.9158670  -0.2917864   0.1236627
            7
    1   0.2328730
 SCF time:   CPU 0.08s  wall 1.00s 
<S^2> =          0.750000000
 SCF   energy in the final basis set =      -74.5890704950
 Total energy in the final basis set =      -74.5890704950
  
     ##========================================##
     ||                                        ||
     ||              R A S M A N 2             ||
     ||________________________________________||
     ||                                        ||
     ||  Author:                               ||
     ||                                        ||
     ||        David Casanova (2010)           ||
     ||                                        ||
     ##========================================##
  
  ***************************************************
  *  RAS-CI Dimensions:                             *
  *                                                 *
  *  Active Elec.:   9 ( 7, 2)   Active Orb.:   7   *
  *  Doubly Occ. :   0           Doubly Vir.:   0   *
  *  Frozen Occ. :   0           Frozen Vir.:   0   *
  *                                                 *
  *  Total CI configurations:        21             * 
  *    Active configurations:        21             * 
  *      Hole configurations:         0             * 
  *  Particle configurations:         0             * 
  *                                                 *
  *   Requested states:        5                    *
  *  Spin multiplicity: Any multiplicity            *
  *                                                 *
  ***************************************************
  
 
Direct CI diagonalization
 ---------------------------------------------------
 Iter    Rts Conv    Rts Left    Ttl Dev     Max Dev
 ---------------------------------------------------
   1         0           5      0.076034    0.043579
   2         2           3      0.090260    0.090085
   3         4           1      0.002889    0.002888
   4         4           1      0.000078    0.000077
   5         4           1      0.000003    0.000002
   6         5           0      0.000001    0.000001    Roots Converged
 ---------------------------------------------------
   
**************************************************
 RAS-CI total energy for state   1:    -73.568669292810
  Excitation energy (eV) =  0.000000000000
  State symmetry: B2    (C2v      )
  <S^2>      :  8.7500
  Dipole Moment:   -0.0000 X     0.0000 Y    -0.5645 Z
  Amplitudes : 
  
 | HOLE  | ALPHA   | BETA    | PART  |    AMPLITUDE 
--------------------------------------------------
 |       | 1111111 | 1100000 |       |     9.8986515016912E-01
 |       | 1111111 | 1000100 |       |     1.2337958248282E-01
--------------------------------------------------
*** Contributions RASCI wfn    Active: 100.00
                                 Hole:   0.00
                                 Part:   0.00

      Mulliken population analysis 
 ---------------------------------------------------
   Atom    Charge (a.u.)   Spin (a.u.)  
 ---------------------------------------------------
   1  O    1.045415        3.045415 
   2  H   -0.022708        0.977292 
   3  H   -0.022708        0.977292 
 ---------------------------------------------------
   Sum:    1.000000        5.000000 
 ---------------------------------------------------
 
  
**************************************************
 RAS-CI total energy for state   2:    -73.039057920379
  Excitation energy (eV) = 14.411458675966
  State symmetry: A2    (C2v      )
  <S^2>      :  8.7500
  Dipole Moment:    0.0000 X     0.0000 Y    -0.5211 Z
  Trans. Moment:    0.7045 X    -0.0000 Y     0.0000 Z
  Strength   :  0.175232
  Amplitudes : 
  
 | HOLE  | ALPHA   | BETA    | PART  |    AMPLITUDE 
--------------------------------------------------
 |       | 1111111 | 1010000 |       |     9.8071141875547E-01
 |       | 1111111 | 1000001 |       |     1.9544853966912E-01
--------------------------------------------------
*** Contributions RASCI wfn    Active: 100.00
                                 Hole:   0.00
                                 Part:   0.00

      Mulliken population analysis 
 ---------------------------------------------------
   Atom    Charge (a.u.)   Spin (a.u.)  
 ---------------------------------------------------
   1  O    1.141376        3.141376 
   2  H   -0.070688        0.929312 
   3  H   -0.070688        0.929312 
 ---------------------------------------------------
   Sum:    1.000000        5.000000 
 ---------------------------------------------------
 
  
**************************************************
 RAS-CI total energy for state   3:    -72.967373553064
  Excitation energy (eV) = 16.362089555595
  State symmetry: B2    (C2v      )
  <S^2>      :  8.7500
  Dipole Moment:   -0.0000 X     0.0000 Y    -0.2607 Z
  Trans. Moment:   -0.0000 X     0.0000 Y     0.6509 Z
  Strength   :  0.169815
  Amplitudes : 
  
 | HOLE  | ALPHA   | BETA    | PART  |    AMPLITUDE 
--------------------------------------------------
 |       | 1111111 | 1100000 |       |    -1.1508113201923E-01
 |       | 1111111 | 1000100 |       |     9.8703647985879E-01
 |       | 1111111 | 1000010 |       |    -1.1186025810616E-01
--------------------------------------------------
*** Contributions RASCI wfn    Active: 100.00
                                 Hole:   0.00
                                 Part:   0.00

      Mulliken population analysis 
 ---------------------------------------------------
   Atom    Charge (a.u.)   Spin (a.u.)  
 ---------------------------------------------------
   1  O    1.045834        3.045834 
   2  H   -0.022917        0.977083 
   3  H   -0.022917        0.977083 
 ---------------------------------------------------
   Sum:    1.000000        5.000000 
 ---------------------------------------------------
 
  
**************************************************
 RAS-CI total energy for state   4:    -72.922131462084
  Excitation energy (eV) = 17.593189487578
  State symmetry: A1    (C2v      )
  <S^2>      :  8.7500
  Dipole Moment:    0.0000 X    -0.0000 Y    -0.3795 Z
  Trans. Moment:    0.0000 X     0.6396 Y    -0.0000 Z
  Strength   :  0.176342
  Amplitudes : 
  
 | HOLE  | ALPHA   | BETA    | PART  |    AMPLITUDE 
--------------------------------------------------
 |       | 1111111 | 1001000 |       |     9.9999924891604E-01
--------------------------------------------------
*** Contributions RASCI wfn    Active: 100.00
                                 Hole:   0.00
                                 Part:   0.00

      Mulliken population analysis 
 ---------------------------------------------------
   Atom    Charge (a.u.)   Spin (a.u.)  
 ---------------------------------------------------
   1  O    0.999444        2.999444 
   2  H    0.000278        1.000278 
   3  H    0.000278        1.000278 
 ---------------------------------------------------
   Sum:    1.000000        5.000000 
 ---------------------------------------------------
 
  
**************************************************
 RAS-CI total energy for state   5:    -72.112876108179
  Excitation energy (eV) = 39.614148058706
  State symmetry: B2    (C2v      )
  <S^2>      :  8.7500
  Dipole Moment:   -0.0000 X     0.0000 Y    -1.5205 Z
  Trans. Moment:    0.0000 X     0.0000 Y     0.1172 Z
  Strength   :  0.013339
  Amplitudes : 
  
 | HOLE  | ALPHA   | BETA    | PART  |    AMPLITUDE 
--------------------------------------------------
 |       | 1111111 | 1000100 |       |     1.0263176210029E-01
 |       | 1111111 | 1000010 |       |     9.9122849568816E-01
--------------------------------------------------
*** Contributions RASCI wfn    Active: 100.00
                                 Hole:   0.00
                                 Part:   0.00

      Mulliken population analysis 
 ---------------------------------------------------
   Atom    Charge (a.u.)   Spin (a.u.)  
 ---------------------------------------------------
   1  O    1.907727        3.907727 
   2  H   -0.453863        0.546137 
   3  H   -0.453863        0.546137 
 ---------------------------------------------------
   Sum:    1.000000        5.000000 
 ---------------------------------------------------
 
  
--------------------------------------------------
 Interstate Transition Properties
--------------------------------------------------
State A: Root  1
State B: Root  2
  
Angular momentum components
< B | Lx | A > =    -0.000000000i
< B | Ly | A > =    -0.034702717i
< B | Lz | A > =    -0.000000000i
  
Norm of one-particle transition density matrix
||gamma^AB||_total       =  1.000000
||gamma^AB||_symmetrized =  0.707107
||gamma^AB||_anti-symm   =  0.707106
  
Spin-orbit couplings
 Using HF (reference) density for the 2-elec mean-field SOC contribution
KET: S',Sz' (Root   1) =  2.500 2.500
BRA: S ,Sz  (Root   2) =  2.500 2.500
 1e Reduced matrix elements (cm-1)
<S|| Hso(L-) ||S'> =     6.8193005881     0.0000000000
<S|| Hso(L0) ||S'> =     0.0000000000    -0.0000000000
<S|| Hso(L+) ||S'> =     6.8193005881    -0.0000000000
 1-elec SOC matrix (cm-1): < B(S,Sz) | Hso(1e) | A(S',Sz') >
                     |Sz'=-2.50>              |Sz'=-1.50>              |Sz'=-0.50>              |Sz'= 0.50>              |Sz'= 1.50>
 <Sz=-2.50|    0.000000   -0.000000i    -3.645069    0.000000i     0.000000    0.000000i     0.000000    0.000000i     0.000000    0.000000i
 <Sz=-1.50|    3.645069    0.000000i     0.000000   -0.000000i    -4.610689    0.000000i    -0.000000    0.000000i    -0.000000    0.000000i
 <Sz=-0.50|    0.000000    0.000000i     4.610689    0.000000i     0.000000   -0.000000i    -4.890374    0.000000i    -0.000000   -0.000000i
 <Sz= 0.50|    0.000000    0.000000i    -0.000000   -0.000000i     4.890374    0.000000i     0.000000    0.000000i    -4.610689    0.000000i
 <Sz= 1.50|    0.000000    0.000000i    -0.000000   -0.000000i    -0.000000   -0.000000i     4.610689    0.000000i     0.000000    0.000000i
 <Sz= 2.50|    0.000000    0.000000i     0.000000    0.000000i     0.000000    0.000000i    -0.000000   -0.000000i     3.645069    0.000000i
                     |Sz'= 2.50>
 <Sz=-2.50|    0.000000    0.000000i
 <Sz=-1.50|    0.000000    0.000000i
 <Sz=-0.50|    0.000000    0.000000i
 <Sz= 0.50|    0.000000    0.000000i
 <Sz= 1.50|   -3.645069    0.000000i
 <Sz= 2.50|    0.000000    0.000000i
1-elec SOCC =    13.638601176 cm-1
 Averagin spin alpha/beta reference densities
 2e-SOMF Reduced matrix elements (cm-1)
<S|| Hso(L-) ||S'> =    -2.7673294945    -0.0000000000
<S|| Hso(L0) ||S'> =     0.0000000000     0.0000000000
<S|| Hso(L+) ||S'> =    -2.7673294945     0.0000000000
 2-elec mean-field SOC matrix (cm-1): < B(S,Sz) | Hso(2e-mf) | A(S',Sz') >
                     |Sz'=-2.50>              |Sz'=-1.50>              |Sz'=-0.50>              |Sz'= 0.50>              |Sz'= 1.50>
 <Sz=-2.50|    0.000000    0.000000i     1.479200   -0.000000i     0.000000    0.000000i     0.000000    0.000000i     0.000000    0.000000i
 <Sz=-1.50|   -1.479200   -0.000000i    -0.000000    0.000000i     1.871056   -0.000000i     0.000000   -0.000000i     0.000000   -0.000000i
 <Sz=-0.50|    0.000000    0.000000i    -1.871056   -0.000000i    -0.000000    0.000000i     1.984555   -0.000000i     0.000000    0.000000i
 <Sz= 0.50|    0.000000    0.000000i     0.000000    0.000000i    -1.984555   -0.000000i    -0.000000   -0.000000i     1.871056   -0.000000i
 <Sz= 1.50|    0.000000    0.000000i     0.000000    0.000000i     0.000000    0.000000i    -1.871056   -0.000000i    -0.000000   -0.000000i
 <Sz= 2.50|    0.000000    0.000000i    -0.000000   -0.000000i    -0.000000   -0.000000i     0.000000    0.000000i    -1.479200   -0.000000i
                     |Sz'= 2.50>
 <Sz=-2.50|    0.000000    0.000000i
 <Sz=-1.50|    0.000000    0.000000i
 <Sz=-0.50|    0.000000    0.000000i
 <Sz= 0.50|    0.000000    0.000000i
 <Sz= 1.50|    1.479200   -0.000000i
 <Sz= 2.50|   -0.000000   -0.000000i
 Total mean-field SOC matrix (cm-1): < B(S,Sz) | Hsomf | A(S',Sz') >
                     |Sz'=-2.50>              |Sz'=-1.50>              |Sz'=-0.50>              |Sz'= 0.50>              |Sz'= 1.50>
 <Sz=-2.50|    0.000000   -0.000000i    -2.165870    0.000000i     0.000000    0.000000i     0.000000    0.000000i     0.000000    0.000000i
 <Sz=-1.50|    2.165870    0.000000i     0.000000   -0.000000i    -2.739632    0.000000i    -0.000000    0.000000i    -0.000000    0.000000i
 <Sz=-0.50|    0.000000    0.000000i     2.739632    0.000000i     0.000000   -0.000000i    -2.905819    0.000000i    -0.000000   -0.000000i
 <Sz= 0.50|    0.000000    0.000000i    -0.000000   -0.000000i     2.905819    0.000000i     0.000000    0.000000i    -2.739632    0.000000i
 <Sz= 1.50|    0.000000    0.000000i    -0.000000   -0.000000i    -0.000000   -0.000000i     2.739632    0.000000i     0.000000    0.000000i
 <Sz= 2.50|    0.000000    0.000000i     0.000000    0.000000i     0.000000    0.000000i    -0.000000   -0.000000i     2.165870    0.000000i
                     |Sz'= 2.50>
 <Sz=-2.50|    0.000000    0.000000i
 <Sz=-1.50|    0.000000    0.000000i
 <Sz=-0.50|    0.000000    0.000000i
 <Sz= 0.50|    0.000000    0.000000i
 <Sz= 1.50|   -2.165870    0.000000i
 <Sz= 2.50|    0.000000    0.000000i
Mean-Field SOCC =     8.103942187 cm-1
   
**************************************************
State A: Root  1
State B: Root  3
  
Angular momentum components
< B | Lx | A > =     0.000000000i
< B | Ly | A > =     0.000000000i
< B | Lz | A > =    -0.000000000i
  
Norm of one-particle transition density matrix
||gamma^AB||_total       =  0.999999
||gamma^AB||_symmetrized =  0.707107
||gamma^AB||_anti-symm   =  0.707106
  
Spin-orbit couplings
 Using HF (reference) density for the 2-elec mean-field SOC contribution
KET: S',Sz' (Root   1) =  2.500 2.500
BRA: S ,Sz  (Root   3) =  2.500 2.500
 1e Reduced matrix elements (cm-1)
<S|| Hso(L-) ||S'> =    -0.0000000000    -0.0000000000
<S|| Hso(L0) ||S'> =     0.0000000000    -0.0000000000
<S|| Hso(L+) ||S'> =    -0.0000000000     0.0000000000
 1-elec SOC matrix (cm-1): < B(S,Sz) | Hso(1e) | A(S',Sz') >
                     |Sz'=-2.50>              |Sz'=-1.50>              |Sz'=-0.50>              |Sz'= 0.50>              |Sz'= 1.50>
 <Sz=-2.50|    0.000000   -0.000000i     0.000000   -0.000000i     0.000000    0.000000i     0.000000    0.000000i     0.000000    0.000000i
 <Sz=-1.50|   -0.000000   -0.000000i    -0.000000   -0.000000i     0.000000   -0.000000i     0.000000   -0.000000i     0.000000   -0.000000i
 <Sz=-0.50|    0.000000    0.000000i    -0.000000   -0.000000i    -0.000000   -0.000000i     0.000000   -0.000000i     0.000000   -0.000000i
 <Sz= 0.50|    0.000000    0.000000i     0.000000    0.000000i    -0.000000   -0.000000i    -0.000000    0.000000i     0.000000   -0.000000i
 <Sz= 1.50|    0.000000    0.000000i     0.000000    0.000000i     0.000000    0.000000i    -0.000000   -0.000000i    -0.000000    0.000000i
 <Sz= 2.50|    0.000000    0.000000i    -0.000000   -0.000000i    -0.000000   -0.000000i     0.000000    0.000000i    -0.000000   -0.000000i
                     |Sz'= 2.50>
 <Sz=-2.50|    0.000000    0.000000i
 <Sz=-1.50|    0.000000    0.000000i
 <Sz=-0.50|    0.000000    0.000000i
 <Sz= 0.50|    0.000000    0.000000i
 <Sz= 1.50|    0.000000   -0.000000i
 <Sz= 2.50|   -0.000000    0.000000i
1-elec SOCC =     0.000000000 cm-1
 2e-SOMF Reduced matrix elements (cm-1)
<S|| Hso(L-) ||S'> =     0.0000000000     0.0000000000
<S|| Hso(L0) ||S'> =     0.0000000000    -0.0000000000
<S|| Hso(L+) ||S'> =     0.0000000000    -0.0000000000
 2-elec mean-field SOC matrix (cm-1): < B(S,Sz) | Hso(2e-mf) | A(S',Sz') >
                     |Sz'=-2.50>              |Sz'=-1.50>              |Sz'=-0.50>              |Sz'= 0.50>              |Sz'= 1.50>
 <Sz=-2.50|    0.000000   -0.000000i    -0.000000    0.000000i     0.000000    0.000000i     0.000000    0.000000i     0.000000    0.000000i
 <Sz=-1.50|    0.000000    0.000000i     0.000000   -0.000000i    -0.000000    0.000000i    -0.000000    0.000000i    -0.000000    0.000000i
 <Sz=-0.50|    0.000000    0.000000i     0.000000    0.000000i     0.000000   -0.000000i    -0.000000    0.000000i    -0.000000    0.000000i
 <Sz= 0.50|    0.000000    0.000000i    -0.000000   -0.000000i     0.000000    0.000000i     0.000000    0.000000i    -0.000000    0.000000i
 <Sz= 1.50|    0.000000    0.000000i    -0.000000   -0.000000i    -0.000000   -0.000000i     0.000000    0.000000i     0.000000    0.000000i
 <Sz= 2.50|    0.000000    0.000000i     0.000000    0.000000i     0.000000    0.000000i    -0.000000   -0.000000i     0.000000    0.000000i
                     |Sz'= 2.50>
 <Sz=-2.50|    0.000000    0.000000i
 <Sz=-1.50|    0.000000    0.000000i
 <Sz=-0.50|    0.000000    0.000000i
 <Sz= 0.50|    0.000000    0.000000i
 <Sz= 1.50|   -0.000000    0.000000i
 <Sz= 2.50|    0.000000    0.000000i
 Total mean-field SOC matrix (cm-1): < B(S,Sz) | Hsomf | A(S',Sz') >
                     |Sz'=-2.50>              |Sz'=-1.50>              |Sz'=-0.50>              |Sz'= 0.50>              |Sz'= 1.50>
 <Sz=-2.50|    0.000000   -0.000000i     0.000000   -0.000000i     0.000000    0.000000i     0.000000    0.000000i     0.000000    0.000000i
 <Sz=-1.50|   -0.000000   -0.000000i    -0.000000   -0.000000i     0.000000   -0.000000i     0.000000   -0.000000i     0.000000   -0.000000i
 <Sz=-0.50|    0.000000    0.000000i    -0.000000   -0.000000i    -0.000000   -0.000000i     0.000000   -0.000000i     0.000000   -0.000000i
 <Sz= 0.50|    0.000000    0.000000i     0.000000    0.000000i    -0.000000   -0.000000i    -0.000000    0.000000i     0.000000   -0.000000i
 <Sz= 1.50|    0.000000    0.000000i     0.000000    0.000000i     0.000000    0.000000i    -0.000000   -0.000000i    -0.000000    0.000000i
 <Sz= 2.50|    0.000000    0.000000i    -0.000000   -0.000000i    -0.000000   -0.000000i     0.000000    0.000000i    -0.000000   -0.000000i
                     |Sz'= 2.50>
 <Sz=-2.50|    0.000000    0.000000i
 <Sz=-1.50|    0.000000    0.000000i
 <Sz=-0.50|    0.000000    0.000000i
 <Sz= 0.50|    0.000000    0.000000i
 <Sz= 1.50|    0.000000   -0.000000i
 <Sz= 2.50|   -0.000000    0.000000i
Mean-Field SOCC =     0.000000000 cm-1
   
**************************************************
State A: Root  1
State B: Root  4
  
Angular momentum components
< B | Lx | A > =     0.042281009i
< B | Ly | A > =    -0.000000000i
< B | Lz | A > =    -0.000000000i
  
Norm of one-particle transition density matrix
||gamma^AB||_total       =  0.999999
||gamma^AB||_symmetrized =  0.707106
||gamma^AB||_anti-symm   =  0.707106
  
Spin-orbit couplings
 Using HF (reference) density for the 2-elec mean-field SOC contribution
KET: S',Sz' (Root   1) =  2.500 2.500
BRA: S ,Sz  (Root   4) =  2.500 2.500
 1e Reduced matrix elements (cm-1)
<S|| Hso(L-) ||S'> =     0.0000000000    -7.6852925218
<S|| Hso(L0) ||S'> =     0.0000000000    -0.0000000000
<S|| Hso(L+) ||S'> =     0.0000000000     7.6852925218
 1-elec SOC matrix (cm-1): < B(S,Sz) | Hso(1e) | A(S',Sz') >
                     |Sz'=-2.50>              |Sz'=-1.50>              |Sz'=-0.50>              |Sz'= 0.50>              |Sz'= 1.50>
 <Sz=-2.50|    0.000000   -0.000000i    -0.000000   -4.107962i     0.000000    0.000000i     0.000000    0.000000i     0.000000    0.000000i
 <Sz=-1.50|    0.000000   -4.107962i     0.000000   -0.000000i    -0.000000   -5.196206i    -0.000000   -0.000000i    -0.000000   -0.000000i
 <Sz=-0.50|    0.000000    0.000000i     0.000000   -5.196206i     0.000000   -0.000000i    -0.000000   -5.511409i    -0.000000   -0.000000i
 <Sz= 0.50|    0.000000    0.000000i    -0.000000    0.000000i     0.000000   -5.511409i     0.000000    0.000000i    -0.000000   -5.196206i
 <Sz= 1.50|    0.000000    0.000000i    -0.000000    0.000000i    -0.000000    0.000000i     0.000000   -5.196206i     0.000000    0.000000i
 <Sz= 2.50|    0.000000    0.000000i     0.000000   -0.000000i     0.000000   -0.000000i    -0.000000    0.000000i     0.000000   -4.107962i
                     |Sz'= 2.50>
 <Sz=-2.50|    0.000000    0.000000i
 <Sz=-1.50|    0.000000    0.000000i
 <Sz=-0.50|    0.000000    0.000000i
 <Sz= 0.50|    0.000000    0.000000i
 <Sz= 1.50|   -0.000000   -4.107962i
 <Sz= 2.50|    0.000000    0.000000i
1-elec SOCC =    15.370585044 cm-1
 2e-SOMF Reduced matrix elements (cm-1)
<S|| Hso(L-) ||S'> =    -0.0000000000     2.8208667526
<S|| Hso(L0) ||S'> =     0.0000000000     0.0000000000
<S|| Hso(L+) ||S'> =    -0.0000000000    -2.8208667526
 2-elec mean-field SOC matrix (cm-1): < B(S,Sz) | Hso(2e-mf) | A(S',Sz') >
                     |Sz'=-2.50>              |Sz'=-1.50>              |Sz'=-0.50>              |Sz'= 0.50>              |Sz'= 1.50>
 <Sz=-2.50|    0.000000    0.000000i     0.000000    1.507817i     0.000000    0.000000i     0.000000    0.000000i     0.000000    0.000000i
 <Sz=-1.50|   -0.000000    1.507817i    -0.000000    0.000000i     0.000000    1.907254i     0.000000    0.000000i     0.000000    0.000000i
 <Sz=-0.50|    0.000000    0.000000i    -0.000000    1.907254i    -0.000000    0.000000i     0.000000    2.022948i     0.000000    0.000000i
 <Sz= 0.50|    0.000000    0.000000i     0.000000   -0.000000i    -0.000000    2.022948i    -0.000000   -0.000000i     0.000000    1.907254i
 <Sz= 1.50|    0.000000    0.000000i     0.000000   -0.000000i     0.000000   -0.000000i    -0.000000    1.907254i    -0.000000   -0.000000i
 <Sz= 2.50|    0.000000    0.000000i    -0.000000    0.000000i    -0.000000    0.000000i     0.000000   -0.000000i    -0.000000    1.507817i
                     |Sz'= 2.50>
 <Sz=-2.50|    0.000000    0.000000i
 <Sz=-1.50|    0.000000    0.000000i
 <Sz=-0.50|    0.000000    0.000000i
 <Sz= 0.50|    0.000000    0.000000i
 <Sz= 1.50|    0.000000    1.507817i
 <Sz= 2.50|   -0.000000   -0.000000i
 Total mean-field SOC matrix (cm-1): < B(S,Sz) | Hsomf | A(S',Sz') >
                     |Sz'=-2.50>              |Sz'=-1.50>              |Sz'=-0.50>              |Sz'= 0.50>              |Sz'= 1.50>
 <Sz=-2.50|    0.000000   -0.000000i    -0.000000   -2.600145i     0.000000    0.000000i     0.000000    0.000000i     0.000000    0.000000i
 <Sz=-1.50|    0.000000   -2.600145i     0.000000   -0.000000i    -0.000000   -3.288952i    -0.000000   -0.000000i    -0.000000   -0.000000i
 <Sz=-0.50|    0.000000    0.000000i     0.000000   -3.288952i     0.000000   -0.000000i    -0.000000   -3.488461i    -0.000000   -0.000000i
 <Sz= 0.50|    0.000000    0.000000i    -0.000000    0.000000i     0.000000   -3.488461i     0.000000    0.000000i    -0.000000   -3.288952i
 <Sz= 1.50|    0.000000    0.000000i    -0.000000    0.000000i    -0.000000    0.000000i     0.000000   -3.288952i     0.000000    0.000000i
 <Sz= 2.50|    0.000000    0.000000i     0.000000   -0.000000i     0.000000   -0.000000i    -0.000000    0.000000i     0.000000   -2.600145i
                     |Sz'= 2.50>
 <Sz=-2.50|    0.000000    0.000000i
 <Sz=-1.50|    0.000000    0.000000i
 <Sz=-0.50|    0.000000    0.000000i
 <Sz= 0.50|    0.000000    0.000000i
 <Sz= 1.50|   -0.000000   -2.600145i
 <Sz= 2.50|    0.000000    0.000000i
Mean-Field SOCC =     9.728851538 cm-1
   
**************************************************
State A: Root  1
State B: Root  5
  
Angular momentum components
< B | Lx | A > =    -0.000000000i
< B | Ly | A > =     0.000000000i
< B | Lz | A > =     0.000000000i
  
Norm of one-particle transition density matrix
||gamma^AB||_total       =  1.000000
||gamma^AB||_symmetrized =  0.707107
||gamma^AB||_anti-symm   =  0.707107
  
Spin-orbit couplings
 Using HF (reference) density for the 2-elec mean-field SOC contribution
KET: S',Sz' (Root   1) =  2.500 2.500
BRA: S ,Sz  (Root   5) =  2.500 2.500
 1e Reduced matrix elements (cm-1)
<S|| Hso(L-) ||S'> =     0.0000000000     0.0000000000
<S|| Hso(L0) ||S'> =     0.0000000000     0.0000000000
<S|| Hso(L+) ||S'> =     0.0000000000    -0.0000000000
 1-elec SOC matrix (cm-1): < B(S,Sz) | Hso(1e) | A(S',Sz') >
                     |Sz'=-2.50>              |Sz'=-1.50>              |Sz'=-0.50>              |Sz'= 0.50>              |Sz'= 1.50>
 <Sz=-2.50|    0.000000    0.000000i    -0.000000    0.000000i     0.000000    0.000000i     0.000000    0.000000i     0.000000    0.000000i
 <Sz=-1.50|    0.000000    0.000000i     0.000000    0.000000i    -0.000000    0.000000i    -0.000000    0.000000i    -0.000000    0.000000i
 <Sz=-0.50|    0.000000    0.000000i     0.000000    0.000000i     0.000000    0.000000i    -0.000000    0.000000i    -0.000000    0.000000i
 <Sz= 0.50|    0.000000    0.000000i    -0.000000   -0.000000i     0.000000    0.000000i     0.000000   -0.000000i    -0.000000    0.000000i
 <Sz= 1.50|    0.000000    0.000000i    -0.000000   -0.000000i    -0.000000   -0.000000i     0.000000    0.000000i     0.000000   -0.000000i
 <Sz= 2.50|    0.000000    0.000000i     0.000000    0.000000i     0.000000    0.000000i    -0.000000   -0.000000i     0.000000    0.000000i
                     |Sz'= 2.50>
 <Sz=-2.50|    0.000000    0.000000i
 <Sz=-1.50|    0.000000    0.000000i
 <Sz=-0.50|    0.000000    0.000000i
 <Sz= 0.50|    0.000000    0.000000i
 <Sz= 1.50|   -0.000000    0.000000i
 <Sz= 2.50|    0.000000   -0.000000i
1-elec SOCC =     0.000000000 cm-1
 2e-SOMF Reduced matrix elements (cm-1)
<S|| Hso(L-) ||S'> =    -0.0000000000    -0.0000000000
<S|| Hso(L0) ||S'> =     0.0000000000    -0.0000000000
<S|| Hso(L+) ||S'> =    -0.0000000000     0.0000000000
 2-elec mean-field SOC matrix (cm-1): < B(S,Sz) | Hso(2e-mf) | A(S',Sz') >
                     |Sz'=-2.50>              |Sz'=-1.50>              |Sz'=-0.50>              |Sz'= 0.50>              |Sz'= 1.50>
 <Sz=-2.50|    0.000000   -0.000000i     0.000000   -0.000000i     0.000000    0.000000i     0.000000    0.000000i     0.000000    0.000000i
 <Sz=-1.50|   -0.000000   -0.000000i    -0.000000   -0.000000i     0.000000   -0.000000i     0.000000   -0.000000i     0.000000   -0.000000i
 <Sz=-0.50|    0.000000    0.000000i    -0.000000   -0.000000i    -0.000000   -0.000000i     0.000000   -0.000000i     0.000000   -0.000000i
 <Sz= 0.50|    0.000000    0.000000i     0.000000    0.000000i    -0.000000   -0.000000i    -0.000000    0.000000i     0.000000   -0.000000i
 <Sz= 1.50|    0.000000    0.000000i     0.000000    0.000000i     0.000000    0.000000i    -0.000000   -0.000000i    -0.000000    0.000000i
 <Sz= 2.50|    0.000000    0.000000i    -0.000000   -0.000000i    -0.000000   -0.000000i     0.000000    0.000000i    -0.000000   -0.000000i
                     |Sz'= 2.50>
 <Sz=-2.50|    0.000000    0.000000i
 <Sz=-1.50|    0.000000    0.000000i
 <Sz=-0.50|    0.000000    0.000000i
 <Sz= 0.50|    0.000000    0.000000i
 <Sz= 1.50|    0.000000   -0.000000i
 <Sz= 2.50|   -0.000000    0.000000i
 Total mean-field SOC matrix (cm-1): < B(S,Sz) | Hsomf | A(S',Sz') >
                     |Sz'=-2.50>              |Sz'=-1.50>              |Sz'=-0.50>              |Sz'= 0.50>              |Sz'= 1.50>
 <Sz=-2.50|    0.000000   -0.000000i    -0.000000    0.000000i     0.000000    0.000000i     0.000000    0.000000i     0.000000    0.000000i
 <Sz=-1.50|    0.000000    0.000000i     0.000000   -0.000000i    -0.000000    0.000000i    -0.000000    0.000000i    -0.000000    0.000000i
 <Sz=-0.50|    0.000000    0.000000i     0.000000    0.000000i     0.000000   -0.000000i    -0.000000    0.000000i    -0.000000    0.000000i
 <Sz= 0.50|    0.000000    0.000000i    -0.000000   -0.000000i     0.000000    0.000000i     0.000000    0.000000i    -0.000000    0.000000i
 <Sz= 1.50|    0.000000    0.000000i    -0.000000   -0.000000i    -0.000000   -0.000000i     0.000000    0.000000i     0.000000    0.000000i
 <Sz= 2.50|    0.000000    0.000000i     0.000000    0.000000i     0.000000    0.000000i    -0.000000   -0.000000i     0.000000    0.000000i
                     |Sz'= 2.50>
 <Sz=-2.50|    0.000000    0.000000i
 <Sz=-1.50|    0.000000    0.000000i
 <Sz=-0.50|    0.000000    0.000000i
 <Sz= 0.50|    0.000000    0.000000i
 <Sz= 1.50|   -0.000000    0.000000i
 <Sz= 2.50|    0.000000    0.000000i
Mean-Field SOCC =     0.000000000 cm-1
   
**************************************************
State A: Root  2
State B: Root  1
  
Angular momentum components
< B | Lx | A > =     0.000000000i
< B | Ly | A > =     0.034702717i
< B | Lz | A > =     0.000000000i
  
Norm of one-particle transition density matrix
||gamma^AB||_total       =  1.000000
||gamma^AB||_symmetrized =  0.707107
||gamma^AB||_anti-symm   =  0.707106
  
Spin-orbit couplings
 Using HF (reference) density for the 2-elec mean-field SOC contribution
KET: S',Sz' (Root   2) =  2.500 2.500
BRA: S ,Sz  (Root   1) =  2.500 2.500
 1e Reduced matrix elements (cm-1)
<S|| Hso(L-) ||S'> =    -6.8193005881    -0.0000000000
<S|| Hso(L0) ||S'> =     0.0000000000     0.0000000000
<S|| Hso(L+) ||S'> =    -6.8193005881     0.0000000000
 1-elec SOC matrix (cm-1): < B(S,Sz) | Hso(1e) | A(S',Sz') >
                     |Sz'=-2.50>              |Sz'=-1.50>              |Sz'=-0.50>              |Sz'= 0.50>              |Sz'= 1.50>
 <Sz=-2.50|    0.000000    0.000000i     3.645069   -0.000000i     0.000000    0.000000i     0.000000    0.000000i     0.000000    0.000000i
 <Sz=-1.50|   -3.645069   -0.000000i    -0.000000    0.000000i     4.610689   -0.000000i     0.000000   -0.000000i     0.000000   -0.000000i
 <Sz=-0.50|    0.000000    0.000000i    -4.610689   -0.000000i    -0.000000    0.000000i     4.890374   -0.000000i     0.000000    0.000000i
 <Sz= 0.50|    0.000000    0.000000i     0.000000    0.000000i    -4.890374   -0.000000i    -0.000000   -0.000000i     4.610689   -0.000000i
 <Sz= 1.50|    0.000000    0.000000i     0.000000    0.000000i     0.000000    0.000000i    -4.610689   -0.000000i    -0.000000   -0.000000i
 <Sz= 2.50|    0.000000    0.000000i    -0.000000   -0.000000i    -0.000000   -0.000000i     0.000000    0.000000i    -3.645069   -0.000000i
                     |Sz'= 2.50>
 <Sz=-2.50|    0.000000    0.000000i
 <Sz=-1.50|    0.000000    0.000000i
 <Sz=-0.50|    0.000000    0.000000i
 <Sz= 0.50|    0.000000    0.000000i
 <Sz= 1.50|    3.645069   -0.000000i
 <Sz= 2.50|   -0.000000   -0.000000i
1-elec SOCC =    13.638601176 cm-1
 2e-SOMF Reduced matrix elements (cm-1)
<S|| Hso(L-) ||S'> =     2.7673294945     0.0000000000
<S|| Hso(L0) ||S'> =     0.0000000000    -0.0000000000
<S|| Hso(L+) ||S'> =     2.7673294945    -0.0000000000
 2-elec mean-field SOC matrix (cm-1): < B(S,Sz) | Hso(2e-mf) | A(S',Sz') >
                     |Sz'=-2.50>              |Sz'=-1.50>              |Sz'=-0.50>              |Sz'= 0.50>              |Sz'= 1.50>
 <Sz=-2.50|    0.000000   -0.000000i    -1.479200    0.000000i     0.000000    0.000000i     0.000000    0.000000i     0.000000    0.000000i
 <Sz=-1.50|    1.479200    0.000000i     0.000000   -0.000000i    -1.871056    0.000000i    -0.000000    0.000000i    -0.000000    0.000000i
 <Sz=-0.50|    0.000000    0.000000i     1.871056    0.000000i     0.000000   -0.000000i    -1.984555    0.000000i    -0.000000   -0.000000i
 <Sz= 0.50|    0.000000    0.000000i    -0.000000   -0.000000i     1.984555    0.000000i     0.000000    0.000000i    -1.871056    0.000000i
 <Sz= 1.50|    0.000000    0.000000i    -0.000000   -0.000000i    -0.000000   -0.000000i     1.871056    0.000000i     0.000000    0.000000i
 <Sz= 2.50|    0.000000    0.000000i     0.000000    0.000000i     0.000000    0.000000i    -0.000000   -0.000000i     1.479200    0.000000i
                     |Sz'= 2.50>
 <Sz=-2.50|    0.000000    0.000000i
 <Sz=-1.50|    0.000000    0.000000i
 <Sz=-0.50|    0.000000    0.000000i
 <Sz= 0.50|    0.000000    0.000000i
 <Sz= 1.50|   -1.479200    0.000000i
 <Sz= 2.50|    0.000000    0.000000i
 Total mean-field SOC matrix (cm-1): < B(S,Sz) | Hsomf | A(S',Sz') >
                     |Sz'=-2.50>              |Sz'=-1.50>              |Sz'=-0.50>              |Sz'= 0.50>              |Sz'= 1.50>
 <Sz=-2.50|    0.000000    0.000000i     2.165870   -0.000000i     0.000000    0.000000i     0.000000    0.000000i     0.000000    0.000000i
 <Sz=-1.50|   -2.165870   -0.000000i    -0.000000    0.000000i     2.739632   -0.000000i     0.000000   -0.000000i     0.000000   -0.000000i
 <Sz=-0.50|    0.000000    0.000000i    -2.739632   -0.000000i    -0.000000    0.000000i     2.905819   -0.000000i     0.000000    0.000000i
 <Sz= 0.50|    0.000000    0.000000i     0.000000    0.000000i    -2.905819   -0.000000i    -0.000000   -0.000000i     2.739632   -0.000000i
 <Sz= 1.50|    0.000000    0.000000i     0.000000    0.000000i     0.000000    0.000000i    -2.739632   -0.000000i    -0.000000   -0.000000i
 <Sz= 2.50|    0.000000    0.000000i    -0.000000   -0.000000i    -0.000000   -0.000000i     0.000000    0.000000i    -2.165870   -0.000000i
                     |Sz'= 2.50>
 <Sz=-2.50|    0.000000    0.000000i
 <Sz=-1.50|    0.000000    0.000000i
 <Sz=-0.50|    0.000000    0.000000i
 <Sz= 0.50|    0.000000    0.000000i
 <Sz= 1.50|    2.165870   -0.000000i
 <Sz= 2.50|   -0.000000   -0.000000i
Mean-Field SOCC =     8.103942187 cm-1
   
**************************************************
State A: Root  2
State B: Root  3
  
Angular momentum components
< B | Lx | A > =    -0.000000000i
< B | Ly | A > =    -0.979413741i
< B | Lz | A > =     0.000000000i
  
Norm of one-particle transition density matrix
||gamma^AB||_total       =  0.999999
||gamma^AB||_symmetrized =  0.707106
||gamma^AB||_anti-symm   =  0.707106
  
Spin-orbit couplings
 Using HF (reference) density for the 2-elec mean-field SOC contribution
KET: S',Sz' (Root   2) =  2.500 2.500
BRA: S ,Sz  (Root   3) =  2.500 2.500
 1e Reduced matrix elements (cm-1)
<S|| Hso(L-) ||S'> =    58.8326656137     0.0000000000
<S|| Hso(L0) ||S'> =     0.0000000000     0.0000000000
<S|| Hso(L+) ||S'> =    58.8326656137    -0.0000000000
 1-elec SOC matrix (cm-1): < B(S,Sz) | Hso(1e) | A(S',Sz') >
                     |Sz'=-2.50>              |Sz'=-1.50>              |Sz'=-0.50>              |Sz'= 0.50>              |Sz'= 1.50>
 <Sz=-2.50|    0.000000    0.000000i   -31.447383    0.000000i     0.000000    0.000000i     0.000000    0.000000i     0.000000    0.000000i
 <Sz=-1.50|   31.447383    0.000000i     0.000000    0.000000i   -39.778142    0.000000i    -0.000000   -0.000000i    -0.000000    0.000000i
 <Sz=-0.50|    0.000000    0.000000i    39.778142    0.000000i     0.000000    0.000000i   -42.191091    0.000000i    -0.000000    0.000000i
 <Sz= 0.50|    0.000000    0.000000i    -0.000000   -0.000000i    42.191091    0.000000i     0.000000   -0.000000i   -39.778142    0.000000i
 <Sz= 1.50|    0.000000    0.000000i    -0.000000   -0.000000i    -0.000000   -0.000000i    39.778142    0.000000i     0.000000   -0.000000i
 <Sz= 2.50|    0.000000    0.000000i     0.000000    0.000000i     0.000000    0.000000i    -0.000000   -0.000000i    31.447383    0.000000i
                     |Sz'= 2.50>
 <Sz=-2.50|    0.000000    0.000000i
 <Sz=-1.50|    0.000000    0.000000i
 <Sz=-0.50|    0.000000    0.000000i
 <Sz= 0.50|    0.000000    0.000000i
 <Sz= 1.50|  -31.447383    0.000000i
 <Sz= 2.50|    0.000000   -0.000000i
1-elec SOCC =   117.665331227 cm-1
 2e-SOMF Reduced matrix elements (cm-1)
<S|| Hso(L-) ||S'> =   -24.9259788873    -0.0000000000
<S|| Hso(L0) ||S'> =     0.0000000000    -0.0000000000
<S|| Hso(L+) ||S'> =   -24.9259788873     0.0000000000
 2-elec mean-field SOC matrix (cm-1): < B(S,Sz) | Hso(2e-mf) | A(S',Sz') >
                     |Sz'=-2.50>              |Sz'=-1.50>              |Sz'=-0.50>              |Sz'= 0.50>              |Sz'= 1.50>
 <Sz=-2.50|    0.000000   -0.000000i    13.323496   -0.000000i     0.000000    0.000000i     0.000000    0.000000i     0.000000    0.000000i
 <Sz=-1.50|  -13.323496   -0.000000i    -0.000000   -0.000000i    16.853038   -0.000000i     0.000000    0.000000i     0.000000   -0.000000i
 <Sz=-0.50|    0.000000    0.000000i   -16.853038   -0.000000i    -0.000000   -0.000000i    17.875346   -0.000000i     0.000000   -0.000000i
 <Sz= 0.50|    0.000000    0.000000i     0.000000    0.000000i   -17.875346   -0.000000i    -0.000000    0.000000i    16.853038   -0.000000i
 <Sz= 1.50|    0.000000    0.000000i     0.000000    0.000000i     0.000000    0.000000i   -16.853038   -0.000000i    -0.000000    0.000000i
 <Sz= 2.50|    0.000000    0.000000i    -0.000000   -0.000000i    -0.000000   -0.000000i     0.000000    0.000000i   -13.323496   -0.000000i
                     |Sz'= 2.50>
 <Sz=-2.50|    0.000000    0.000000i
 <Sz=-1.50|    0.000000    0.000000i
 <Sz=-0.50|    0.000000    0.000000i
 <Sz= 0.50|    0.000000    0.000000i
 <Sz= 1.50|   13.323496   -0.000000i
 <Sz= 2.50|   -0.000000    0.000000i
 Total mean-field SOC matrix (cm-1): < B(S,Sz) | Hsomf | A(S',Sz') >
                     |Sz'=-2.50>              |Sz'=-1.50>              |Sz'=-0.50>              |Sz'= 0.50>              |Sz'= 1.50>
 <Sz=-2.50|    0.000000    0.000000i   -18.123886    0.000000i     0.000000    0.000000i     0.000000    0.000000i     0.000000    0.000000i
 <Sz=-1.50|   18.123886    0.000000i     0.000000    0.000000i   -22.925104    0.000000i    -0.000000   -0.000000i    -0.000000    0.000000i
 <Sz=-0.50|    0.000000    0.000000i    22.925104    0.000000i     0.000000    0.000000i   -24.315745    0.000000i    -0.000000    0.000000i
 <Sz= 0.50|    0.000000    0.000000i    -0.000000   -0.000000i    24.315745    0.000000i     0.000000   -0.000000i   -22.925104    0.000000i
 <Sz= 1.50|    0.000000    0.000000i    -0.000000   -0.000000i    -0.000000   -0.000000i    22.925104    0.000000i     0.000000   -0.000000i
 <Sz= 2.50|    0.000000    0.000000i     0.000000    0.000000i     0.000000    0.000000i    -0.000000   -0.000000i    18.123886    0.000000i
                     |Sz'= 2.50>
 <Sz=-2.50|    0.000000    0.000000i
 <Sz=-1.50|    0.000000    0.000000i
 <Sz=-0.50|    0.000000    0.000000i
 <Sz= 0.50|    0.000000    0.000000i
 <Sz= 1.50|  -18.123886    0.000000i
 <Sz= 2.50|    0.000000   -0.000000i
Mean-Field SOCC =    67.813373453 cm-1
   
**************************************************
State A: Root  2
State B: Root  4
  
Angular momentum components
< B | Lx | A > =    -0.000000000i
< B | Ly | A > =     0.000000000i
< B | Lz | A > =     0.981769416i
  
Norm of one-particle transition density matrix
||gamma^AB||_total       =  0.999999
||gamma^AB||_symmetrized =  0.707106
||gamma^AB||_anti-symm   =  0.707106
  
Spin-orbit couplings
 Using HF (reference) density for the 2-elec mean-field SOC contribution
KET: S',Sz' (Root   2) =  2.500 2.500
BRA: S ,Sz  (Root   4) =  2.500 2.500
 1e Reduced matrix elements (cm-1)
<S|| Hso(L-) ||S'> =    -0.0000000000     0.0000000000
<S|| Hso(L0) ||S'> =     0.0000000000    88.0439209829
<S|| Hso(L+) ||S'> =    -0.0000000000    -0.0000000000
 1-elec SOC matrix (cm-1): < B(S,Sz) | Hso(1e) | A(S',Sz') >
                     |Sz'=-2.50>              |Sz'=-1.50>              |Sz'=-0.50>              |Sz'= 0.50>              |Sz'= 1.50>
 <Sz=-2.50|    0.000000   74.410694i     0.000000    0.000000i     0.000000    0.000000i     0.000000    0.000000i     0.000000    0.000000i
 <Sz=-1.50|   -0.000000    0.000000i    -0.000000   44.646417i     0.000000    0.000000i     0.000000   -0.000000i     0.000000    0.000000i
 <Sz=-0.50|    0.000000    0.000000i    -0.000000    0.000000i    -0.000000   14.882139i     0.000000    0.000000i     0.000000    0.000000i
 <Sz= 0.50|    0.000000    0.000000i     0.000000   -0.000000i    -0.000000    0.000000i    -0.000000  -14.882139i     0.000000    0.000000i
 <Sz= 1.50|    0.000000    0.000000i     0.000000   -0.000000i     0.000000   -0.000000i    -0.000000    0.000000i    -0.000000  -44.646417i
 <Sz= 2.50|    0.000000    0.000000i    -0.000000    0.000000i    -0.000000    0.000000i     0.000000   -0.000000i    -0.000000    0.000000i
                     |Sz'= 2.50>
 <Sz=-2.50|    0.000000    0.000000i
 <Sz=-1.50|    0.000000    0.000000i
 <Sz=-0.50|    0.000000    0.000000i
 <Sz= 0.50|    0.000000    0.000000i
 <Sz= 1.50|    0.000000    0.000000i
 <Sz= 2.50|   -0.000000  -74.410694i
1-elec SOCC =   124.512907139 cm-1
 2e-SOMF Reduced matrix elements (cm-1)
<S|| Hso(L-) ||S'> =     0.0000000000    -0.0000000000
<S|| Hso(L0) ||S'> =     0.0000000000   -33.1003241657
<S|| Hso(L+) ||S'> =     0.0000000000     0.0000000000
 2-elec mean-field SOC matrix (cm-1): < B(S,Sz) | Hso(2e-mf) | A(S',Sz') >
                     |Sz'=-2.50>              |Sz'=-1.50>              |Sz'=-0.50>              |Sz'= 0.50>              |Sz'= 1.50>
 <Sz=-2.50|    0.000000  -27.974880i    -0.000000   -0.000000i     0.000000    0.000000i     0.000000    0.000000i     0.000000    0.000000i
 <Sz=-1.50|    0.000000   -0.000000i     0.000000  -16.784928i    -0.000000   -0.000000i    -0.000000    0.000000i    -0.000000   -0.000000i
 <Sz=-0.50|    0.000000    0.000000i     0.000000   -0.000000i     0.000000   -5.594976i    -0.000000   -0.000000i    -0.000000   -0.000000i
 <Sz= 0.50|    0.000000    0.000000i    -0.000000    0.000000i     0.000000   -0.000000i     0.000000    5.594976i    -0.000000   -0.000000i
 <Sz= 1.50|    0.000000    0.000000i    -0.000000    0.000000i    -0.000000    0.000000i     0.000000   -0.000000i     0.000000   16.784928i
 <Sz= 2.50|    0.000000    0.000000i     0.000000   -0.000000i     0.000000   -0.000000i    -0.000000    0.000000i     0.000000   -0.000000i
                     |Sz'= 2.50>
 <Sz=-2.50|    0.000000    0.000000i
 <Sz=-1.50|    0.000000    0.000000i
 <Sz=-0.50|    0.000000    0.000000i
 <Sz= 0.50|    0.000000    0.000000i
 <Sz= 1.50|   -0.000000   -0.000000i
 <Sz= 2.50|    0.000000   27.974880i
 Total mean-field SOC matrix (cm-1): < B(S,Sz) | Hsomf | A(S',Sz') >
                     |Sz'=-2.50>              |Sz'=-1.50>              |Sz'=-0.50>              |Sz'= 0.50>              |Sz'= 1.50>
 <Sz=-2.50|    0.000000   46.435815i     0.000000    0.000000i     0.000000    0.000000i     0.000000    0.000000i     0.000000    0.000000i
 <Sz=-1.50|   -0.000000    0.000000i    -0.000000   27.861489i     0.000000    0.000000i     0.000000   -0.000000i     0.000000    0.000000i
 <Sz=-0.50|    0.000000    0.000000i    -0.000000    0.000000i    -0.000000    9.287163i     0.000000    0.000000i     0.000000    0.000000i
 <Sz= 0.50|    0.000000    0.000000i     0.000000   -0.000000i    -0.000000    0.000000i    -0.000000   -9.287163i     0.000000    0.000000i
 <Sz= 1.50|    0.000000    0.000000i     0.000000   -0.000000i     0.000000   -0.000000i    -0.000000    0.000000i    -0.000000  -27.861489i
 <Sz= 2.50|    0.000000    0.000000i    -0.000000    0.000000i    -0.000000    0.000000i     0.000000   -0.000000i    -0.000000    0.000000i
                     |Sz'= 2.50>
 <Sz=-2.50|    0.000000    0.000000i
 <Sz=-1.50|    0.000000    0.000000i
 <Sz=-0.50|    0.000000    0.000000i
 <Sz= 0.50|    0.000000    0.000000i
 <Sz= 1.50|    0.000000    0.000000i
 <Sz= 2.50|   -0.000000  -46.435815i
Mean-Field SOCC =    77.701979784 cm-1
   
**************************************************
State A: Root  2
State B: Root  5
  
Angular momentum components
< B | Lx | A > =     0.000000000i
< B | Ly | A > =     0.000864434i
< B | Lz | A > =     0.000000000i
  
Norm of one-particle transition density matrix
||gamma^AB||_total       =  0.999997
||gamma^AB||_symmetrized =  0.707105
||gamma^AB||_anti-symm   =  0.707105
  
Spin-orbit couplings
 Using HF (reference) density for the 2-elec mean-field SOC contribution
KET: S',Sz' (Root   2) =  2.500 2.500
BRA: S ,Sz  (Root   5) =  2.500 2.500
 1e Reduced matrix elements (cm-1)
<S|| Hso(L-) ||S'> =   -24.9597280270    -0.0000000000
<S|| Hso(L0) ||S'> =     0.0000000000     0.0000000000
<S|| Hso(L+) ||S'> =   -24.9597280270     0.0000000000
 1-elec SOC matrix (cm-1): < B(S,Sz) | Hso(1e) | A(S',Sz') >
                     |Sz'=-2.50>              |Sz'=-1.50>              |Sz'=-0.50>              |Sz'= 0.50>              |Sz'= 1.50>
 <Sz=-2.50|    0.000000    0.000000i    13.341536   -0.000000i     0.000000    0.000000i     0.000000    0.000000i     0.000000    0.000000i
 <Sz=-1.50|  -13.341536   -0.000000i    -0.000000    0.000000i    16.875856   -0.000000i     0.000000   -0.000000i     0.000000   -0.000000i
 <Sz=-0.50|    0.000000    0.000000i   -16.875856   -0.000000i    -0.000000    0.000000i    17.899549   -0.000000i     0.000000   -0.000000i
 <Sz= 0.50|    0.000000    0.000000i     0.000000    0.000000i   -17.899549   -0.000000i    -0.000000   -0.000000i    16.875856   -0.000000i
 <Sz= 1.50|    0.000000    0.000000i     0.000000    0.000000i     0.000000    0.000000i   -16.875856   -0.000000i    -0.000000   -0.000000i
 <Sz= 2.50|    0.000000    0.000000i    -0.000000   -0.000000i    -0.000000   -0.000000i     0.000000    0.000000i   -13.341536   -0.000000i
                     |Sz'= 2.50>
 <Sz=-2.50|    0.000000    0.000000i
 <Sz=-1.50|    0.000000    0.000000i
 <Sz=-0.50|    0.000000    0.000000i
 <Sz= 0.50|    0.000000    0.000000i
 <Sz= 1.50|   13.341536   -0.000000i
 <Sz= 2.50|   -0.000000   -0.000000i
1-elec SOCC =    49.919456054 cm-1
 2e-SOMF Reduced matrix elements (cm-1)
<S|| Hso(L-) ||S'> =     9.3354749248     0.0000000000
<S|| Hso(L0) ||S'> =     0.0000000000    -0.0000000000
<S|| Hso(L+) ||S'> =     9.3354749248    -0.0000000000
 2-elec mean-field SOC matrix (cm-1): < B(S,Sz) | Hso(2e-mf) | A(S',Sz') >
                     |Sz'=-2.50>              |Sz'=-1.50>              |Sz'=-0.50>              |Sz'= 0.50>              |Sz'= 1.50>
 <Sz=-2.50|    0.000000   -0.000000i    -4.990021    0.000000i     0.000000    0.000000i     0.000000    0.000000i     0.000000    0.000000i
 <Sz=-1.50|    4.990021    0.000000i     0.000000   -0.000000i    -6.311933    0.000000i    -0.000000    0.000000i    -0.000000    0.000000i
 <Sz=-0.50|    0.000000    0.000000i     6.311933    0.000000i     0.000000   -0.000000i    -6.694816    0.000000i    -0.000000    0.000000i
 <Sz= 0.50|    0.000000    0.000000i    -0.000000   -0.000000i     6.694816    0.000000i     0.000000    0.000000i    -6.311933    0.000000i
 <Sz= 1.50|    0.000000    0.000000i    -0.000000   -0.000000i    -0.000000   -0.000000i     6.311933    0.000000i     0.000000    0.000000i
 <Sz= 2.50|    0.000000    0.000000i     0.000000    0.000000i     0.000000    0.000000i    -0.000000   -0.000000i     4.990021    0.000000i
                     |Sz'= 2.50>
 <Sz=-2.50|    0.000000    0.000000i
 <Sz=-1.50|    0.000000    0.000000i
 <Sz=-0.50|    0.000000    0.000000i
 <Sz= 0.50|    0.000000    0.000000i
 <Sz= 1.50|   -4.990021    0.000000i
 <Sz= 2.50|    0.000000    0.000000i
 Total mean-field SOC matrix (cm-1): < B(S,Sz) | Hsomf | A(S',Sz') >
                     |Sz'=-2.50>              |Sz'=-1.50>              |Sz'=-0.50>              |Sz'= 0.50>              |Sz'= 1.50>
 <Sz=-2.50|    0.000000    0.000000i     8.351515   -0.000000i     0.000000    0.000000i     0.000000    0.000000i     0.000000    0.000000i
 <Sz=-1.50|   -8.351515   -0.000000i    -0.000000    0.000000i    10.563923   -0.000000i     0.000000   -0.000000i     0.000000   -0.000000i
 <Sz=-0.50|    0.000000    0.000000i   -10.563923   -0.000000i    -0.000000    0.000000i    11.204733   -0.000000i     0.000000   -0.000000i
 <Sz= 0.50|    0.000000    0.000000i     0.000000    0.000000i   -11.204733   -0.000000i    -0.000000   -0.000000i    10.563923   -0.000000i
 <Sz= 1.50|    0.000000    0.000000i     0.000000    0.000000i     0.000000    0.000000i   -10.563923   -0.000000i    -0.000000   -0.000000i
 <Sz= 2.50|    0.000000    0.000000i    -0.000000   -0.000000i    -0.000000   -0.000000i     0.000000    0.000000i    -8.351515   -0.000000i
                     |Sz'= 2.50>
 <Sz=-2.50|    0.000000    0.000000i
 <Sz=-1.50|    0.000000    0.000000i
 <Sz=-0.50|    0.000000    0.000000i
 <Sz= 0.50|    0.000000    0.000000i
 <Sz= 1.50|    8.351515   -0.000000i
 <Sz= 2.50|   -0.000000   -0.000000i
Mean-Field SOCC =    31.248506204 cm-1
   
**************************************************
State A: Root  3
State B: Root  1
  
Angular momentum components
< B | Lx | A > =    -0.000000000i
< B | Ly | A > =    -0.000000000i
< B | Lz | A > =     0.000000000i
  
Norm of one-particle transition density matrix
||gamma^AB||_total       =  0.999999
||gamma^AB||_symmetrized =  0.707107
||gamma^AB||_anti-symm   =  0.707106
  
Spin-orbit couplings
 Using HF (reference) density for the 2-elec mean-field SOC contribution
KET: S',Sz' (Root   3) =  2.500 2.500
BRA: S ,Sz  (Root   1) =  2.500 2.500
 1e Reduced matrix elements (cm-1)
<S|| Hso(L-) ||S'> =     0.0000000000     0.0000000000
<S|| Hso(L0) ||S'> =     0.0000000000     0.0000000000
<S|| Hso(L+) ||S'> =     0.0000000000    -0.0000000000
 1-elec SOC matrix (cm-1): < B(S,Sz) | Hso(1e) | A(S',Sz') >
                     |Sz'=-2.50>              |Sz'=-1.50>              |Sz'=-0.50>              |Sz'= 0.50>              |Sz'= 1.50>
 <Sz=-2.50|    0.000000    0.000000i    -0.000000    0.000000i     0.000000    0.000000i     0.000000    0.000000i     0.000000    0.000000i
 <Sz=-1.50|    0.000000    0.000000i     0.000000    0.000000i    -0.000000    0.000000i    -0.000000    0.000000i    -0.000000    0.000000i
 <Sz=-0.50|    0.000000    0.000000i     0.000000    0.000000i     0.000000    0.000000i    -0.000000    0.000000i    -0.000000    0.000000i
 <Sz= 0.50|    0.000000    0.000000i    -0.000000   -0.000000i     0.000000    0.000000i     0.000000   -0.000000i    -0.000000    0.000000i
 <Sz= 1.50|    0.000000    0.000000i    -0.000000   -0.000000i    -0.000000   -0.000000i     0.000000    0.000000i     0.000000   -0.000000i
 <Sz= 2.50|    0.000000    0.000000i     0.000000    0.000000i     0.000000    0.000000i    -0.000000   -0.000000i     0.000000    0.000000i
                     |Sz'= 2.50>
 <Sz=-2.50|    0.000000    0.000000i
 <Sz=-1.50|    0.000000    0.000000i
 <Sz=-0.50|    0.000000    0.000000i
 <Sz= 0.50|    0.000000    0.000000i
 <Sz= 1.50|   -0.000000    0.000000i
 <Sz= 2.50|    0.000000   -0.000000i
1-elec SOCC =     0.000000000 cm-1
 2e-SOMF Reduced matrix elements (cm-1)
<S|| Hso(L-) ||S'> =    -0.0000000000    -0.0000000000
<S|| Hso(L0) ||S'> =     0.0000000000     0.0000000000
<S|| Hso(L+) ||S'> =    -0.0000000000     0.0000000000
 2-elec mean-field SOC matrix (cm-1): < B(S,Sz) | Hso(2e-mf) | A(S',Sz') >
                     |Sz'=-2.50>              |Sz'=-1.50>              |Sz'=-0.50>              |Sz'= 0.50>              |Sz'= 1.50>
 <Sz=-2.50|    0.000000    0.000000i     0.000000   -0.000000i     0.000000    0.000000i     0.000000    0.000000i     0.000000    0.000000i
 <Sz=-1.50|   -0.000000   -0.000000i    -0.000000    0.000000i     0.000000   -0.000000i     0.000000   -0.000000i     0.000000   -0.000000i
 <Sz=-0.50|    0.000000    0.000000i    -0.000000   -0.000000i    -0.000000    0.000000i     0.000000   -0.000000i     0.000000   -0.000000i
 <Sz= 0.50|    0.000000    0.000000i     0.000000    0.000000i    -0.000000   -0.000000i    -0.000000   -0.000000i     0.000000   -0.000000i
 <Sz= 1.50|    0.000000    0.000000i     0.000000    0.000000i     0.000000    0.000000i    -0.000000   -0.000000i    -0.000000   -0.000000i
 <Sz= 2.50|    0.000000    0.000000i    -0.000000   -0.000000i    -0.000000   -0.000000i     0.000000    0.000000i    -0.000000   -0.000000i
                     |Sz'= 2.50>
 <Sz=-2.50|    0.000000    0.000000i
 <Sz=-1.50|    0.000000    0.000000i
 <Sz=-0.50|    0.000000    0.000000i
 <Sz= 0.50|    0.000000    0.000000i
 <Sz= 1.50|    0.000000   -0.000000i
 <Sz= 2.50|   -0.000000   -0.000000i
 Total mean-field SOC matrix (cm-1): < B(S,Sz) | Hsomf | A(S',Sz') >
                     |Sz'=-2.50>              |Sz'=-1.50>              |Sz'=-0.50>              |Sz'= 0.50>              |Sz'= 1.50>
 <Sz=-2.50|    0.000000    0.000000i    -0.000000    0.000000i     0.000000    0.000000i     0.000000    0.000000i     0.000000    0.000000i
 <Sz=-1.50|    0.000000    0.000000i     0.000000    0.000000i    -0.000000    0.000000i    -0.000000    0.000000i    -0.000000    0.000000i
 <Sz=-0.50|    0.000000    0.000000i     0.000000    0.000000i     0.000000    0.000000i    -0.000000    0.000000i    -0.000000    0.000000i
 <Sz= 0.50|    0.000000    0.000000i    -0.000000   -0.000000i     0.000000    0.000000i     0.000000   -0.000000i    -0.000000    0.000000i
 <Sz= 1.50|    0.000000    0.000000i    -0.000000   -0.000000i    -0.000000   -0.000000i     0.000000    0.000000i     0.000000   -0.000000i
 <Sz= 2.50|    0.000000    0.000000i     0.000000    0.000000i     0.000000    0.000000i    -0.000000   -0.000000i     0.000000    0.000000i
                     |Sz'= 2.50>
 <Sz=-2.50|    0.000000    0.000000i
 <Sz=-1.50|    0.000000    0.000000i
 <Sz=-0.50|    0.000000    0.000000i
 <Sz= 0.50|    0.000000    0.000000i
 <Sz= 1.50|   -0.000000    0.000000i
 <Sz= 2.50|    0.000000   -0.000000i
Mean-Field SOCC =     0.000000000 cm-1
   
**************************************************
State A: Root  3
State B: Root  2
  
Angular momentum components
< B | Lx | A > =     0.000000000i
< B | Ly | A > =     0.979413741i
< B | Lz | A > =    -0.000000000i
  
Norm of one-particle transition density matrix
||gamma^AB||_total       =  0.999999
||gamma^AB||_symmetrized =  0.707106
||gamma^AB||_anti-symm   =  0.707106
  
Spin-orbit couplings
 Using HF (reference) density for the 2-elec mean-field SOC contribution
KET: S',Sz' (Root   3) =  2.500 2.500
BRA: S ,Sz  (Root   2) =  2.500 2.500
 1e Reduced matrix elements (cm-1)
<S|| Hso(L-) ||S'> =   -58.8326656137    -0.0000000000
<S|| Hso(L0) ||S'> =     0.0000000000    -0.0000000000
<S|| Hso(L+) ||S'> =   -58.8326656137     0.0000000000
 1-elec SOC matrix (cm-1): < B(S,Sz) | Hso(1e) | A(S',Sz') >
                     |Sz'=-2.50>              |Sz'=-1.50>              |Sz'=-0.50>              |Sz'= 0.50>              |Sz'= 1.50>
 <Sz=-2.50|    0.000000   -0.000000i    31.447383   -0.000000i     0.000000    0.000000i     0.000000    0.000000i     0.000000    0.000000i
 <Sz=-1.50|  -31.447383   -0.000000i    -0.000000   -0.000000i    39.778142   -0.000000i     0.000000    0.000000i     0.000000   -0.000000i
 <Sz=-0.50|    0.000000    0.000000i   -39.778142   -0.000000i    -0.000000   -0.000000i    42.191091   -0.000000i     0.000000   -0.000000i
 <Sz= 0.50|    0.000000    0.000000i     0.000000    0.000000i   -42.191091   -0.000000i    -0.000000    0.000000i    39.778142   -0.000000i
 <Sz= 1.50|    0.000000    0.000000i     0.000000    0.000000i     0.000000    0.000000i   -39.778142   -0.000000i    -0.000000    0.000000i
 <Sz= 2.50|    0.000000    0.000000i    -0.000000   -0.000000i    -0.000000   -0.000000i     0.000000    0.000000i   -31.447383   -0.000000i
                     |Sz'= 2.50>
 <Sz=-2.50|    0.000000    0.000000i
 <Sz=-1.50|    0.000000    0.000000i
 <Sz=-0.50|    0.000000    0.000000i
 <Sz= 0.50|    0.000000    0.000000i
 <Sz= 1.50|   31.447383   -0.000000i
 <Sz= 2.50|   -0.000000    0.000000i
1-elec SOCC =   117.665331227 cm-1
 2e-SOMF Reduced matrix elements (cm-1)
<S|| Hso(L-) ||S'> =    24.9259788873     0.0000000000
<S|| Hso(L0) ||S'> =     0.0000000000     0.0000000000
<S|| Hso(L+) ||S'> =    24.9259788873    -0.0000000000
 2-elec mean-field SOC matrix (cm-1): < B(S,Sz) | Hso(2e-mf) | A(S',Sz') >
                     |Sz'=-2.50>              |Sz'=-1.50>              |Sz'=-0.50>              |Sz'= 0.50>              |Sz'= 1.50>
 <Sz=-2.50|    0.000000    0.000000i   -13.323496    0.000000i     0.000000    0.000000i     0.000000    0.000000i     0.000000    0.000000i
 <Sz=-1.50|   13.323496    0.000000i     0.000000    0.000000i   -16.853038    0.000000i    -0.000000   -0.000000i    -0.000000    0.000000i
 <Sz=-0.50|    0.000000    0.000000i    16.853038    0.000000i     0.000000    0.000000i   -17.875346    0.000000i    -0.000000    0.000000i
 <Sz= 0.50|    0.000000    0.000000i    -0.000000   -0.000000i    17.875346    0.000000i     0.000000   -0.000000i   -16.853038    0.000000i
 <Sz= 1.50|    0.000000    0.000000i    -0.000000   -0.000000i    -0.000000   -0.000000i    16.853038    0.000000i     0.000000   -0.000000i
 <Sz= 2.50|    0.000000    0.000000i     0.000000    0.000000i     0.000000    0.000000i    -0.000000   -0.000000i    13.323496    0.000000i
                     |Sz'= 2.50>
 <Sz=-2.50|    0.000000    0.000000i
 <Sz=-1.50|    0.000000    0.000000i
 <Sz=-0.50|    0.000000    0.000000i
 <Sz= 0.50|    0.000000    0.000000i
 <Sz= 1.50|  -13.323496    0.000000i
 <Sz= 2.50|    0.000000   -0.000000i
 Total mean-field SOC matrix (cm-1): < B(S,Sz) | Hsomf | A(S',Sz') >
                     |Sz'=-2.50>              |Sz'=-1.50>              |Sz'=-0.50>              |Sz'= 0.50>              |Sz'= 1.50>
 <Sz=-2.50|    0.000000   -0.000000i    18.123886   -0.000000i     0.000000    0.000000i     0.000000    0.000000i     0.000000    0.000000i
 <Sz=-1.50|  -18.123886   -0.000000i    -0.000000   -0.000000i    22.925104   -0.000000i     0.000000    0.000000i     0.000000   -0.000000i
 <Sz=-0.50|    0.000000    0.000000i   -22.925104   -0.000000i    -0.000000   -0.000000i    24.315745   -0.000000i     0.000000   -0.000000i
 <Sz= 0.50|    0.000000    0.000000i     0.000000    0.000000i   -24.315745   -0.000000i    -0.000000    0.000000i    22.925104   -0.000000i
 <Sz= 1.50|    0.000000    0.000000i     0.000000    0.000000i     0.000000    0.000000i   -22.925104   -0.000000i    -0.000000    0.000000i
 <Sz= 2.50|    0.000000    0.000000i    -0.000000   -0.000000i    -0.000000   -0.000000i     0.000000    0.000000i   -18.123886   -0.000000i
                     |Sz'= 2.50>
 <Sz=-2.50|    0.000000    0.000000i
 <Sz=-1.50|    0.000000    0.000000i
 <Sz=-0.50|    0.000000    0.000000i
 <Sz= 0.50|    0.000000    0.000000i
 <Sz= 1.50|   18.123886   -0.000000i
 <Sz= 2.50|   -0.000000    0.000000i
Mean-Field SOCC =    67.813373453 cm-1
   
**************************************************
State A: Root  3
State B: Root  4
  
Angular momentum components
< B | Lx | A > =    -0.997086892i
< B | Ly | A > =     0.000000000i
< B | Lz | A > =    -0.000000000i
  
Norm of one-particle transition density matrix
||gamma^AB||_total       =  1.000000
||gamma^AB||_symmetrized =  0.707107
||gamma^AB||_anti-symm   =  0.707107
  
Spin-orbit couplings
 Using HF (reference) density for the 2-elec mean-field SOC contribution
KET: S',Sz' (Root   3) =  2.500 2.500
BRA: S ,Sz  (Root   4) =  2.500 2.500
 1e Reduced matrix elements (cm-1)
<S|| Hso(L-) ||S'> =    -0.0000000000    66.0700117038
<S|| Hso(L0) ||S'> =     0.0000000000    -0.0000000000
<S|| Hso(L+) ||S'> =    -0.0000000000   -66.0700117038
 1-elec SOC matrix (cm-1): < B(S,Sz) | Hso(1e) | A(S',Sz') >
                     |Sz'=-2.50>              |Sz'=-1.50>              |Sz'=-0.50>              |Sz'= 0.50>              |Sz'= 1.50>
 <Sz=-2.50|    0.000000   -0.000000i     0.000000   35.315907i     0.000000    0.000000i     0.000000    0.000000i     0.000000    0.000000i
 <Sz=-1.50|   -0.000000   35.315907i    -0.000000   -0.000000i     0.000000   44.671481i     0.000000    0.000000i     0.000000    0.000000i
 <Sz=-0.50|    0.000000    0.000000i    -0.000000   44.671481i    -0.000000   -0.000000i     0.000000   47.381261i     0.000000    0.000000i
 <Sz= 0.50|    0.000000    0.000000i     0.000000   -0.000000i    -0.000000   47.381261i    -0.000000    0.000000i     0.000000   44.671481i
 <Sz= 1.50|    0.000000    0.000000i     0.000000   -0.000000i     0.000000   -0.000000i    -0.000000   44.671481i    -0.000000    0.000000i
 <Sz= 2.50|    0.000000    0.000000i    -0.000000    0.000000i    -0.000000    0.000000i     0.000000   -0.000000i    -0.000000   35.315907i
                     |Sz'= 2.50>
 <Sz=-2.50|    0.000000    0.000000i
 <Sz=-1.50|    0.000000    0.000000i
 <Sz=-0.50|    0.000000    0.000000i
 <Sz= 0.50|    0.000000    0.000000i
 <Sz= 1.50|    0.000000   35.315907i
 <Sz= 2.50|   -0.000000    0.000000i
1-elec SOCC =   132.140023408 cm-1
 2e-SOMF Reduced matrix elements (cm-1)
<S|| Hso(L-) ||S'> =     0.0000000000   -25.9035545314
<S|| Hso(L0) ||S'> =     0.0000000000     0.0000000000
<S|| Hso(L+) ||S'> =     0.0000000000    25.9035545314
 2-elec mean-field SOC matrix (cm-1): < B(S,Sz) | Hso(2e-mf) | A(S',Sz') >
                     |Sz'=-2.50>              |Sz'=-1.50>              |Sz'=-0.50>              |Sz'= 0.50>              |Sz'= 1.50>
 <Sz=-2.50|    0.000000    0.000000i    -0.000000  -13.846032i     0.000000    0.000000i     0.000000    0.000000i     0.000000    0.000000i
 <Sz=-1.50|    0.000000  -13.846032i     0.000000    0.000000i    -0.000000  -17.513999i    -0.000000   -0.000000i    -0.000000   -0.000000i
 <Sz=-0.50|    0.000000    0.000000i     0.000000  -17.513999i     0.000000    0.000000i    -0.000000  -18.576402i    -0.000000   -0.000000i
 <Sz= 0.50|    0.000000    0.000000i    -0.000000    0.000000i     0.000000  -18.576402i     0.000000   -0.000000i    -0.000000  -17.513999i
 <Sz= 1.50|    0.000000    0.000000i    -0.000000    0.000000i    -0.000000    0.000000i     0.000000  -17.513999i     0.000000   -0.000000i
 <Sz= 2.50|    0.000000    0.000000i     0.000000   -0.000000i     0.000000   -0.000000i    -0.000000    0.000000i     0.000000  -13.846032i
                     |Sz'= 2.50>
 <Sz=-2.50|    0.000000    0.000000i
 <Sz=-1.50|    0.000000    0.000000i
 <Sz=-0.50|    0.000000    0.000000i
 <Sz= 0.50|    0.000000    0.000000i
 <Sz= 1.50|   -0.000000  -13.846032i
 <Sz= 2.50|    0.000000   -0.000000i
 Total mean-field SOC matrix (cm-1): < B(S,Sz) | Hsomf | A(S',Sz') >
                     |Sz'=-2.50>              |Sz'=-1.50>              |Sz'=-0.50>              |Sz'= 0.50>              |Sz'= 1.50>
 <Sz=-2.50|    0.000000   -0.000000i     0.000000   21.469874i     0.000000    0.000000i     0.000000    0.000000i     0.000000    0.000000i
 <Sz=-1.50|   -0.000000   21.469874i    -0.000000   -0.000000i     0.000000   27.157482i     0.000000    0.000000i     0.000000    0.000000i
 <Sz=-0.50|    0.000000    0.000000i    -0.000000   27.157482i    -0.000000   -0.000000i     0.000000   28.804859i     0.000000    0.000000i
 <Sz= 0.50|    0.000000    0.000000i     0.000000   -0.000000i    -0.000000   28.804859i    -0.000000    0.000000i     0.000000   27.157482i
 <Sz= 1.50|    0.000000    0.000000i     0.000000   -0.000000i     0.000000   -0.000000i    -0.000000   27.157482i    -0.000000    0.000000i
 <Sz= 2.50|    0.000000    0.000000i    -0.000000    0.000000i    -0.000000    0.000000i     0.000000   -0.000000i    -0.000000   21.469874i
                     |Sz'= 2.50>
 <Sz=-2.50|    0.000000    0.000000i
 <Sz=-1.50|    0.000000    0.000000i
 <Sz=-0.50|    0.000000    0.000000i
 <Sz= 0.50|    0.000000    0.000000i
 <Sz= 1.50|    0.000000   21.469874i
 <Sz= 2.50|   -0.000000    0.000000i
Mean-Field SOCC =    80.332914345 cm-1
   
**************************************************
State A: Root  3
State B: Root  5
  
Angular momentum components
< B | Lx | A > =    -0.000000000i
< B | Ly | A > =     0.000000000i
< B | Lz | A > =    -0.000000000i
  
Norm of one-particle transition density matrix
||gamma^AB||_total       =  0.999998
||gamma^AB||_symmetrized =  0.707106
||gamma^AB||_anti-symm   =  0.707104
  
Spin-orbit couplings
 Using HF (reference) density for the 2-elec mean-field SOC contribution
KET: S',Sz' (Root   3) =  2.500 2.500
BRA: S ,Sz  (Root   5) =  2.500 2.500
 1e Reduced matrix elements (cm-1)
<S|| Hso(L-) ||S'> =     0.0000000000     0.0000000000
<S|| Hso(L0) ||S'> =     0.0000000000    -0.0000000000
<S|| Hso(L+) ||S'> =     0.0000000000    -0.0000000000
 1-elec SOC matrix (cm-1): < B(S,Sz) | Hso(1e) | A(S',Sz') >
                     |Sz'=-2.50>              |Sz'=-1.50>              |Sz'=-0.50>              |Sz'= 0.50>              |Sz'= 1.50>
 <Sz=-2.50|    0.000000   -0.000000i    -0.000000    0.000000i     0.000000    0.000000i     0.000000    0.000000i     0.000000    0.000000i
 <Sz=-1.50|    0.000000    0.000000i     0.000000   -0.000000i    -0.000000    0.000000i    -0.000000    0.000000i    -0.000000    0.000000i
 <Sz=-0.50|    0.000000    0.000000i     0.000000    0.000000i     0.000000   -0.000000i    -0.000000    0.000000i    -0.000000    0.000000i
 <Sz= 0.50|    0.000000    0.000000i    -0.000000   -0.000000i     0.000000    0.000000i     0.000000    0.000000i    -0.000000    0.000000i
 <Sz= 1.50|    0.000000    0.000000i    -0.000000   -0.000000i    -0.000000   -0.000000i     0.000000    0.000000i     0.000000    0.000000i
 <Sz= 2.50|    0.000000    0.000000i     0.000000    0.000000i     0.000000    0.000000i    -0.000000   -0.000000i     0.000000    0.000000i
                     |Sz'= 2.50>
 <Sz=-2.50|    0.000000    0.000000i
 <Sz=-1.50|    0.000000    0.000000i
 <Sz=-0.50|    0.000000    0.000000i
 <Sz= 0.50|    0.000000    0.000000i
 <Sz= 1.50|   -0.000000    0.000000i
 <Sz= 2.50|    0.000000    0.000000i
1-elec SOCC =     0.000000000 cm-1
 2e-SOMF Reduced matrix elements (cm-1)
<S|| Hso(L-) ||S'> =    -0.0000000000    -0.0000000000
<S|| Hso(L0) ||S'> =     0.0000000000     0.0000000000
<S|| Hso(L+) ||S'> =    -0.0000000000     0.0000000000
 2-elec mean-field SOC matrix (cm-1): < B(S,Sz) | Hso(2e-mf) | A(S',Sz') >
                     |Sz'=-2.50>              |Sz'=-1.50>              |Sz'=-0.50>              |Sz'= 0.50>              |Sz'= 1.50>
 <Sz=-2.50|    0.000000    0.000000i     0.000000   -0.000000i     0.000000    0.000000i     0.000000    0.000000i     0.000000    0.000000i
 <Sz=-1.50|   -0.000000   -0.000000i    -0.000000    0.000000i     0.000000   -0.000000i     0.000000   -0.000000i     0.000000   -0.000000i
 <Sz=-0.50|    0.000000    0.000000i    -0.000000   -0.000000i    -0.000000    0.000000i     0.000000   -0.000000i     0.000000   -0.000000i
 <Sz= 0.50|    0.000000    0.000000i     0.000000    0.000000i    -0.000000   -0.000000i    -0.000000   -0.000000i     0.000000   -0.000000i
 <Sz= 1.50|    0.000000    0.000000i     0.000000    0.000000i     0.000000    0.000000i    -0.000000   -0.000000i    -0.000000   -0.000000i
 <Sz= 2.50|    0.000000    0.000000i    -0.000000   -0.000000i    -0.000000   -0.000000i     0.000000    0.000000i    -0.000000   -0.000000i
                     |Sz'= 2.50>
 <Sz=-2.50|    0.000000    0.000000i
 <Sz=-1.50|    0.000000    0.000000i
 <Sz=-0.50|    0.000000    0.000000i
 <Sz= 0.50|    0.000000    0.000000i
 <Sz= 1.50|    0.000000   -0.000000i
 <Sz= 2.50|   -0.000000   -0.000000i
 Total mean-field SOC matrix (cm-1): < B(S,Sz) | Hsomf | A(S',Sz') >
                     |Sz'=-2.50>              |Sz'=-1.50>              |Sz'=-0.50>              |Sz'= 0.50>              |Sz'= 1.50>
 <Sz=-2.50|    0.000000    0.000000i    -0.000000    0.000000i     0.000000    0.000000i     0.000000    0.000000i     0.000000    0.000000i
 <Sz=-1.50|    0.000000    0.000000i     0.000000    0.000000i    -0.000000    0.000000i    -0.000000    0.000000i    -0.000000    0.000000i
 <Sz=-0.50|    0.000000    0.000000i     0.000000    0.000000i     0.000000    0.000000i    -0.000000    0.000000i    -0.000000    0.000000i
 <Sz= 0.50|    0.000000    0.000000i    -0.000000   -0.000000i     0.000000    0.000000i     0.000000   -0.000000i    -0.000000    0.000000i
 <Sz= 1.50|    0.000000    0.000000i    -0.000000   -0.000000i    -0.000000   -0.000000i     0.000000    0.000000i     0.000000   -0.000000i
 <Sz= 2.50|    0.000000    0.000000i     0.000000    0.000000i     0.000000    0.000000i    -0.000000   -0.000000i     0.000000    0.000000i
                     |Sz'= 2.50>
 <Sz=-2.50|    0.000000    0.000000i
 <Sz=-1.50|    0.000000    0.000000i
 <Sz=-0.50|    0.000000    0.000000i
 <Sz= 0.50|    0.000000    0.000000i
 <Sz= 1.50|   -0.000000    0.000000i
 <Sz= 2.50|    0.000000   -0.000000i
Mean-Field SOCC =     0.000000000 cm-1
   
**************************************************
State A: Root  4
State B: Root  1
  
Angular momentum components
< B | Lx | A > =    -0.042281009i
< B | Ly | A > =     0.000000000i
< B | Lz | A > =     0.000000000i
  
Norm of one-particle transition density matrix
||gamma^AB||_total       =  0.999999
||gamma^AB||_symmetrized =  0.707106
||gamma^AB||_anti-symm   =  0.707106
  
Spin-orbit couplings
 Using HF (reference) density for the 2-elec mean-field SOC contribution
KET: S',Sz' (Root   4) =  2.500 2.500
BRA: S ,Sz  (Root   1) =  2.500 2.500
 1e Reduced matrix elements (cm-1)
<S|| Hso(L-) ||S'> =    -0.0000000000     7.6852925218
<S|| Hso(L0) ||S'> =     0.0000000000     0.0000000000
<S|| Hso(L+) ||S'> =    -0.0000000000    -7.6852925218
 1-elec SOC matrix (cm-1): < B(S,Sz) | Hso(1e) | A(S',Sz') >
                     |Sz'=-2.50>              |Sz'=-1.50>              |Sz'=-0.50>              |Sz'= 0.50>              |Sz'= 1.50>
 <Sz=-2.50|    0.000000    0.000000i     0.000000    4.107962i     0.000000    0.000000i     0.000000    0.000000i     0.000000    0.000000i
 <Sz=-1.50|   -0.000000    4.107962i    -0.000000    0.000000i     0.000000    5.196206i     0.000000    0.000000i     0.000000    0.000000i
 <Sz=-0.50|    0.000000    0.000000i    -0.000000    5.196206i    -0.000000    0.000000i     0.000000    5.511409i     0.000000    0.000000i
[...]
 <Sz= 2.50|    0.000000    0.000000i     0.000000    0.000000i     0.000000    0.000000i    -0.000000   -0.000000i     0.000000    0.000000i
                     |Sz'= 2.50>
 <Sz=-2.50|    0.000000    0.000000i
 <Sz=-1.50|    0.000000    0.000000i
 <Sz=-0.50|    0.000000    0.000000i
 <Sz= 0.50|    0.000000    0.000000i
 <Sz= 1.50|   -0.000000    0.000000i
 <Sz= 2.50|    0.000000   -0.000000i
 Total mean-field SOC matrix (cm-1): < B(S,Sz) | Hsomf | A(S',Sz') >
                     |Sz'=-2.50>              |Sz'=-1.50>              |Sz'=-0.50>              |Sz'= 0.50>              |Sz'= 1.50>
 <Sz=-2.50|    0.000000    0.000000i    -0.000000   -0.000000i     0.000000    0.000000i     0.000000    0.000000i     0.000000    0.000000i
 <Sz=-1.50|    0.000000   -0.000000i     0.000000    0.000000i    -0.000000   -0.000000i    -0.000000   -0.000000i    -0.000000   -0.000000i
 <Sz=-0.50|    0.000000    0.000000i     0.000000   -0.000000i     0.000000    0.000000i    -0.000000   -0.000000i    -0.000000   -0.000000i
 <Sz= 0.50|    0.000000    0.000000i    -0.000000    0.000000i     0.000000   -0.000000i     0.000000   -0.000000i    -0.000000   -0.000000i
 <Sz= 1.50|    0.000000    0.000000i    -0.000000    0.000000i    -0.000000    0.000000i     0.000000   -0.000000i     0.000000   -0.000000i
 <Sz= 2.50|    0.000000    0.000000i     0.000000   -0.000000i     0.000000   -0.000000i    -0.000000    0.000000i     0.000000   -0.000000i
                     |Sz'= 2.50>
 <Sz=-2.50|    0.000000    0.000000i
 <Sz=-1.50|    0.000000    0.000000i
 <Sz=-0.50|    0.000000    0.000000i
 <Sz= 0.50|    0.000000    0.000000i
 <Sz= 1.50|   -0.000000   -0.000000i
 <Sz= 2.50|    0.000000   -0.000000i
Mean-Field SOCC =     0.000000000 cm-1
   
**************************************************
State A: Root  5
State B: Root  2
  
Angular momentum components
< B | Lx | A > =    -0.000000000i
< B | Ly | A > =    -0.000864434i
< B | Lz | A > =    -0.000000000i
  
Norm of one-particle transition density matrix
||gamma^AB||_total       =  0.999997
||gamma^AB||_symmetrized =  0.707105
||gamma^AB||_anti-symm   =  0.707105
  
Spin-orbit couplings
 Using HF (reference) density for the 2-elec mean-field SOC contribution
KET: S',Sz' (Root   5) =  2.500 2.500
BRA: S ,Sz  (Root   2) =  2.500 2.500
 1e Reduced matrix elements (cm-1)
<S|| Hso(L-) ||S'> =    24.9597280270     0.0000000000
<S|| Hso(L0) ||S'> =     0.0000000000    -0.0000000000
<S|| Hso(L+) ||S'> =    24.9597280270    -0.0000000000
 1-elec SOC matrix (cm-1): < B(S,Sz) | Hso(1e) | A(S',Sz') >
                     |Sz'=-2.50>              |Sz'=-1.50>              |Sz'=-0.50>              |Sz'= 0.50>              |Sz'= 1.50>
 <Sz=-2.50|    0.000000   -0.000000i   -13.341536    0.000000i     0.000000    0.000000i     0.000000    0.000000i     0.000000    0.000000i
 <Sz=-1.50|   13.341536    0.000000i     0.000000   -0.000000i   -16.875856    0.000000i    -0.000000    0.000000i    -0.000000    0.000000i
 <Sz=-0.50|    0.000000    0.000000i    16.875856    0.000000i     0.000000   -0.000000i   -17.899549    0.000000i    -0.000000    0.000000i
 <Sz= 0.50|    0.000000    0.000000i    -0.000000   -0.000000i    17.899549    0.000000i     0.000000    0.000000i   -16.875856    0.000000i
 <Sz= 1.50|    0.000000    0.000000i    -0.000000   -0.000000i    -0.000000   -0.000000i    16.875856    0.000000i     0.000000    0.000000i
 <Sz= 2.50|    0.000000    0.000000i     0.000000    0.000000i     0.000000    0.000000i    -0.000000   -0.000000i    13.341536    0.000000i
                     |Sz'= 2.50>
 <Sz=-2.50|    0.000000    0.000000i
 <Sz=-1.50|    0.000000    0.000000i
 <Sz=-0.50|    0.000000    0.000000i
 <Sz= 0.50|    0.000000    0.000000i
 <Sz= 1.50|  -13.341536    0.000000i
 <Sz= 2.50|    0.000000    0.000000i
1-elec SOCC =    49.919456054 cm-1
 2e-SOMF Reduced matrix elements (cm-1)
<S|| Hso(L-) ||S'> =    -9.3354749248    -0.0000000000
<S|| Hso(L0) ||S'> =     0.0000000000     0.0000000000
<S|| Hso(L+) ||S'> =    -9.3354749248     0.0000000000
 2-elec mean-field SOC matrix (cm-1): < B(S,Sz) | Hso(2e-mf) | A(S',Sz') >
                     |Sz'=-2.50>              |Sz'=-1.50>              |Sz'=-0.50>              |Sz'= 0.50>              |Sz'= 1.50>
 <Sz=-2.50|    0.000000    0.000000i     4.990021   -0.000000i     0.000000    0.000000i     0.000000    0.000000i     0.000000    0.000000i
 <Sz=-1.50|   -4.990021   -0.000000i    -0.000000    0.000000i     6.311933   -0.000000i     0.000000   -0.000000i     0.000000   -0.000000i
 <Sz=-0.50|    0.000000    0.000000i    -6.311933   -0.000000i    -0.000000    0.000000i     6.694816   -0.000000i     0.000000   -0.000000i
 <Sz= 0.50|    0.000000    0.000000i     0.000000    0.000000i    -6.694816   -0.000000i    -0.000000   -0.000000i     6.311933   -0.000000i
 <Sz= 1.50|    0.000000    0.000000i     0.000000    0.000000i     0.000000    0.000000i    -6.311933   -0.000000i    -0.000000   -0.000000i
 <Sz= 2.50|    0.000000    0.000000i    -0.000000   -0.000000i    -0.000000   -0.000000i     0.000000    0.000000i    -4.990021   -0.000000i
                     |Sz'= 2.50>
 <Sz=-2.50|    0.000000    0.000000i
 <Sz=-1.50|    0.000000    0.000000i
 <Sz=-0.50|    0.000000    0.000000i
 <Sz= 0.50|    0.000000    0.000000i
 <Sz= 1.50|    4.990021   -0.000000i
 <Sz= 2.50|   -0.000000   -0.000000i
 Total mean-field SOC matrix (cm-1): < B(S,Sz) | Hsomf | A(S',Sz') >
                     |Sz'=-2.50>              |Sz'=-1.50>              |Sz'=-0.50>              |Sz'= 0.50>              |Sz'= 1.50>
 <Sz=-2.50|    0.000000   -0.000000i    -8.351515    0.000000i     0.000000    0.000000i     0.000000    0.000000i     0.000000    0.000000i
 <Sz=-1.50|    8.351515    0.000000i     0.000000   -0.000000i   -10.563923    0.000000i    -0.000000    0.000000i    -0.000000    0.000000i
 <Sz=-0.50|    0.000000    0.000000i    10.563923    0.000000i     0.000000   -0.000000i   -11.204733    0.000000i    -0.000000    0.000000i
 <Sz= 0.50|    0.000000    0.000000i    -0.000000   -0.000000i    11.204733    0.000000i     0.000000    0.000000i   -10.563923    0.000000i
 <Sz= 1.50|    0.000000    0.000000i    -0.000000   -0.000000i    -0.000000   -0.000000i    10.563923    0.000000i     0.000000    0.000000i
 <Sz= 2.50|    0.000000    0.000000i     0.000000    0.000000i     0.000000    0.000000i    -0.000000   -0.000000i     8.351515    0.000000i
                     |Sz'= 2.50>
 <Sz=-2.50|    0.000000    0.000000i
 <Sz=-1.50|    0.000000    0.000000i
 <Sz=-0.50|    0.000000    0.000000i
 <Sz= 0.50|    0.000000    0.000000i
 <Sz= 1.50|   -8.351515    0.000000i
 <Sz= 2.50|    0.000000    0.000000i
Mean-Field SOCC =    31.248506204 cm-1
   
**************************************************
State A: Root  5
State B: Root  3
  
Angular momentum components
< B | Lx | A > =     0.000000000i
< B | Ly | A > =    -0.000000000i
< B | Lz | A > =     0.000000000i
  
Norm of one-particle transition density matrix
||gamma^AB||_total       =  0.999998
||gamma^AB||_symmetrized =  0.707106
||gamma^AB||_anti-symm   =  0.707104
  
Spin-orbit couplings
 Using HF (reference) density for the 2-elec mean-field SOC contribution
KET: S',Sz' (Root   5) =  2.500 2.500
BRA: S ,Sz  (Root   3) =  2.500 2.500
 1e Reduced matrix elements (cm-1)
<S|| Hso(L-) ||S'> =    -0.0000000000    -0.0000000000
<S|| Hso(L0) ||S'> =     0.0000000000     0.0000000000
<S|| Hso(L+) ||S'> =    -0.0000000000     0.0000000000
 1-elec SOC matrix (cm-1): < B(S,Sz) | Hso(1e) | A(S',Sz') >
                     |Sz'=-2.50>              |Sz'=-1.50>              |Sz'=-0.50>              |Sz'= 0.50>              |Sz'= 1.50>
 <Sz=-2.50|    0.000000    0.000000i     0.000000   -0.000000i     0.000000    0.000000i     0.000000    0.000000i     0.000000    0.000000i
 <Sz=-1.50|   -0.000000   -0.000000i    -0.000000    0.000000i     0.000000   -0.000000i     0.000000   -0.000000i     0.000000   -0.000000i
 <Sz=-0.50|    0.000000    0.000000i    -0.000000   -0.000000i    -0.000000    0.000000i     0.000000   -0.000000i     0.000000   -0.000000i
 <Sz= 0.50|    0.000000    0.000000i     0.000000    0.000000i    -0.000000   -0.000000i    -0.000000   -0.000000i     0.000000   -0.000000i
 <Sz= 1.50|    0.000000    0.000000i     0.000000    0.000000i     0.000000    0.000000i    -0.000000   -0.000000i    -0.000000   -0.000000i
 <Sz= 2.50|    0.000000    0.000000i    -0.000000   -0.000000i    -0.000000   -0.000000i     0.000000    0.000000i    -0.000000   -0.000000i
                     |Sz'= 2.50>
 <Sz=-2.50|    0.000000    0.000000i
 <Sz=-1.50|    0.000000    0.000000i
 <Sz=-0.50|    0.000000    0.000000i
 <Sz= 0.50|    0.000000    0.000000i
 <Sz= 1.50|    0.000000   -0.000000i
 <Sz= 2.50|   -0.000000   -0.000000i
1-elec SOCC =     0.000000000 cm-1
 2e-SOMF Reduced matrix elements (cm-1)
<S|| Hso(L-) ||S'> =     0.0000000000     0.0000000000
<S|| Hso(L0) ||S'> =     0.0000000000    -0.0000000000
<S|| Hso(L+) ||S'> =     0.0000000000    -0.0000000000
 2-elec mean-field SOC matrix (cm-1): < B(S,Sz) | Hso(2e-mf) | A(S',Sz') >
                     |Sz'=-2.50>              |Sz'=-1.50>              |Sz'=-0.50>              |Sz'= 0.50>              |Sz'= 1.50>
 <Sz=-2.50|    0.000000   -0.000000i    -0.000000    0.000000i     0.000000    0.000000i     0.000000    0.000000i     0.000000    0.000000i
 <Sz=-1.50|    0.000000    0.000000i     0.000000   -0.000000i    -0.000000    0.000000i    -0.000000    0.000000i    -0.000000    0.000000i
 <Sz=-0.50|    0.000000    0.000000i     0.000000    0.000000i     0.000000   -0.000000i    -0.000000    0.000000i    -0.000000    0.000000i
 <Sz= 0.50|    0.000000    0.000000i    -0.000000   -0.000000i     0.000000    0.000000i     0.000000    0.000000i    -0.000000    0.000000i
 <Sz= 1.50|    0.000000    0.000000i    -0.000000   -0.000000i    -0.000000   -0.000000i     0.000000    0.000000i     0.000000    0.000000i
 <Sz= 2.50|    0.000000    0.000000i     0.000000    0.000000i     0.000000    0.000000i    -0.000000   -0.000000i     0.000000    0.000000i
                     |Sz'= 2.50>
 <Sz=-2.50|    0.000000    0.000000i
 <Sz=-1.50|    0.000000    0.000000i
 <Sz=-0.50|    0.000000    0.000000i
 <Sz= 0.50|    0.000000    0.000000i
 <Sz= 1.50|   -0.000000    0.000000i
 <Sz= 2.50|    0.000000    0.000000i
 Total mean-field SOC matrix (cm-1): < B(S,Sz) | Hsomf | A(S',Sz') >
                     |Sz'=-2.50>              |Sz'=-1.50>              |Sz'=-0.50>              |Sz'= 0.50>              |Sz'= 1.50>
 <Sz=-2.50|    0.000000   -0.000000i     0.000000   -0.000000i     0.000000    0.000000i     0.000000    0.000000i     0.000000    0.000000i
 <Sz=-1.50|   -0.000000   -0.000000i    -0.000000   -0.000000i     0.000000   -0.000000i     0.000000   -0.000000i     0.000000   -0.000000i
 <Sz=-0.50|    0.000000    0.000000i    -0.000000   -0.000000i    -0.000000   -0.000000i     0.000000   -0.000000i     0.000000   -0.000000i
 <Sz= 0.50|    0.000000    0.000000i     0.000000    0.000000i    -0.000000   -0.000000i    -0.000000    0.000000i     0.000000   -0.000000i
 <Sz= 1.50|    0.000000    0.000000i     0.000000    0.000000i     0.000000    0.000000i    -0.000000   -0.000000i    -0.000000    0.000000i
 <Sz= 2.50|    0.000000    0.000000i    -0.000000   -0.000000i    -0.000000   -0.000000i     0.000000    0.000000i    -0.000000   -0.000000i
                     |Sz'= 2.50>
 <Sz=-2.50|    0.000000    0.000000i
 <Sz=-1.50|    0.000000    0.000000i
 <Sz=-0.50|    0.000000    0.000000i
 <Sz= 0.50|    0.000000    0.000000i
 <Sz= 1.50|    0.000000   -0.000000i
 <Sz= 2.50|   -0.000000    0.000000i
Mean-Field SOCC =     0.000000000 cm-1
   
**************************************************
State A: Root  5
State B: Root  4
  
Angular momentum components
< B | Lx | A > =     0.110809682i
< B | Ly | A > =    -0.000000000i
< B | Lz | A > =     0.000000000i
  
Norm of one-particle transition density matrix
||gamma^AB||_total       =  0.999997
||gamma^AB||_symmetrized =  0.707105
||gamma^AB||_anti-symm   =  0.707105
  
Spin-orbit couplings
 Using HF (reference) density for the 2-elec mean-field SOC contribution
KET: S',Sz' (Root   5) =  2.500 2.500
BRA: S ,Sz  (Root   4) =  2.500 2.500
 1e Reduced matrix elements (cm-1)
<S|| Hso(L-) ||S'> =     0.0000000000   -28.2642644741
<S|| Hso(L0) ||S'> =     0.0000000000    -0.0000000000
<S|| Hso(L+) ||S'> =     0.0000000000    28.2642644741
 1-elec SOC matrix (cm-1): < B(S,Sz) | Hso(1e) | A(S',Sz') >
                     |Sz'=-2.50>              |Sz'=-1.50>              |Sz'=-0.50>              |Sz'= 0.50>              |Sz'= 1.50>
 <Sz=-2.50|    0.000000   -0.000000i    -0.000000  -15.107885i     0.000000    0.000000i     0.000000    0.000000i     0.000000    0.000000i
 <Sz=-1.50|    0.000000  -15.107885i     0.000000   -0.000000i    -0.000000  -19.110131i    -0.000000   -0.000000i    -0.000000   -0.000000i
 <Sz=-0.50|    0.000000    0.000000i     0.000000  -19.110131i     0.000000   -0.000000i    -0.000000  -20.269355i    -0.000000   -0.000000i
 <Sz= 0.50|    0.000000    0.000000i    -0.000000    0.000000i     0.000000  -20.269355i     0.000000    0.000000i    -0.000000  -19.110131i
 <Sz= 1.50|    0.000000    0.000000i    -0.000000    0.000000i    -0.000000    0.000000i     0.000000  -19.110131i     0.000000    0.000000i
 <Sz= 2.50|    0.000000    0.000000i     0.000000   -0.000000i     0.000000   -0.000000i    -0.000000    0.000000i     0.000000  -15.107885i
                     |Sz'= 2.50>
 <Sz=-2.50|    0.000000    0.000000i
 <Sz=-1.50|    0.000000    0.000000i
 <Sz=-0.50|    0.000000    0.000000i
 <Sz= 0.50|    0.000000    0.000000i
 <Sz= 1.50|   -0.000000  -15.107885i
 <Sz= 2.50|    0.000000    0.000000i
1-elec SOCC =    56.528528948 cm-1
 2e-SOMF Reduced matrix elements (cm-1)
<S|| Hso(L-) ||S'> =    -0.0000000000     9.8613596517
<S|| Hso(L0) ||S'> =     0.0000000000     0.0000000000
<S|| Hso(L+) ||S'> =    -0.0000000000    -9.8613596517
 2-elec mean-field SOC matrix (cm-1): < B(S,Sz) | Hso(2e-mf) | A(S',Sz') >
                     |Sz'=-2.50>              |Sz'=-1.50>              |Sz'=-0.50>              |Sz'= 0.50>              |Sz'= 1.50>
 <Sz=-2.50|    0.000000    0.000000i     0.000000    5.271118i     0.000000    0.000000i     0.000000    0.000000i     0.000000    0.000000i
 <Sz=-1.50|   -0.000000    5.271118i    -0.000000    0.000000i     0.000000    6.667496i     0.000000    0.000000i     0.000000    0.000000i
 <Sz=-0.50|    0.000000    0.000000i    -0.000000    6.667496i    -0.000000    0.000000i     0.000000    7.071948i     0.000000    0.000000i
 <Sz= 0.50|    0.000000    0.000000i     0.000000   -0.000000i    -0.000000    7.071948i    -0.000000   -0.000000i     0.000000    6.667496i
 <Sz= 1.50|    0.000000    0.000000i     0.000000   -0.000000i     0.000000   -0.000000i    -0.000000    6.667496i    -0.000000   -0.000000i
 <Sz= 2.50|    0.000000    0.000000i    -0.000000    0.000000i    -0.000000    0.000000i     0.000000   -0.000000i    -0.000000    5.271118i
                     |Sz'= 2.50>
 <Sz=-2.50|    0.000000    0.000000i
 <Sz=-1.50|    0.000000    0.000000i
 <Sz=-0.50|    0.000000    0.000000i
 <Sz= 0.50|    0.000000    0.000000i
 <Sz= 1.50|    0.000000    5.271118i
 <Sz= 2.50|   -0.000000   -0.000000i
 Total mean-field SOC matrix (cm-1): < B(S,Sz) | Hsomf | A(S',Sz') >
                     |Sz'=-2.50>              |Sz'=-1.50>              |Sz'=-0.50>              |Sz'= 0.50>              |Sz'= 1.50>
 <Sz=-2.50|    0.000000   -0.000000i    -0.000000   -9.836766i     0.000000    0.000000i     0.000000    0.000000i     0.000000    0.000000i
 <Sz=-1.50|    0.000000   -9.836766i     0.000000   -0.000000i    -0.000000  -12.442635i    -0.000000   -0.000000i    -0.000000   -0.000000i
 <Sz=-0.50|    0.000000    0.000000i     0.000000  -12.442635i     0.000000   -0.000000i    -0.000000  -13.197407i    -0.000000   -0.000000i
 <Sz= 0.50|    0.000000    0.000000i    -0.000000    0.000000i     0.000000  -13.197407i     0.000000    0.000000i    -0.000000  -12.442635i
 <Sz= 1.50|    0.000000    0.000000i    -0.000000    0.000000i    -0.000000    0.000000i     0.000000  -12.442635i     0.000000    0.000000i
 <Sz= 2.50|    0.000000    0.000000i     0.000000   -0.000000i     0.000000   -0.000000i    -0.000000    0.000000i     0.000000   -9.836766i
                     |Sz'= 2.50>
 <Sz=-2.50|    0.000000    0.000000i
 <Sz=-1.50|    0.000000    0.000000i
 <Sz=-0.50|    0.000000    0.000000i
 <Sz= 0.50|    0.000000    0.000000i
 <Sz= 1.50|   -0.000000   -9.836766i
 <Sz= 2.50|    0.000000    0.000000i
Mean-Field SOCC =    36.805809645 cm-1
   
**************************************************
RAS-CI timing summary (seconds)
  CPU time          0.30s
  System time       0.00s
  Wall time         0.39s
  
 
 --------------------------------------------------------------
             Orbital Energies (a.u.) and Symmetries
 --------------------------------------------------------------
 
 Alpha MOs, Restricted
 -- Doubly Occupied --           
-20.956  -1.823  -1.150  -0.972
  1 A1    2 A1    1 B1    1 B2                                                 
 -- Singly Occupied (Occupied) --
 -1.135
  3 A1                                                                         
 -- Virtual --                   
  0.075   0.181
  4 A1    2 B1                                                                 
 
 Beta MOs, Restricted
 -- Doubly Occupied --           
-20.928  -1.700  -1.107  -0.916
  1 A1    2 A1    1 B1    1 B2                                                 
 -- Singly Occupied (Vacant) --  
 -0.292
  3 A1                                                                         
 -- Virtual --                   
  0.124   0.233
  4 A1    2 B1                                                                 
 --------------------------------------------------------------
 
          Ground-State Mulliken Net Atomic Charges

     Atom                 Charge (a.u.)
  ----------------------------------------
      1 O                     0.048961
      2 H                     0.475519
      3 H                     0.475519
  ----------------------------------------
  Sum of atomic charges =     1.000000

 -----------------------------------------------------------------
                    Cartesian Multipole Moments
 -----------------------------------------------------------------
    Charge (ESU x 10^10)
                 4.8032
    Dipole Moment (Debye)
         X      -0.0000      Y      -0.0000      Z      -1.8993
       Tot       1.8993
    Quadrupole Moments (Debye-Ang)
        XX      -1.7097     XY       0.0000     YY      -5.4316
        XZ       0.0000     YZ       0.0000     ZZ      -3.2320
    Octopole Moments (Debye-Ang^2)
       XXX      -0.0000    XXY      -0.0000    XYY      -0.0000
       YYY      -0.0000    XXZ      -1.7814    XYZ      -0.0000
       YYZ      -0.1378    XZZ       0.0000    YZZ      -0.0000
       ZZZ      -0.7126
    Hexadecapole Moments (Debye-Ang^3)
      XXXX      -3.1459   XXXY       0.0000   XXYY      -1.4108
      XYYY       0.0000   YYYY      -2.8013   XXXZ       0.0000
      XXYZ       0.0000   XYYZ       0.0000   YYYZ      -0.0000
      XXZZ      -0.6180   XYZZ       0.0000   YYZZ      -1.0158
      XZZZ       0.0000   YZZZ       0.0000   ZZZZ      -2.9171
 -----------------------------------------------------------------
 Mayer SCF Bond Order, atomic valence on the diagonal:

            1           2           3
    1   1.4912078   0.7456039   0.7456039
    2   0.7456039   0.7723315   0.0267276
    3   0.7456039   0.0267276   0.7723315


 Total job time:  1.26s(wall), 0.45s(cpu) 
 Wed Oct 25 18:24:44 2023

        *************************************************************
        *                                                           *
        *  Thank you very much for using Q-Chem.  Have a nice day.  *
        *                                                           *
        *************************************************************


