                  Welcome to Q-Chem
     A Quantum Leap Into The Future Of Chemistry


 Q-Chem 5.4 (devel), Q-Chem, Inc., Pleasanton, CA (2021)

 E. Epifanovsky,  A. T. B. Gilbert,  Xintian Feng,  Joonho Lee,  Yuezhi Mao,  
 N. Mardirossian,  P. Pokhilko,  A. White,  M. Wormit,  M. P. Coons,  
 A. L. Dempwolff,  Zhengting Gan,  D. Hait,  P. R. Horn,  L. D. Jacobson,  
 I. Kaliman,  J. Kussmann,  A. W. Lange,  Ka Un Lao,  D. S. Levine,  Jie Liu,  
 S. C. McKenzie,  A. F. Morrison,  K. Nanda,  F. Plasser,  D. R. Rehn,  
 M. L. Vidal,  Zhi-Qiang You,  Ying Zhu,  B. Alam,  B. Albrecht,  
 A. Aldossary,  E. Alguire,  J. H. Andersen,  D. Barton,  K. Begam,  A. Behn,  
 Y. A. Bernard,  E. J. Berquist,  H. Burton,  A. Carreras,  K. Carter-Fenk,  
 Romit Chakraborty,  A. D. Chien,  K. D. Closser,  V. Cofer-Shabica,  
 S. Dasgupta,  Jia Deng,  M. de Wergifosse,  M. Diedenhofen,  Hainam Do,  
 S. Ehlert,  Po-Tung Fang,  S. Fatehi,  Qingguo Feng,  T. Friedhoff,  
 J. Gayvert,  Qinghui Ge,  G. Gidofalvi,  M. Goldey,  J. Gomes,  
 C. Gonzalez-Espinoza,  S. Gulania,  A. Gunina,  M. W. D. Hanson-Heine,  
 P. H. P. Harbach,  A. W. Hauser,  M. F. Herbst,  M. Hernandez Vera,  
 M. Hodecker,  Z. C. Holden,  S. Houck,  Xunkun Huang,  Kerwin Hui,  
 B. C. Huynh,  M. Ivanov,  Hyunjun Ji,  Hanjie Jiang,  B. Kaduk,  S. Kaehler,  
 K. Khistyaev,  Jaehoon Kim,  P. Klunzinger,  Z. Koczor-Benda,  
 Joong Hoon Koh,  D. Kosenkov,  L. Koulias,  T. Kowalczyk,  C. M. Krauter,  
 K. Kue,  A. Kunitsa,  T. Kus,  A. Landau,  K. V. Lawler,  D. Lefrancois,  
 S. Lehtola,  Rain Li,  Yi-Pei Li,  Jiashu Liang,  M. Liebenthal,  
 Hung-Hsuan Lin,  You-Sheng Lin,  Fenglai Liu,  Kuan-Yu Liu,  
 M. Loipersberger,  A. Luenser,  A. Manjanath,  P. Manohar,  E. Mansoor,  
 S. F. Manzer,  Shan-Ping Mao,  A. V. Marenich,  T. Markovich,  S. Mason,  
 S. A. Maurer,  P. F. McLaughlin,  M. F. S. J. Menger,  J.-M. Mewes,  
 S. A. Mewes,  P. Morgante,  J. W. Mullinax,  K. J. Oosterbaan,  G. Paran,  
 Alexander C. Paul,  Suranjan K. Paul,  F. Pavosevic,  Zheng Pei,  S. Prager,  
 E. I. Proynov,  E. Ramos,  B. Rana,  A. E. Rask,  A. Rettig,  R. M. Richard,  
 F. Rob,  E. Rossomme,  T. Scheele,  M. Scheurer,  M. Schneider,  
 N. Sergueev,  S. M. Sharada,  W. Skomorowski,  D. W. Small,  C. J. Stein,  
 Yu-Chuan Su,  E. J. Sundstrom,  Zhen Tao,  J. Thirman,  T. Tsuchimochi,  
 N. M. Tubman,  S. P. Veccham,  O. Vydrov,  J. Wenzel,  J. Witte,  A. Yamada,  
 Kun Yao,  S. Yeganeh,  S. R. Yost,  A. Zech,  Igor Ying Zhang,  Xing Zhang,  
 Yu Zhang,  D. Zuev,  A. Aspuru-Guzik,  A. T. Bell,  N. A. Besley,  
 K. B. Bravaya,  B. R. Brooks,  D. Casanova,  Jeng-Da Chai,  S. Coriani,  
 C. J. Cramer,  A. E. DePrince, III,  R. A. DiStasio Jr.,  A. Dreuw,  
 B. D. Dunietz,  T. R. Furlani,  W. A. Goddard III,  S. Grimme,  
 S. Hammes-Schiffer,  T. Head-Gordon,  W. J. Hehre,  Chao-Ping Hsu,  
 T.-C. Jagau,  Yousung Jung,  A. Klamt,  Jing Kong,  D. S. Lambrecht,  
 WanZhen Liang,  N. J. Mayhall,  C. W. McCurdy,  J. B. Neaton,  T. Neudecker,  
 C. Ochsenfeld,  J. A. Parkhill,  R. Peverati,  V. A. Rassolov,  Yihan Shao,  
 L. V. Slipchenko,  R. P. Steele,  J. E. Subotnik,  A. J. W. Thom,  
 A. Tkatchenko,  D. G. Truhlar,  T. Van Voorhis,  T. A. Wesolowski,  
 K. B. Whaley,  H. L. Woodcock III,  P. M. Zimmerman,  S. Faraji,  
 P. M. W. Gill,  M. Head-Gordon,  J. M. Herbert,  A. I. Krylov

 Additional authors since Version 5.4.0: 
 Chandrima Chakravarty,  L. Cunha,  R. Kang,  Yongbin Kim,  S. Kotaru,  
 Shaozhi Li,  Xiangyuan Li,  F. Matz,  A. Molle,  V. Parravicini,  
 Haisheng Ren,  Hengyuan Shen,  Yingli Su,  Hung-Yi Tsai,  C. Utku,  
 Fang Wang,  Jeff Yang,  F. Zeller

 Contributors to earlier versions of Q-Chem not listed above: 
 R. D. Adamson,  B. Austin,  R. Baer,  J. Baker,  G. J. O. Beran,  
 K. Brandhorst,  S. T. Brown,  E. F. C. Byrd,  Arup K. Chakraborty,  
 G. K. L. Chan,  Chun-Min Chang,  Yunqing Chen,  C.-L. Cheng,  
 Siu Hung Chien,  D. M. Chipman,  D. L. Crittenden,  H. Dachsel,  
 R. J. Doerksen,  A. D. Dutoi,  R. G. Edgar,  J. Fosso-Tande,  
 L. Fusti-Molnar,  D. Ghosh,  A. Ghysels,  A. Golubeva-Zadorozhnaya,  
 J. Gonthier,  M. S. Gordon,  S. R. Gwaltney,  G. Hawkins,  J. E. Herr,  
 A. Heyden,  S. Hirata,  E. G. Hohenstein,  G. Kedziora,  F. J. Keil,  
 C. Kelley,  Jihan Kim,  R. A. King,  R. Z. Khaliullin,  P. P. Korambath,  
 W. Kurlancheek,  A. Laurent,  A. M. Lee,  M. S. Lee,  S. V. Levchenko,  
 Ching Yeh Lin,  D. Liotard,  E. Livshits,  R. C. Lochan,  I. Lotan,  
 L. A. Martinez-Martinez,  P. E. Maslen,  N. Nair,  D. P. O'Neill,  
 D. Neuhauser,  E. Neuscamman,  C. M. Oana,  R. Olivares-Amaya,  R. Olson,  
 T. M. Perrine,  B. Peters,  P. A. Pieniazek,  A. Prociuk,  Y. M. Rhee,  
 J. Ritchie,  M. A. Rohrdanz,  E. Rosta,  N. J. Russ,  H. F. Schaefer III,  
 M. W. Schmidt,  N. E. Schultz,  S. Sharma,  N. Shenvi,  C. D. Sherrill,  
 A. C. Simmonett,  A. Sodt,  T. Stein,  D. Stuck,  K. S. Thanthiriwatte,  
 V. Vanovschi,  L. Vogt,  Tao Wang,  A. Warshel,  M. A. Watson,  
 C. F. Williams,  Q. Wu,  X. Xu,  Jun Yang,  W. Zhang,  Yan Zhao

   Please cite Q-Chem as follows:
  "Software for the frontiers of quantum chemistry:
   An overview of developments in the Q-Chem 5 package"
   J. Chem. Phys. 155, 084801 (2021)
   https://doi.org/10.1063/5.0055522 (open access)

 Q-Chem 5.4.2 for Intel X86 EM64T Linux

 Parts of Q-Chem use Armadillo 9.900.5 (Nocturnal Misbehaviour).
 http://arma.sourceforge.net/

 Q-Chem begins on Mon Dec  5 16:41:21 2022  

 Host: atlas-167
0

     Scratch files written to ./qchem22759//
 Processing $rem in /scratch/abel/SOFTWARE/qchem/config/preferences:
 Processing $rem in /dipc/acebg/.qchemrc:

 Checking the input file for inconsistencies... 	...done.

--------------------------------------------------------------
User input:
--------------------------------------------------------------
$comment
 RAS-SF CALCULATION
$end

$molecule
1 2    !charge and multiplicity
O1
H1 O1 oh
H2 O1 oh H1 hoh

oh = 0.997
hoh = 109.17
$end

$rem
!**CALCULATION TYPE***     
METHOD             HF
BASIS              STO-3G
UNRESTRICTED       FALSE
MOLDEN_FORMAT      TRUE
PRINT_ORBITALS     14
$end                                           

--------------------------------------------------------------
 ----------------------------------------------------------------
             Standard Nuclear Orientation (Angstroms)
    I     Atom           X                Y                Z
 ----------------------------------------------------------------
    1      O       0.0000000000     0.0000000000     0.1155512138
    2      H      -0.8125311840    -0.0000000000    -0.4622048550
    3      H       0.8125311840    -0.0000000000    -0.4622048550
 ----------------------------------------------------------------
 Molecular Point Group                 C2v   NOp =  4
 Largest Abelian Subgroup              C2v   NOp =  4
 Nuclear Repulsion Energy =           8.81794733 hartrees
 There are        5 alpha and        4 beta electrons
 Requested basis set is STO-3G
 There are 4 shells and 7 basis functions

 Total QAlloc Memory Limit   2000 MB
 Mega-Array Size       188 MB
 MEM_STATIC part       192 MB


                       Distance Matrix (Angstroms)
             O (  1)   H (  2)
   H (  2)  0.997000
   H (  3)  0.997000  1.625062
 
 A cutoff of  1.0D-09 yielded     10 shell pairs
 There are        34 function pairs
 Smallest overlap matrix eigenvalue = 3.69E-01

 Scale SEOQF with 1.000000e+00/1.000000e+00/1.000000e+00

 Standard Electronic Orientation quadrupole field applied
 Nucleus-field energy     =    -0.0000000001 hartrees
 Guess from superposition of atomic densities
 Warning:  Energy on first SCF cycle will be non-variational
 SAD guess density has 10.000000 electrons

 -----------------------------------------------------------------------
  General SCF calculation program by
  Eric Jon Sundstrom, Paul Horn, Yuezhi Mao, Dmitri Zuev, Alec White,
  David Stuck, Shaama M.S., Shane Yost, Joonho Lee, David Small,
  Daniel Levine, Susi Lehtola, Hugh Burton, Evgeny Epifanovsky,
  Bang C. Huynh
 -----------------------------------------------------------------------
 Hartree-Fock
 Orthonormalizing orbitals
 A restricted open-shell SCF calculation will be
 performed using GDM
 SCF converges when RMS gradient is below 1.0e-05
 ---------------------------------------
  Cycle       Energy        RMS Gradient
 ---------------------------------------
    1     -73.3635147193      7.08e-01   Descent step
    2     -73.6056312366      4.80e-01   Descent step
    3     -73.7368520924      2.15e-01   Normal BFGS step
Fro norm of D 1.079978425681e+00
transformation scaled by 2
    4     -73.7696809423      2.77e-01   Dog-leg BFGS step
    5     -74.1964929694      7.07e-01   Descent step
    6     -74.4164926355      4.43e-01   Descent step
    7     -74.5374703874      2.36e-01   Dog-leg BFGS step
    8     -74.5869005122      4.17e-02   Normal BFGS step
    9     -74.5890447905      4.57e-03   Normal BFGS step
   10     -74.5890695625      6.95e-04   Normal BFGS step
   11     -74.5890704876      8.08e-05   Normal BFGS step
   12     -74.5890704947      1.48e-05   Normal BFGS step
   13     -74.5890704950      2.79e-06  Convergence criterion met
The disked orbital energies are calculated using alpha and beta Focks
 ---------------------------------------
 SCF time:   CPU 0.04s  wall 0.00s 
<S^2> =          0.750000000
 SCF   energy in the final basis set =      -74.5890704950
 Total energy in the final basis set =      -74.5890704950
 
 --------------------------------------------------------------
             Orbital Energies (a.u.) and Symmetries
 --------------------------------------------------------------
 
 Alpha MOs, Restricted
 -- Doubly Occupied --           
-20.956  -1.823  -1.150  -0.972
  1 A1    2 A1    1 B1    1 B2                                                 
 -- Singly Occupied (Occupied) --
 -1.135
  3 A1                                                                         
 -- Virtual --                   
  0.075   0.181
  4 A1    2 B1                                                                 
 
 Beta MOs, Restricted
 -- Doubly Occupied --           
-20.928  -1.700  -1.107  -0.916
  1 A1    2 A1    1 B1    1 B2                                                 
 -- Singly Occupied (Vacant) --  
 -0.292
  3 A1                                                                         
 -- Virtual --                   
  0.124   0.233
  4 A1    2 B1                                                                 
 --------------------------------------------------------------
 

                        RESTRICTED (RHF) MOLECULAR ORBITAL COEFFICIENTS
                         1         2         3         4         5         6
 eigenvalues:        -20.956    -1.823    -1.150    -0.972    -1.135     0.075
   1  O     s        0.99446  -0.23666  -0.00000  -0.00000  -0.09093  -0.12847
   2  O     s        0.02469   0.87245   0.00000   0.00000   0.43489   0.84603
   3  O     px      -0.00000  -0.00000   0.71128   0.00000   0.00000  -0.00000
   4  O     py       0.00000  -0.00000  -0.00000   1.00000  -0.00000   0.00000
   5  O     pz      -0.00295  -0.17583  -0.00000   0.00000   0.86202  -0.60219
   6  H 1   s       -0.00521   0.12601  -0.34681  -0.00000  -0.18064  -0.81150
   7  H 2   s       -0.00521   0.12601   0.34681   0.00000  -0.18064  -0.81150
                         7
 eigenvalues:          0.181
   1  O     s       -0.00000
   2  O     s        0.00000
   3  O     px       0.90296
   4  O     py       0.00000
   5  O     pz      -0.00000
   6  H 1   s        0.84866
   7  H 2   s       -0.84866
 

======= MOLECULAR ORBITALS IN MOLDEN FORMAT =======
[Molden Format]
[Atoms] (Angs)
  O      1    8      0.00000000      0.00000000      0.11555121
  H      2    1     -0.81253118     -0.00000000     -0.46220486
  H      3    1      0.81253118     -0.00000000     -0.46220486
[GTO]
1    0
S    3    1.000000
   1.30709320E+02    1.54328970E-01 
   2.38088610E+01    5.35328140E-01 
   6.44360830E+00    4.44634540E-01 
SP   3    1.000000
   5.03315130E+00   -9.99672300E-02   1.55916270E-01 
   1.16959610E+00    3.99512830E-01   6.07683720E-01 
   3.80389000E-01    7.00115470E-01   3.91957390E-01 

2    0
S    3    1.000000
   3.42525091E+00    1.54328970E-01 
   6.23913730E-01    5.35328140E-01 
   1.68855400E-01    4.44634540E-01 

3    0
S    3    1.000000
   3.42525091E+00    1.54328970E-01 
   6.23913730E-01    5.35328140E-01 
   1.68855400E-01    4.44634540E-01 

[MO]
Sym=X
Ene= -20.956432
Spin=Alpha
Occup=1
     1    9.944618925612e-01
     2    2.468893048278e-02
     3   -7.442479573744e-17
     4    1.470185821123e-17
     5   -2.949462288384e-03
     6   -5.208339992403e-03
     7   -5.208339992404e-03
Sym=X
Ene= -1.822743
Spin=Alpha
Occup=1
     1   -2.366631935658e-01
     2    8.724546529337e-01
     3   -7.369188586076e-16
     4   -9.760566432980e-17
     5   -1.758291624107e-01
     6    1.260083613557e-01
     7    1.260083613557e-01
Sym=X
Ene= -1.149860
Spin=Alpha
Occup=1
     1   -4.581305271354e-16
     2    8.022287834177e-16
     3    7.112790873903e-01
     4   -1.617133696891e-15
     5   -1.113732824020e-15
     6   -3.468099836962e-01
     7    3.468099836962e-01
Sym=X
Ene= -0.972443
Spin=Alpha
Occup=1
     1   -3.151401836754e-16
     2    2.114010493190e-16
     3    1.376463973578e-15
     4    1.000000000000e+00
     5    2.673363473911e-16
     6   -6.362548455675e-16
     7    5.880232986741e-16
Sym=X
Ene= -1.135399
Spin=Alpha
Occup=1
     1   -9.092575716408e-02
     2    4.348879213173e-01
     3    1.314987557976e-15
     4   -6.264739067482e-16
     5    8.620186069531e-01
     6   -1.806387623672e-01
     7   -1.806387623672e-01
Sym=X
Ene= 0.074887
Spin=Alpha
Occup=0
     1   -1.284701297175e-01
     2    8.460324317137e-01
     3   -1.064628263579e-14
     4    1.356134727971e-17
     5   -6.021926572880e-01
     6   -8.114957317825e-01
     7   -8.114957317825e-01
Sym=X
Ene= 0.181110
Spin=Alpha
Occup=0
     1   -1.509417677837e-15
     2    9.771162143212e-15
     3    9.029554490815e-01
     4    1.368858189379e-18
     5   -6.481823377754e-15
     6    8.486585090335e-01
     7   -8.486585090335e-01

======= END OF MOLDEN-FORMAT MOLECULAR ORBITALS =======

          Ground-State Mulliken Net Atomic Charges

     Atom                 Charge (a.u.)
  ----------------------------------------
      1 O                     0.048961
      2 H                     0.475519
      3 H                     0.475519
  ----------------------------------------
  Sum of atomic charges =     1.000000

 -----------------------------------------------------------------
                    Cartesian Multipole Moments
 -----------------------------------------------------------------
    Charge (ESU x 10^10)
                 4.8032
    Dipole Moment (Debye)
         X      -0.0000      Y      -0.0000      Z      -1.8993
       Tot       1.8993
    Quadrupole Moments (Debye-Ang)
        XX      -1.7097     XY      -0.0000     YY      -5.4316
        XZ      -0.0000     YZ       0.0000     ZZ      -3.2320
    Octopole Moments (Debye-Ang^2)
       XXX      -0.0000    XXY      -0.0000    XYY      -0.0000
       YYY      -0.0000    XXZ      -1.7814    XYZ      -0.0000
       YYZ      -0.1378    XZZ      -0.0000    YZZ      -0.0000
       ZZZ      -0.7126
    Hexadecapole Moments (Debye-Ang^3)
      XXXX      -3.1459   XXXY      -0.0000   XXYY      -1.4108
      XYYY      -0.0000   YYYY      -2.8013   XXXZ       0.0000
      XXYZ       0.0000   XYYZ       0.0000   YYYZ      -0.0000
      XXZZ      -0.6180   XYZZ      -0.0000   YYZZ      -1.0158
      XZZZ       0.0000   YZZZ      -0.0000   ZZZZ      -2.9171
 -----------------------------------------------------------------
 Total job time:  0.96s(wall), 0.08s(cpu) 
 Mon Dec  5 16:41:22 2022

======= MOLDEN-FORMATTED INPUT FILE FOLLOWS =======
[Molden Format]
[Atoms] (Angs)
  O      1    8      0.00000000      0.00000000      0.11555121
  H      2    1     -0.81253118     -0.00000000     -0.46220486
  H      3    1      0.81253118     -0.00000000     -0.46220486
[GTO]
1    0
S    3    1.000000
   1.30709320E+02    1.54328970E-01 
   2.38088610E+01    5.35328140E-01 
   6.44360830E+00    4.44634540E-01 
SP   3    1.000000
   5.03315130E+00   -9.99672300E-02   1.55916270E-01 
   1.16959610E+00    3.99512830E-01   6.07683720E-01 
   3.80389000E-01    7.00115470E-01   3.91957390E-01 

2    0
S    3    1.000000
   3.42525091E+00    1.54328970E-01 
   6.23913730E-01    5.35328140E-01 
   1.68855400E-01    4.44634540E-01 

3    0
S    3    1.000000
   3.42525091E+00    1.54328970E-01 
   6.23913730E-01    5.35328140E-01 
   1.68855400E-01    4.44634540E-01 

[MO]
Sym=X
Ene= -20.956432
Spin=Alpha
Occup=1
     1    9.944618925612e-01
     2    2.468893048278e-02
     3   -7.442479573744e-17
     4    1.470185821123e-17
     5   -2.949462288384e-03
     6   -5.208339992403e-03
     7   -5.208339992404e-03
Sym=X
Ene= -1.822743
Spin=Alpha
Occup=1
     1   -2.366631935658e-01
     2    8.724546529337e-01
     3   -7.369188586076e-16
     4   -9.760566432980e-17
     5   -1.758291624107e-01
     6    1.260083613557e-01
     7    1.260083613557e-01
Sym=X
Ene= -1.149860
Spin=Alpha
Occup=1
     1   -4.581305271354e-16
     2    8.022287834177e-16
     3    7.112790873903e-01
     4   -1.617133696891e-15
     5   -1.113732824020e-15
     6   -3.468099836962e-01
     7    3.468099836962e-01
Sym=X
Ene= -0.972443
Spin=Alpha
Occup=1
     1   -3.151401836754e-16
     2    2.114010493190e-16
     3    1.376463973578e-15
     4    1.000000000000e+00
     5    2.673363473911e-16
     6   -6.362548455675e-16
     7    5.880232986741e-16
Sym=X
Ene= -1.135399
Spin=Alpha
Occup=1
     1   -9.092575716408e-02
     2    4.348879213173e-01
     3    1.314987557976e-15
     4   -6.264739067482e-16
     5    8.620186069531e-01
     6   -1.806387623672e-01
     7   -1.806387623672e-01
Sym=X
Ene= 0.074887
Spin=Alpha
Occup=0
     1   -1.284701297175e-01
     2    8.460324317137e-01
     3   -1.064628263579e-14
     4    1.356134727971e-17
     5   -6.021926572880e-01
     6   -8.114957317825e-01
     7   -8.114957317825e-01
Sym=X
Ene= 0.181110
Spin=Alpha
Occup=0
     1   -1.509417677837e-15
     2    9.771162143212e-15
     3    9.029554490815e-01
     4    1.368858189379e-18
     5   -6.481823377754e-15
     6    8.486585090335e-01
     7   -8.486585090335e-01

======= END OF MOLDEN-FORMATTED INPUT FILE =======


        *************************************************************
        *                                                           *
        *  Thank you very much for using Q-Chem.  Have a nice day.  *
        *                                                           *
        *************************************************************


 
User input: 2 of 3 
 
                  Welcome to Q-Chem
     A Quantum Leap Into The Future Of Chemistry


 Q-Chem 5.4 (devel), Q-Chem, Inc., Pleasanton, CA (2021)

 E. Epifanovsky,  A. T. B. Gilbert,  Xintian Feng,  Joonho Lee,  Yuezhi Mao,  
 N. Mardirossian,  P. Pokhilko,  A. White,  M. Wormit,  M. P. Coons,  
 A. L. Dempwolff,  Zhengting Gan,  D. Hait,  P. R. Horn,  L. D. Jacobson,  
 I. Kaliman,  J. Kussmann,  A. W. Lange,  Ka Un Lao,  D. S. Levine,  Jie Liu,  
 S. C. McKenzie,  A. F. Morrison,  K. Nanda,  F. Plasser,  D. R. Rehn,  
 M. L. Vidal,  Zhi-Qiang You,  Ying Zhu,  B. Alam,  B. Albrecht,  
 A. Aldossary,  E. Alguire,  J. H. Andersen,  D. Barton,  K. Begam,  A. Behn,  
 Y. A. Bernard,  E. J. Berquist,  H. Burton,  A. Carreras,  K. Carter-Fenk,  
 Romit Chakraborty,  A. D. Chien,  K. D. Closser,  V. Cofer-Shabica,  
 S. Dasgupta,  Jia Deng,  M. de Wergifosse,  M. Diedenhofen,  Hainam Do,  
 S. Ehlert,  Po-Tung Fang,  S. Fatehi,  Qingguo Feng,  T. Friedhoff,  
 J. Gayvert,  Qinghui Ge,  G. Gidofalvi,  M. Goldey,  J. Gomes,  
 C. Gonzalez-Espinoza,  S. Gulania,  A. Gunina,  M. W. D. Hanson-Heine,  
 P. H. P. Harbach,  A. W. Hauser,  M. F. Herbst,  M. Hernandez Vera,  
 M. Hodecker,  Z. C. Holden,  S. Houck,  Xunkun Huang,  Kerwin Hui,  
 B. C. Huynh,  M. Ivanov,  Hyunjun Ji,  Hanjie Jiang,  B. Kaduk,  S. Kaehler,  
 K. Khistyaev,  Jaehoon Kim,  P. Klunzinger,  Z. Koczor-Benda,  
 Joong Hoon Koh,  D. Kosenkov,  L. Koulias,  T. Kowalczyk,  C. M. Krauter,  
 K. Kue,  A. Kunitsa,  T. Kus,  A. Landau,  K. V. Lawler,  D. Lefrancois,  
 S. Lehtola,  Rain Li,  Yi-Pei Li,  Jiashu Liang,  M. Liebenthal,  
 Hung-Hsuan Lin,  You-Sheng Lin,  Fenglai Liu,  Kuan-Yu Liu,  
 M. Loipersberger,  A. Luenser,  A. Manjanath,  P. Manohar,  E. Mansoor,  
 S. F. Manzer,  Shan-Ping Mao,  A. V. Marenich,  T. Markovich,  S. Mason,  
 S. A. Maurer,  P. F. McLaughlin,  M. F. S. J. Menger,  J.-M. Mewes,  
 S. A. Mewes,  P. Morgante,  J. W. Mullinax,  K. J. Oosterbaan,  G. Paran,  
 Alexander C. Paul,  Suranjan K. Paul,  F. Pavosevic,  Zheng Pei,  S. Prager,  
 E. I. Proynov,  E. Ramos,  B. Rana,  A. E. Rask,  A. Rettig,  R. M. Richard,  
 F. Rob,  E. Rossomme,  T. Scheele,  M. Scheurer,  M. Schneider,  
 N. Sergueev,  S. M. Sharada,  W. Skomorowski,  D. W. Small,  C. J. Stein,  
 Yu-Chuan Su,  E. J. Sundstrom,  Zhen Tao,  J. Thirman,  T. Tsuchimochi,  
 N. M. Tubman,  S. P. Veccham,  O. Vydrov,  J. Wenzel,  J. Witte,  A. Yamada,  
 Kun Yao,  S. Yeganeh,  S. R. Yost,  A. Zech,  Igor Ying Zhang,  Xing Zhang,  
 Yu Zhang,  D. Zuev,  A. Aspuru-Guzik,  A. T. Bell,  N. A. Besley,  
 K. B. Bravaya,  B. R. Brooks,  D. Casanova,  Jeng-Da Chai,  S. Coriani,  
 C. J. Cramer,  A. E. DePrince, III,  R. A. DiStasio Jr.,  A. Dreuw,  
 B. D. Dunietz,  T. R. Furlani,  W. A. Goddard III,  S. Grimme,  
 S. Hammes-Schiffer,  T. Head-Gordon,  W. J. Hehre,  Chao-Ping Hsu,  
 T.-C. Jagau,  Yousung Jung,  A. Klamt,  Jing Kong,  D. S. Lambrecht,  
 WanZhen Liang,  N. J. Mayhall,  C. W. McCurdy,  J. B. Neaton,  T. Neudecker,  
 C. Ochsenfeld,  J. A. Parkhill,  R. Peverati,  V. A. Rassolov,  Yihan Shao,  
 L. V. Slipchenko,  R. P. Steele,  J. E. Subotnik,  A. J. W. Thom,  
 A. Tkatchenko,  D. G. Truhlar,  T. Van Voorhis,  T. A. Wesolowski,  
 K. B. Whaley,  H. L. Woodcock III,  P. M. Zimmerman,  S. Faraji,  
 P. M. W. Gill,  M. Head-Gordon,  J. M. Herbert,  A. I. Krylov

 Additional authors since Version 5.4.0: 
 Chandrima Chakravarty,  L. Cunha,  R. Kang,  Yongbin Kim,  S. Kotaru,  
 Shaozhi Li,  Xiangyuan Li,  F. Matz,  A. Molle,  V. Parravicini,  
 Haisheng Ren,  Hengyuan Shen,  Yingli Su,  Hung-Yi Tsai,  C. Utku,  
 Fang Wang,  Jeff Yang,  F. Zeller

 Contributors to earlier versions of Q-Chem not listed above: 
 R. D. Adamson,  B. Austin,  R. Baer,  J. Baker,  G. J. O. Beran,  
 K. Brandhorst,  S. T. Brown,  E. F. C. Byrd,  Arup K. Chakraborty,  
 G. K. L. Chan,  Chun-Min Chang,  Yunqing Chen,  C.-L. Cheng,  
 Siu Hung Chien,  D. M. Chipman,  D. L. Crittenden,  H. Dachsel,  
 R. J. Doerksen,  A. D. Dutoi,  R. G. Edgar,  J. Fosso-Tande,  
 L. Fusti-Molnar,  D. Ghosh,  A. Ghysels,  A. Golubeva-Zadorozhnaya,  
 J. Gonthier,  M. S. Gordon,  S. R. Gwaltney,  G. Hawkins,  J. E. Herr,  
 A. Heyden,  S. Hirata,  E. G. Hohenstein,  G. Kedziora,  F. J. Keil,  
 C. Kelley,  Jihan Kim,  R. A. King,  R. Z. Khaliullin,  P. P. Korambath,  
 W. Kurlancheek,  A. Laurent,  A. M. Lee,  M. S. Lee,  S. V. Levchenko,  
 Ching Yeh Lin,  D. Liotard,  E. Livshits,  R. C. Lochan,  I. Lotan,  
 L. A. Martinez-Martinez,  P. E. Maslen,  N. Nair,  D. P. O'Neill,  
 D. Neuhauser,  E. Neuscamman,  C. M. Oana,  R. Olivares-Amaya,  R. Olson,  
 T. M. Perrine,  B. Peters,  P. A. Pieniazek,  A. Prociuk,  Y. M. Rhee,  
 J. Ritchie,  M. A. Rohrdanz,  E. Rosta,  N. J. Russ,  H. F. Schaefer III,  
 M. W. Schmidt,  N. E. Schultz,  S. Sharma,  N. Shenvi,  C. D. Sherrill,  
 A. C. Simmonett,  A. Sodt,  T. Stein,  D. Stuck,  K. S. Thanthiriwatte,  
 V. Vanovschi,  L. Vogt,  Tao Wang,  A. Warshel,  M. A. Watson,  
 C. F. Williams,  Q. Wu,  X. Xu,  Jun Yang,  W. Zhang,  Yan Zhao

   Please cite Q-Chem as follows:
  "Software for the frontiers of quantum chemistry:
   An overview of developments in the Q-Chem 5 package"
   J. Chem. Phys. 155, 084801 (2021)
   https://doi.org/10.1063/5.0055522 (open access)

 Q-Chem 5.4.2 for Intel X86 EM64T Linux

 Parts of Q-Chem use Armadillo 9.900.5 (Nocturnal Misbehaviour).
 http://arma.sourceforge.net/

 Q-Chem begins on Mon Dec  5 16:41:23 2022  

 Host: atlas-167
0

     Scratch files written to ./qchem22759//
 Processing $rem in /scratch/abel/SOFTWARE/qchem/config/preferences:
 Processing $rem in /dipc/acebg/.qchemrc:
The previous job contains 0 fragments, simply inherited here

 Checking the input file for inconsistencies... 	...done.

--------------------------------------------------------------
User input:
--------------------------------------------------------------

$molecule
 READ 
$end

$rem
!**CALCULATION TYPE***
METHOD             HF
BASIS              STO-3G
UNRESTRICTED       FALSE
MOM_START          1
SCF_GUESS          read
MOLDEN_FORMAT      TRUE
PRINT_ORBITALS     20
$end

$occupied
 1:4 7
 1:4
$end

--------------------------------------------------------------
 ----------------------------------------------------------------
             Standard Nuclear Orientation (Angstroms)
    I     Atom           X                Y                Z
 ----------------------------------------------------------------
    1      O       0.0000000000     0.0000000000     0.1155512138
    2      H      -0.8125311840    -0.0000000000    -0.4622048550
    3      H       0.8125311840    -0.0000000000    -0.4622048550
 ----------------------------------------------------------------
 Molecular Point Group                 C2v   NOp =  4
 Largest Abelian Subgroup              C2v   NOp =  4
 Nuclear Repulsion Energy =           8.81794733 hartrees
 There are        5 alpha and        4 beta electrons
 Requested basis set is STO-3G
 There are 4 shells and 7 basis functions

 Total QAlloc Memory Limit   2000 MB
 Mega-Array Size       188 MB
 MEM_STATIC part       192 MB


                       Distance Matrix (Angstroms)
             O (  1)   H (  2)
   H (  2)  0.997000
   H (  3)  0.997000  1.625062
 
 A cutoff of  1.0D-08 yielded     10 shell pairs
 There are        34 function pairs
 Smallest overlap matrix eigenvalue = 3.69E-01

 Scale SEOQF with 1.000000e+00/1.000000e+00/1.000000e+00

 Standard Electronic Orientation quadrupole field applied
 Nucleus-field energy     =    -0.0000000001 hartrees
 Guess MOs from SCF MO coefficient file
 Reading MOs from coefficient file
 User-specified occupied guess orbitals will be used
   Alpha:
   1   2   3   4   7
 Reading MOs from coefficient file
   Beta:
   1   2   3   4

 -----------------------------------------------------------------------
  General SCF calculation program by
  Eric Jon Sundstrom, Paul Horn, Yuezhi Mao, Dmitri Zuev, Alec White,
  David Stuck, Shaama M.S., Shane Yost, Joonho Lee, David Small,
  Daniel Levine, Susi Lehtola, Hugh Burton, Evgeny Epifanovsky,
  Bang C. Huynh
 -----------------------------------------------------------------------
 Hartree-Fock
 Orthonormalizing orbitals
 A restricted open-shell SCF calculation will be
 performed using DIIS
 SCF converges when DIIS error is below 1.0e-05
 ---------------------------------------
  Cycle       Energy         DIIS error
 ---------------------------------------
Maximum Overlap Method Active
 MOM overlap:    4.0 / 4
 MOM overlap:    1.0 / 1
    1     -73.7926335435      1.08e-01  
Maximum Overlap Method Active
 MOM overlap:    4.00 / 4
 MOM overlap:    1.00 / 1
    2     -73.8187345807      6.82e-02  
Maximum Overlap Method Active
 MOM overlap:    4.00 / 4
 MOM overlap:    1.00 / 1
    3     -73.8292615884      1.06e-02  
Maximum Overlap Method Active
 MOM overlap:    4.00 / 4
 MOM overlap:    1.00 / 1
    4     -73.8293217642      2.92e-03  
Maximum Overlap Method Active
 MOM overlap:    4.00 / 4
 MOM overlap:    1.00 / 1
    5     -73.8293366976      3.07e-04  
Maximum Overlap Method Active
 MOM overlap:    4.00 / 4
 MOM overlap:    1.00 / 1
    6     -73.8293368580      4.17e-05  
    7     -73.8293368621      9.62e-06  Convergence criterion met
Maximum Overlap Method Active
 MOM overlap:    4.00 / 4
 MOM overlap:    1.00 / 1
The disked orbital energies are calculated using alpha and beta Focks
 ---------------------------------------
 SCF time:   CPU 0.03s  wall 0.00s 
<S^2> =          0.750000000
 SCF   energy in the final basis set =      -73.8293368621
 Total energy in the final basis set =      -73.8293368621
 
 --------------------------------------------------------------
             Orbital Energies (a.u.) and Symmetries
 --------------------------------------------------------------
 
 Alpha MOs, Restricted
 -- Doubly Occupied --           
-21.086  -1.843  -1.280  -1.053
  1 A1    2 A1    1 B1    1 B2                                                 
 -- Singly Occupied (Occupied) --
 -0.312
  2 B1                                                                         
 -- Virtual --                   
 -0.558   0.009
  3 A1    4 A1                                                                 
 
 Beta MOs, Restricted
 -- Doubly Occupied --           
-21.071  -1.798  -1.149  -1.038
  1 A1    2 A1    1 B1    1 B2                                                 
 -- Singly Occupied (Vacant) --  
  0.248
  2 B1                                                                         
 -- Virtual --                   
 -0.489   0.156
  3 A1    4 A1                                                                 
 --------------------------------------------------------------
 

                        RESTRICTED (RHF) MOLECULAR ORBITAL COEFFICIENTS
                         1         2         3         4         5         6
 eigenvalues:        -21.086    -1.843    -1.280    -1.053    -0.312    -0.558
   1  O     s        0.99447   0.24862  -0.00000  -0.00000  -0.00000  -0.08198
   2  O     s        0.02466  -0.93930  -0.00000   0.00000   0.00000   0.44784
   3  O     px      -0.00000   0.00000   0.79369  -0.00000  -0.83145   0.00000
   4  O     py       0.00000   0.00000   0.00000   1.00000   0.00000   0.00000
   5  O     pz      -0.00217   0.10312   0.00000  -0.00000  -0.00000   0.78698
   6  H 1   s       -0.00525  -0.08092  -0.26478   0.00000  -0.87772  -0.30085
   7  H 2   s       -0.00525  -0.08092   0.26478  -0.00000   0.87772  -0.30085
                         7
 eigenvalues:          0.009
   1  O     s        0.11056
   2  O     s       -0.76369
   3  O     px      -0.00000
   4  O     py       0.00000
   5  O     pz       0.71180
   6  H 1   s        0.78101
   7  H 2   s        0.78101
 

======= MOLECULAR ORBITALS IN MOLDEN FORMAT =======
[Molden Format]
[Atoms] (Angs)
  O      1    8      0.00000000      0.00000000      0.11555121
  H      2    1     -0.81253118     -0.00000000     -0.46220486
  H      3    1      0.81253118     -0.00000000     -0.46220486
[GTO]
1    0
S    3    1.000000
   1.30709320E+02    1.54328970E-01 
   2.38088610E+01    5.35328140E-01 
   6.44360830E+00    4.44634540E-01 
SP   3    1.000000
   5.03315130E+00   -9.99672300E-02   1.55916270E-01 
   1.16959610E+00    3.99512830E-01   6.07683720E-01 
   3.80389000E-01    7.00115470E-01   3.91957390E-01 

2    0
S    3    1.000000
   3.42525091E+00    1.54328970E-01 
   6.23913730E-01    5.35328140E-01 
   1.68855400E-01    4.44634540E-01 

3    0
S    3    1.000000
   3.42525091E+00    1.54328970E-01 
   6.23913730E-01    5.35328140E-01 
   1.68855400E-01    4.44634540E-01 

[MO]
Sym=X
Ene= -21.085666
Spin=Alpha
Occup=1
     1    9.944730339763e-01
     2    2.466268279513e-02
     3   -1.540413144716e-17
     4    5.587925665071e-18
     5   -2.166331407994e-03
     6   -5.247440395869e-03
     7   -5.247440395869e-03
Sym=X
Ene= -1.842637
Spin=Alpha
Occup=1
     1    2.486246419415e-01
     2   -9.393025688669e-01
     3    2.641520003281e-15
     4    3.138898077804e-16
     5    1.031186524410e-01
     6   -8.092363852572e-02
     7   -8.092363852572e-02
Sym=X
Ene= -1.280052
Spin=Alpha
Occup=1
     1   -4.059747888688e-16
     2   -1.120654874989e-15
     3    7.936867676185e-01
     4    1.704643798111e-15
     5    5.484462884319e-15
     6   -2.647837739326e-01
     7    2.647837739326e-01
Sym=X
Ene= -1.052706
Spin=Alpha
Occup=1
     1   -8.559478092560e-17
     2    3.536747173528e-16
     3   -1.346635319359e-15
     4    1.000000000000e+00
     5   -5.311518901059e-17
     6    4.967089074563e-16
     7   -4.668611742008e-16
Sym=X
Ene= -0.311847
Spin=Alpha
Occup=1
     1   -6.091700879794e-14
     2    4.203882455190e-13
     3   -8.314492155821e-01
     4    1.156128357748e-16
     5   -3.773788734625e-13
     6   -8.777174846209e-01
     7    8.777174846200e-01
Sym=X
Ene= -0.557548
Spin=Alpha
Occup=0
     1   -8.198210700650e-02
     2    4.478374445366e-01
     3    8.163983000594e-15
     4    7.387493893888e-17
     5    7.869828670777e-01
     6   -3.008507978628e-01
     7   -3.008507978628e-01
Sym=X
Ene= 0.009280
Spin=Alpha
Occup=0
     1    1.105626371539e-01
     2   -7.636943785220e-01
     3   -4.545391840693e-13
     4    8.223569512433e-17
     5    7.117980657125e-01
     6    7.810080317307e-01
     7    7.810080317317e-01

======= END OF MOLDEN-FORMAT MOLECULAR ORBITALS =======

          Ground-State Mulliken Net Atomic Charges

     Atom                 Charge (a.u.)
  ----------------------------------------
      1 O                     0.410723
      2 H                     0.294638
      3 H                     0.294638
  ----------------------------------------
  Sum of atomic charges =     1.000000

 -----------------------------------------------------------------
                    Cartesian Multipole Moments
 -----------------------------------------------------------------
    Charge (ESU x 10^10)
                 4.8032
    Dipole Moment (Debye)
         X       0.0000      Y      -0.0000      Z      -0.3909
       Tot       0.3909
    Quadrupole Moments (Debye-Ang)
        XX      -4.1864     XY       0.0000     YY      -5.5054
        XZ      -0.0000     YZ       0.0000     ZZ      -3.1936
    Octopole Moments (Debye-Ang^2)
       XXX       0.0000    XXY      -0.0000    XYY       0.0000
       YYY      -0.0000    XXZ      -0.3143    XYZ      -0.0000
       YYZ       0.0895    XZZ       0.0000    YZZ      -0.0000
       ZZZ       0.5860
    Hexadecapole Moments (Debye-Ang^3)
      XXXX      -8.0708   XXXY      -0.0000   XXYY      -1.9292
      XYYY      -0.0000   YYYY      -2.9651   XXXZ      -0.0000
      XXYZ      -0.0000   XYYZ      -0.0000   YYYZ      -0.0000
      XXZZ      -1.8636   XYZZ      -0.0000   YYZZ      -1.0938
      XZZZ      -0.0000   YZZZ      -0.0000   ZZZZ      -3.3482
 -----------------------------------------------------------------
 Total job time:  0.69s(wall), 0.08s(cpu) 
 Mon Dec  5 16:41:23 2022

======= MOLDEN-FORMATTED INPUT FILE FOLLOWS =======
[Molden Format]
[Atoms] (Angs)
  O      1    8      0.00000000      0.00000000      0.11555121
  H      2    1     -0.81253118     -0.00000000     -0.46220486
  H      3    1      0.81253118     -0.00000000     -0.46220486
[GTO]
1    0
S    3    1.000000
   1.30709320E+02    1.54328970E-01 
   2.38088610E+01    5.35328140E-01 
   6.44360830E+00    4.44634540E-01 
SP   3    1.000000
   5.03315130E+00   -9.99672300E-02   1.55916270E-01 
   1.16959610E+00    3.99512830E-01   6.07683720E-01 
   3.80389000E-01    7.00115470E-01   3.91957390E-01 

2    0
S    3    1.000000
   3.42525091E+00    1.54328970E-01 
   6.23913730E-01    5.35328140E-01 
   1.68855400E-01    4.44634540E-01 

3    0
S    3    1.000000
   3.42525091E+00    1.54328970E-01 
   6.23913730E-01    5.35328140E-01 
   1.68855400E-01    4.44634540E-01 

[MO]
Sym=X
Ene= -21.085666
Spin=Alpha
Occup=1
     1    9.944730339763e-01
     2    2.466268279513e-02
     3   -1.540413144716e-17
     4    5.587925665071e-18
     5   -2.166331407994e-03
     6   -5.247440395869e-03
     7   -5.247440395869e-03
Sym=X
Ene= -1.842637
Spin=Alpha
Occup=1
     1    2.486246419415e-01
     2   -9.393025688669e-01
     3    2.641520003281e-15
     4    3.138898077804e-16
     5    1.031186524410e-01
     6   -8.092363852572e-02
     7   -8.092363852572e-02
Sym=X
Ene= -1.280052
Spin=Alpha
Occup=1
     1   -4.059747888688e-16
     2   -1.120654874989e-15
     3    7.936867676185e-01
     4    1.704643798111e-15
     5    5.484462884319e-15
     6   -2.647837739326e-01
     7    2.647837739326e-01
Sym=X
Ene= -1.052706
Spin=Alpha
Occup=1
     1   -8.559478092560e-17
     2    3.536747173528e-16
     3   -1.346635319359e-15
     4    1.000000000000e+00
     5   -5.311518901059e-17
     6    4.967089074563e-16
     7   -4.668611742008e-16
Sym=X
Ene= -0.311847
Spin=Alpha
Occup=1
     1   -6.091700879794e-14
     2    4.203882455190e-13
     3   -8.314492155821e-01
     4    1.156128357748e-16
     5   -3.773788734625e-13
     6   -8.777174846209e-01
     7    8.777174846200e-01
Sym=X
Ene= -0.557548
Spin=Alpha
Occup=0
     1   -8.198210700650e-02
     2    4.478374445366e-01
     3    8.163983000594e-15
     4    7.387493893888e-17
     5    7.869828670777e-01
     6   -3.008507978628e-01
     7   -3.008507978628e-01
Sym=X
Ene= 0.009280
Spin=Alpha
Occup=0
     1    1.105626371539e-01
     2   -7.636943785220e-01
     3   -4.545391840693e-13
     4    8.223569512433e-17
     5    7.117980657125e-01
     6    7.810080317307e-01
     7    7.810080317317e-01

======= END OF MOLDEN-FORMATTED INPUT FILE =======


        *************************************************************
        *                                                           *
        *  Thank you very much for using Q-Chem.  Have a nice day.  *
        *                                                           *
        *************************************************************


 
User input: 3 of 3 
 
                  Welcome to Q-Chem
     A Quantum Leap Into The Future Of Chemistry


 Q-Chem 5.4 (devel), Q-Chem, Inc., Pleasanton, CA (2021)

 E. Epifanovsky,  A. T. B. Gilbert,  Xintian Feng,  Joonho Lee,  Yuezhi Mao,  
 N. Mardirossian,  P. Pokhilko,  A. White,  M. Wormit,  M. P. Coons,  
 A. L. Dempwolff,  Zhengting Gan,  D. Hait,  P. R. Horn,  L. D. Jacobson,  
 I. Kaliman,  J. Kussmann,  A. W. Lange,  Ka Un Lao,  D. S. Levine,  Jie Liu,  
 S. C. McKenzie,  A. F. Morrison,  K. Nanda,  F. Plasser,  D. R. Rehn,  
 M. L. Vidal,  Zhi-Qiang You,  Ying Zhu,  B. Alam,  B. Albrecht,  
 A. Aldossary,  E. Alguire,  J. H. Andersen,  D. Barton,  K. Begam,  A. Behn,  
 Y. A. Bernard,  E. J. Berquist,  H. Burton,  A. Carreras,  K. Carter-Fenk,  
 Romit Chakraborty,  A. D. Chien,  K. D. Closser,  V. Cofer-Shabica,  
 S. Dasgupta,  Jia Deng,  M. de Wergifosse,  M. Diedenhofen,  Hainam Do,  
 S. Ehlert,  Po-Tung Fang,  S. Fatehi,  Qingguo Feng,  T. Friedhoff,  
 J. Gayvert,  Qinghui Ge,  G. Gidofalvi,  M. Goldey,  J. Gomes,  
 C. Gonzalez-Espinoza,  S. Gulania,  A. Gunina,  M. W. D. Hanson-Heine,  
 P. H. P. Harbach,  A. W. Hauser,  M. F. Herbst,  M. Hernandez Vera,  
 M. Hodecker,  Z. C. Holden,  S. Houck,  Xunkun Huang,  Kerwin Hui,  
 B. C. Huynh,  M. Ivanov,  Hyunjun Ji,  Hanjie Jiang,  B. Kaduk,  S. Kaehler,  
 K. Khistyaev,  Jaehoon Kim,  P. Klunzinger,  Z. Koczor-Benda,  
 Joong Hoon Koh,  D. Kosenkov,  L. Koulias,  T. Kowalczyk,  C. M. Krauter,  
 K. Kue,  A. Kunitsa,  T. Kus,  A. Landau,  K. V. Lawler,  D. Lefrancois,  
 S. Lehtola,  Rain Li,  Yi-Pei Li,  Jiashu Liang,  M. Liebenthal,  
 Hung-Hsuan Lin,  You-Sheng Lin,  Fenglai Liu,  Kuan-Yu Liu,  
 M. Loipersberger,  A. Luenser,  A. Manjanath,  P. Manohar,  E. Mansoor,  
 S. F. Manzer,  Shan-Ping Mao,  A. V. Marenich,  T. Markovich,  S. Mason,  
 S. A. Maurer,  P. F. McLaughlin,  M. F. S. J. Menger,  J.-M. Mewes,  
 S. A. Mewes,  P. Morgante,  J. W. Mullinax,  K. J. Oosterbaan,  G. Paran,  
 Alexander C. Paul,  Suranjan K. Paul,  F. Pavosevic,  Zheng Pei,  S. Prager,  
 E. I. Proynov,  E. Ramos,  B. Rana,  A. E. Rask,  A. Rettig,  R. M. Richard,  
 F. Rob,  E. Rossomme,  T. Scheele,  M. Scheurer,  M. Schneider,  
 N. Sergueev,  S. M. Sharada,  W. Skomorowski,  D. W. Small,  C. J. Stein,  
 Yu-Chuan Su,  E. J. Sundstrom,  Zhen Tao,  J. Thirman,  T. Tsuchimochi,  
 N. M. Tubman,  S. P. Veccham,  O. Vydrov,  J. Wenzel,  J. Witte,  A. Yamada,  
 Kun Yao,  S. Yeganeh,  S. R. Yost,  A. Zech,  Igor Ying Zhang,  Xing Zhang,  
 Yu Zhang,  D. Zuev,  A. Aspuru-Guzik,  A. T. Bell,  N. A. Besley,  
 K. B. Bravaya,  B. R. Brooks,  D. Casanova,  Jeng-Da Chai,  S. Coriani,  
 C. J. Cramer,  A. E. DePrince, III,  R. A. DiStasio Jr.,  A. Dreuw,  
 B. D. Dunietz,  T. R. Furlani,  W. A. Goddard III,  S. Grimme,  
 S. Hammes-Schiffer,  T. Head-Gordon,  W. J. Hehre,  Chao-Ping Hsu,  
 T.-C. Jagau,  Yousung Jung,  A. Klamt,  Jing Kong,  D. S. Lambrecht,  
 WanZhen Liang,  N. J. Mayhall,  C. W. McCurdy,  J. B. Neaton,  T. Neudecker,  
 C. Ochsenfeld,  J. A. Parkhill,  R. Peverati,  V. A. Rassolov,  Yihan Shao,  
 L. V. Slipchenko,  R. P. Steele,  J. E. Subotnik,  A. J. W. Thom,  
 A. Tkatchenko,  D. G. Truhlar,  T. Van Voorhis,  T. A. Wesolowski,  
 K. B. Whaley,  H. L. Woodcock III,  P. M. Zimmerman,  S. Faraji,  
 P. M. W. Gill,  M. Head-Gordon,  J. M. Herbert,  A. I. Krylov

 Additional authors since Version 5.4.0: 
 Chandrima Chakravarty,  L. Cunha,  R. Kang,  Yongbin Kim,  S. Kotaru,  
 Shaozhi Li,  Xiangyuan Li,  F. Matz,  A. Molle,  V. Parravicini,  
 Haisheng Ren,  Hengyuan Shen,  Yingli Su,  Hung-Yi Tsai,  C. Utku,  
 Fang Wang,  Jeff Yang,  F. Zeller

 Contributors to earlier versions of Q-Chem not listed above: 
 R. D. Adamson,  B. Austin,  R. Baer,  J. Baker,  G. J. O. Beran,  
 K. Brandhorst,  S. T. Brown,  E. F. C. Byrd,  Arup K. Chakraborty,  
 G. K. L. Chan,  Chun-Min Chang,  Yunqing Chen,  C.-L. Cheng,  
 Siu Hung Chien,  D. M. Chipman,  D. L. Crittenden,  H. Dachsel,  
 R. J. Doerksen,  A. D. Dutoi,  R. G. Edgar,  J. Fosso-Tande,  
 L. Fusti-Molnar,  D. Ghosh,  A. Ghysels,  A. Golubeva-Zadorozhnaya,  
 J. Gonthier,  M. S. Gordon,  S. R. Gwaltney,  G. Hawkins,  J. E. Herr,  
 A. Heyden,  S. Hirata,  E. G. Hohenstein,  G. Kedziora,  F. J. Keil,  
 C. Kelley,  Jihan Kim,  R. A. King,  R. Z. Khaliullin,  P. P. Korambath,  
 W. Kurlancheek,  A. Laurent,  A. M. Lee,  M. S. Lee,  S. V. Levchenko,  
 Ching Yeh Lin,  D. Liotard,  E. Livshits,  R. C. Lochan,  I. Lotan,  
 L. A. Martinez-Martinez,  P. E. Maslen,  N. Nair,  D. P. O'Neill,  
 D. Neuhauser,  E. Neuscamman,  C. M. Oana,  R. Olivares-Amaya,  R. Olson,  
 T. M. Perrine,  B. Peters,  P. A. Pieniazek,  A. Prociuk,  Y. M. Rhee,  
 J. Ritchie,  M. A. Rohrdanz,  E. Rosta,  N. J. Russ,  H. F. Schaefer III,  
 M. W. Schmidt,  N. E. Schultz,  S. Sharma,  N. Shenvi,  C. D. Sherrill,  
 A. C. Simmonett,  A. Sodt,  T. Stein,  D. Stuck,  K. S. Thanthiriwatte,  
 V. Vanovschi,  L. Vogt,  Tao Wang,  A. Warshel,  M. A. Watson,  
 C. F. Williams,  Q. Wu,  X. Xu,  Jun Yang,  W. Zhang,  Yan Zhao

   Please cite Q-Chem as follows:
  "Software for the frontiers of quantum chemistry:
   An overview of developments in the Q-Chem 5 package"
   J. Chem. Phys. 155, 084801 (2021)
   https://doi.org/10.1063/5.0055522 (open access)

 Q-Chem 5.4.2 for Intel X86 EM64T Linux

 Parts of Q-Chem use Armadillo 9.900.5 (Nocturnal Misbehaviour).
 http://arma.sourceforge.net/

 Q-Chem begins on Mon Dec  5 16:41:24 2022  

 Host: atlas-167
0

     Scratch files written to ./qchem22759//
 Processing $rem in /scratch/abel/SOFTWARE/qchem/config/preferences:
 Processing $rem in /dipc/acebg/.qchemrc:
The previous job contains 0 fragments, simply inherited here

 Checking the input file for inconsistencies... 	...done.

--------------------------------------------------------------
User input:
--------------------------------------------------------------

$molecule
 READ
$end

$rem
!**CALCULATION TYPE***
JOBTYPE            sp
EXCHANGE           HF
CORRELATION        RASCI    !RASCI=Casanova; RASCI2=Zimmerman
BASIS              STO-3G
UNRESTRICTED       FALSE
MOM_START          1
SCF_GUESS          read

!****RAS-SF****
RAS_ROOTS          5       !number of RAS-CI roots to be computed
SET_ITER           50     !number of iterations in RASCI
RAS_ELEC           1       !number of electrons in RAS2

RAS_ACT            2       !number of orbitals in RAS2
RAS_ACT_ORB       [5,6]  !user-selected RAS2 orbitals
!RAS_OCC            79       !number of orbitals in RAS1
RAS_PRINT          2      !level of information
STATE_ANALYSIS     TRUE
MOLDEN_FORMAT      TRUE
PRINT_ORBITALS     20
$end

--------------------------------------------------------------
 ----------------------------------------------------------------
             Standard Nuclear Orientation (Angstroms)
    I     Atom           X                Y                Z
 ----------------------------------------------------------------
    1      O       0.0000000000     0.0000000000     0.1155512138
    2      H      -0.8125311840    -0.0000000000    -0.4622048550
    3      H       0.8125311840    -0.0000000000    -0.4622048550
 ----------------------------------------------------------------
 Molecular Point Group                 C2v   NOp =  4
 Largest Abelian Subgroup              C2v   NOp =  4
 Nuclear Repulsion Energy =           8.81794733 hartrees
 There are        5 alpha and        4 beta electrons
 Requested basis set is STO-3G
 There are 4 shells and 7 basis functions

 Total QAlloc Memory Limit   2000 MB
 Mega-Array Size       188 MB
 MEM_STATIC part       192 MB


                       Distance Matrix (Angstroms)
             O (  1)   H (  2)
   H (  2)  0.997000
   H (  3)  0.997000  1.625062
 
 A cutoff of  1.0D-08 yielded     10 shell pairs
 There are        34 function pairs
 Smallest overlap matrix eigenvalue = 3.69E-01

 Scale SEOQF with 1.000000e+00/1.000000e+00/1.000000e+00

 Standard Electronic Orientation quadrupole field applied
 Nucleus-field energy     =    -0.0000000001 hartrees
 Guess MOs from SCF MO coefficient file

 -----------------------------------------------------------------------
  General SCF calculation program by
  Eric Jon Sundstrom, Paul Horn, Yuezhi Mao, Dmitri Zuev, Alec White,
  David Stuck, Shaama M.S., Shane Yost, Joonho Lee, David Small,
  Daniel Levine, Susi Lehtola, Hugh Burton, Evgeny Epifanovsky,
  Bang C. Huynh
 -----------------------------------------------------------------------
 Hartree-Fock
 Orthonormalizing orbitals
 A restricted open-shell SCF calculation will be
 performed using DIIS
 SCF converges when DIIS error is below 1.0e-05
 ---------------------------------------
  Cycle       Energy         DIIS error
 ---------------------------------------
Maximum Overlap Method Active
 MOM overlap:    4.0 / 4
 MOM overlap:    1.0 / 1
    1     -73.8293368621      2.34e-07  
    2     -73.8293368845      1.70e-07  Convergence criterion met
The disked orbital energies are calculated using alpha and beta Focks
 ---------------------------------------
 SCF time:   CPU 0.01s  wall 1.00s 
<S^2> =          0.750000000
 SCF   energy in the final basis set =      -73.8293368845
 Total energy in the final basis set =      -73.8293368845
  
     ##========================================##
     ||                                        ||
     ||              R A S M A N 2             ||
     ||________________________________________||
     ||                                        ||
     ||  Author:                               ||
     ||                                        ||
     ||        David Casanova (2010)           ||
     ||                                        ||
     ##========================================##
  
  ***************************************************
  *  RAS-CI Dimensions:                             *
  *                                                 *
  *  Active Elec.:   1 ( 1, 0)   Active Orb.:   2   *
  *  Doubly Occ. :   0           Doubly Vir.:   5   *
  *  Frozen Occ. :   0           Frozen Vir.:   0   *
  *                                                 *
  *  Total CI configurations:         7             * 
  *    Active configurations:         2             * 
  *      Hole configurations:         0             * 
  *  Particle configurations:         5             * 
  *                                                 *
  *   Requested states:        5                    *
  *  Spin multiplicity: Any multiplicity            *
  *                                                 *
  ***************************************************
-----------------------------------------
    Memory requirements of RASCI

 Each CI-vector requires      0.00 MiB 
 Max. subspace vectors              7      

 Reduced Lists                0.00 MiB 
 Excitation Lists             0.00 MiB 
 Excitation Lists Sign        0.00 MiB 
 CI-space (Max)               0.00 MiB 
 Integrals                    0.00 MiB 
 Memory required (Max)        0.00 MiB 
 Memory available           183.11 MiB 

    Disk requirements of RASCI

 Fock matrix                  0.00 MiB 
 2-electron integrals         0.00 MiB 
 CI-space                     0.00 MiB 
 Disk required                0.01 MiB 
-----------------------------------------
  
RAS1 HF-like energy:              8.8179473260
 Computing integrals
 Computing J and K matrices
 Computing addressing
 Making amplitude guesses
 
Direct CI diagonalization
 ---------------------------------------------------
 Iter    Rts Conv    Rts Left    Ttl Dev     Max Dev
 ---------------------------------------------------
   1         3           2      0.887193    0.565570
   2         5           0      0.000000    0.000000    Roots Converged
 ---------------------------------------------------
   
**************************************************
 RAS-CI total energy for state   1:      0.581486621320
  Excitation energy (eV) =  0.000000000000
 Warning : Irrep of orbital(   7) could not be determined
 Warning : Irrep of orbital(   7) could not be determined
  State symmetry: A1    (C2v      )
  <S^2>      :  0.7500
  Dipole Moment:    0.0016 X     0.0000 Y    -0.1967 Z
 NATURAL OCCUPATION NUMBERS (higher than 1.0E-05)
            1
    1   1.0000000

  Amplitudes : 
  
 | HOLE  | ALPHA | BETA  | PART  |    AMPLITUDE 
--------------------------------------------------
 |       | 01    | 00    |       |     1.1715011047216E-01
 |       | 00    | 00    |   3   |     9.2318459767756E-01
 |       | 00    | 00    |   6   |     3.6583965725547E-01
--------------------------------------------------
*** Contributions RASCI wfn    Active:   1.37
                                 Hole:   0.00
                                 Part:  98.63

      Mulliken population analysis 
 ---------------------------------------------------
   Atom    Charge (a.u.)   Spin (a.u.)  
 ---------------------------------------------------
   1  O    6.871894        1.128106 
   2  H    1.063953       -0.063953 
   3  H    1.063987       -0.063987 
 ---------------------------------------------------
   Sum:    8.999833        1.000167 
 ---------------------------------------------------
 
*** Unpaired Electrons
 Yamaguchi Nd:         1.00
  
**************************************************
 RAS-CI total energy for state   2:      1.120796231152
  Excitation energy (eV) = 14.675361142558
  State symmetry: B1    (C2v      )
  <S^2>      :  0.7500
  Dipole Moment:   -0.0001 X     0.0000 Y     0.2774 Z
  Trans. Moment:   -0.5204 X     0.0000 Y    -0.0018 Z
  Strength   :  0.097356
  Natural transition orbitals ( 1 -> 2 ):
   e-/hole pair  1 alpha:  ampl =  1.000000 (100.0%)   [2 : 3]
   e-/hole pair  2 alpha:  ampl =  0.000000 (  0.0%)   [1 : 4]
   e-/hole pair  1 beta :  ampl =  0.000000 (  0.0%)   [2 : 3]
   e-/hole pair  2 beta :  ampl =  0.000000 (  0.0%)   [1 : 4]
   Sum of square amplitudes: 1.00
 Created directory ./qchem22759/plots

 NATURAL OCCUPATION NUMBERS (higher than 1.0E-05)
            1
    1   1.0000000

  Amplitudes : 
  
 | HOLE  | ALPHA | BETA  | PART  |    AMPLITUDE 
--------------------------------------------------
 |       | 10    | 00    |       |    -4.6039461088622E-01
 |       | 00    | 00    |   4   |     8.8767522518295E-01
--------------------------------------------------
*** Contributions RASCI wfn    Active:  21.20
                                 Hole:   0.00
                                 Part:  78.80

      Mulliken population analysis 
 ---------------------------------------------------
   Atom    Charge (a.u.)   Spin (a.u.)  
 ---------------------------------------------------
   1  O    6.931244        1.068756 
   2  H    1.034488       -0.034488 
   3  H    1.034207       -0.034207 
 ---------------------------------------------------
   Sum:    8.999939        1.000061 
 ---------------------------------------------------
 
*** Unpaired Electrons
 Yamaguchi Nd:         1.00
  
**************************************************
 RAS-CI total energy for state   3:      1.379441883720
  Excitation energy (eV) = 21.713467436609
  State symmetry: A1    (C2v      )
  <S^2>      :  0.7500
  Dipole Moment:   -0.0015 X     0.0000 Y     0.6861 Z
  Trans. Moment:    0.0009 X    -0.0000 Y    -0.4273 Z
  Strength   :  0.097122
  Natural transition orbitals ( 1 -> 3 ):
   e-/hole pair  1 alpha:  ampl =  1.000000 (100.0%)   [2 : 3]
   e-/hole pair  2 alpha:  ampl =  0.000000 (  0.0%)   [1 : 4]
   e-/hole pair  1 beta :  ampl =  0.000000 (  0.0%)   [2 : 3]
   e-/hole pair  2 beta :  ampl =  0.000000 (  0.0%)   [1 : 4]
   Sum of square amplitudes: 1.00

 NATURAL OCCUPATION NUMBERS (higher than 1.0E-05)
            1
    1   1.0000000

  Amplitudes : 
  
 | HOLE  | ALPHA | BETA  | PART  |    AMPLITUDE 
--------------------------------------------------
 |       | 01    | 00    |       |     8.9522915082536E-01
 |       | 00    | 00    |   3   |    -2.5748888363989E-01
 |       | 00    | 00    |   6   |     3.6348810359839E-01
--------------------------------------------------
*** Contributions RASCI wfn    Active:  80.14
                                 Hole:   0.00
                                 Part:  19.86

      Mulliken population analysis 
 ---------------------------------------------------
   Atom    Charge (a.u.)   Spin (a.u.)  
 ---------------------------------------------------
   1  O    6.999597        1.000403 
   2  H    1.000125       -0.000125 
   3  H    1.000144       -0.000144 
 ---------------------------------------------------
   Sum:    8.999866        1.000134 
 ---------------------------------------------------
 
*** Unpaired Electrons
 Yamaguchi Nd:         1.00
  
**************************************************
 RAS-CI total energy for state   4:      1.393388248593
  Excitation energy (eV) = 22.092967333154
  State symmetry: B2    (C2v      )
  <S^2>      :  0.7500
  Dipole Moment:    0.0000 X    -0.0000 Y     0.2184 Z
  Trans. Moment:    0.0000 X     0.5869 Y    -0.0000 Z
  Strength   :  0.186415
  Natural transition orbitals ( 1 -> 4 ):
   e-/hole pair  1 alpha:  ampl =  1.000000 (100.0%)   [2 : 3]
   e-/hole pair  2 alpha:  ampl =  0.000000 (  0.0%)   [1 : 4]
   e-/hole pair  1 beta :  ampl =  0.000000 (  0.0%)   [2 : 3]
   e-/hole pair  2 beta :  ampl =  0.000000 (  0.0%)   [1 : 4]
   Sum of square amplitudes: 1.00

 NATURAL OCCUPATION NUMBERS (higher than 1.0E-05)
            1
    1   1.0000000

  Amplitudes : 
  
 | HOLE  | ALPHA | BETA  | PART  |    AMPLITUDE 
--------------------------------------------------
 |       | 00    | 00    |   5   |     1.0000000000000E+00
--------------------------------------------------
*** Contributions RASCI wfn    Active:   0.00
                                 Hole:   0.00
                                 Part: 100.00

      Mulliken population analysis 
 ---------------------------------------------------
   Atom    Charge (a.u.)   Spin (a.u.)  
 ---------------------------------------------------
   1  O    7.000000        1.000000 
   2  H    1.000000       -0.000000 
   3  H    1.000000       -0.000000 
 ---------------------------------------------------
   Sum:    9.000000        1.000000 
 ---------------------------------------------------
 
*** Unpaired Electrons
 Yamaguchi Nd:         1.00
  
**************************************************
 RAS-CI total energy for state   5:      4.662381875666
  Excitation energy (eV) = ***************
  Warning: not all configurations have same symmetry
  State symmetry: *A1    (C2v      )
  <S^2>      :  0.7500
  Dipole Moment:   -0.8332 X    -0.0000 Y    -0.9823 Z
  Trans. Moment:   -0.0138 X    -0.0000 Y    -0.0049 Z
  Strength   :  0.000584
  Natural transition orbitals ( 1 -> 5 ):
   e-/hole pair  1 alpha:  ampl =  1.000000 (100.0%)   [2 : 3]
   e-/hole pair  2 alpha:  ampl =  0.000000 (  0.0%)   [1 : 4]
   e-/hole pair  1 beta :  ampl =  0.000000 (  0.0%)   [2 : 3]
   e-/hole pair  2 beta :  ampl =  0.000000 (  0.0%)   [1 : 4]
   Sum of square amplitudes: 1.00

 NATURAL OCCUPATION NUMBERS (higher than 1.0E-05)
            1
    1   1.0000000

  Amplitudes : 
  
 | HOLE  | ALPHA | BETA  | PART  |    AMPLITUDE 
--------------------------------------------------
 |       | 10    | 00    |       |     8.6006329151248E-01
 |       | 01    | 00    |       |     1.0552122490615E-01
 |       | 00    | 00    |   4   |     4.4578421118269E-01
 |       | 00    | 00    |   6   |    -2.1131174688934E-01
--------------------------------------------------
*** Contributions RASCI wfn    Active:  75.08
                                 Hole:   0.00
                                 Part:  24.92

      Mulliken population analysis 
 ---------------------------------------------------
   Atom    Charge (a.u.)   Spin (a.u.)  
 ---------------------------------------------------
   1  O    8.072454       -0.072454 
   2  H    0.198269        0.801731 
   3  H    0.728542        0.271458 
 ---------------------------------------------------
   Sum:    8.999265        1.000735 
 ---------------------------------------------------
 
*** Unpaired Electrons
 Yamaguchi Nd:         1.00
  
--------------------------------------------------
 Interstate Transition Properties
--------------------------------------------------
State A: Root  1
State B: Root  2
  
Angular momentum components
< B | Lx | A > =     0.000000000i
< B | Ly | A > =     0.279516767i
< B | Lz | A > =     0.000000000i
  
Norm of one-particle transition density matrix
||gamma^AB||_total       =  1.000000
||gamma^AB||_symmetrized =  0.707107
||gamma^AB||_anti-symm   =  0.707107
  
**************************************************
State A: Root  1
State B: Root  3
  
Angular momentum components
< B | Lx | A > =    -0.000000000i
< B | Ly | A > =     0.000764541i
< B | Lz | A > =    -0.000000000i
  
Norm of one-particle transition density matrix
||gamma^AB||_total       =  1.000000
||gamma^AB||_symmetrized =  0.707107
||gamma^AB||_anti-symm   =  0.707107
  
**************************************************
State A: Root  1
State B: Root  4
  
Angular momentum components
< B | Lx | A > =     0.286969884i
< B | Ly | A > =    -0.000000000i
< B | Lz | A > =     0.001604253i
  
Norm of one-particle transition density matrix
||gamma^AB||_total       =  1.000000
||gamma^AB||_symmetrized =  0.707107
||gamma^AB||_anti-symm   =  0.707107
  
**************************************************
State A: Root  1
State B: Root  5
  
Angular momentum components
< B | Lx | A > =    -0.000000000i
< B | Ly | A > =    -0.041110855i
< B | Lz | A > =     0.000000000i
  
Norm of one-particle transition density matrix
||gamma^AB||_total       =  1.000000
||gamma^AB||_symmetrized =  0.707107
||gamma^AB||_anti-symm   =  0.707107
  
**************************************************
State A: Root  2
State B: Root  3
  
Angular momentum components
< B | Lx | A > =    -0.000000000i
< B | Ly | A > =    -0.943895658i
< B | Lz | A > =     0.000000000i
  
Norm of one-particle transition density matrix
||gamma^AB||_total       =  1.000000
||gamma^AB||_symmetrized =  0.707107
||gamma^AB||_anti-symm   =  0.707107
  
**************************************************
State A: Root  2
State B: Root  4
  
Angular momentum components
< B | Lx | A > =     0.003001900i
< B | Ly | A > =    -0.000000000i
< B | Lz | A > =    -0.982907967i
  
Norm of one-particle transition density matrix
||gamma^AB||_total       =  1.000000
||gamma^AB||_symmetrized =  0.707107
||gamma^AB||_anti-symm   =  0.707107
  
**************************************************
State A: Root  2
State B: Root  5
  
Angular momentum components
< B | Lx | A > =    -0.000000000i
< B | Ly | A > =    -0.048463018i
< B | Lz | A > =     0.000000000i
  
Norm of one-particle transition density matrix
||gamma^AB||_total       =  1.000000
||gamma^AB||_symmetrized =  0.707107
||gamma^AB||_anti-symm   =  0.707107
  
**************************************************
State A: Root  3
State B: Root  4
  
Angular momentum components
< B | Lx | A > =     0.955124648i
< B | Ly | A > =    -0.000000000i
< B | Lz | A > =     0.002427908i
  
Norm of one-particle transition density matrix
||gamma^AB||_total       =  1.000000
||gamma^AB||_symmetrized =  0.707107
||gamma^AB||_anti-symm   =  0.707107
  
**************************************************
State A: Root  3
State B: Root  5
  
Angular momentum components
< B | Lx | A > =     0.000000000i
< B | Ly | A > =     0.123368181i
< B | Lz | A > =    -0.000000000i
  
Norm of one-particle transition density matrix
||gamma^AB||_total       =  1.000000
||gamma^AB||_symmetrized =  0.707107
||gamma^AB||_anti-symm   =  0.707107
  
**************************************************
State A: Root  4
State B: Root  5
  
Angular momentum components
< B | Lx | A > =    -0.028528141i
< B | Ly | A > =     0.000000000i
< B | Lz | A > =     0.178705747i
  
Norm of one-particle transition density matrix
||gamma^AB||_total       =  1.000000
||gamma^AB||_symmetrized =  0.707107
||gamma^AB||_anti-symm   =  0.707107
  
**************************************************
RAS-CI timing summary (seconds)
  CPU time          0.03s
  System time       0.00s
  Wall time         0.50s
Detailed CPU timing summary
     Fock matrix         :         0.0024 s
     Integrals           :         0.0028 s
     Addressing matrices :         0.0000 s
     Guesses             :         0.0001 s
     Iterations          :         0.0013 s
     Properties          :         0.0236 s
     RAS-CI(2) correction:         0.0000 s
  
 
 --------------------------------------------------------------
             Orbital Energies (a.u.) and Symmetries
 --------------------------------------------------------------
 Warning : Irrep of orbital(   7) could not be determined
 
 Alpha MOs, Restricted
 -- Doubly Occupied --           
 -0.312  -0.558  -1.843  -1.280
  1 B1    1 A1    2 A1    2 B1                                                 
 -- Singly Occupied (Occupied) --
 -1.053
  1 B2                                                                         
 -- Virtual --                   
  0.009   0.000
  3 A1    0 xxx                                                                
 
 Beta MOs, Restricted
 -- Doubly Occupied --           
 -0.312  -0.558  -1.843  -1.280
  1 B1    1 A1    2 A1    2 B1                                                 
 -- Singly Occupied (Vacant) --  
 -1.053
  1 B2                                                                         
 -- Virtual --                   
  0.009   0.000
  3 A1    0 xxx                                                                
 --------------------------------------------------------------
 

                        RESTRICTED (RHF) MOLECULAR ORBITAL COEFFICIENTS
                         1         2         3         4         5         6
 eigenvalues:         -0.312    -0.558    -1.843    -1.280    -1.053     0.009
   1  O     s       -0.00000   0.08198  -0.24862   0.00000  -0.00000  -0.11056
   2  O     s        0.00000  -0.44784   0.93930  -0.00000  -0.00000   0.76369
   3  O     px       0.83145   0.00000  -0.00000  -0.79369   0.00000  -0.00000
   4  O     py      -0.00000  -0.00000   0.00000   0.00000   1.00000   0.00000
   5  O     pz      -0.00000  -0.78698  -0.10312   0.00000   0.00000  -0.71180
   6  H 1   s        0.87772   0.30085   0.08092   0.26478  -0.00000  -0.78101
   7  H 2   s       -0.87772   0.30085   0.08092  -0.26478   0.00000  -0.78101
                         7
 eigenvalues:          0.000
   1  O     s       -0.00498
   2  O     s        0.03051
   3  O     px      -0.00000
   4  O     py       0.00000
   5  O     pz      -0.00000
   6  H 1   s       -0.03820
   7  H 2   s        0.00000
 

======= MOLECULAR ORBITALS IN MOLDEN FORMAT =======
[Molden Format]
[Atoms] (Angs)
  O      1    8      0.00000000      0.00000000      0.11555121
  H      2    1     -0.81253118     -0.00000000     -0.46220486
  H      3    1      0.81253118     -0.00000000     -0.46220486
[GTO]
1    0
S    3    1.000000
   1.30709320E+02    1.54328970E-01 
   2.38088610E+01    5.35328140E-01 
   6.44360830E+00    4.44634540E-01 
SP   3    1.000000
   5.03315130E+00   -9.99672300E-02   1.55916270E-01 
   1.16959610E+00    3.99512830E-01   6.07683720E-01 
   3.80389000E-01    7.00115470E-01   3.91957390E-01 

2    0
S    3    1.000000
   3.42525091E+00    1.54328970E-01 
   6.23913730E-01    5.35328140E-01 
   1.68855400E-01    4.44634540E-01 

3    0
S    3    1.000000
   3.42525091E+00    1.54328970E-01 
   6.23913730E-01    5.35328140E-01 
   1.68855400E-01    4.44634540E-01 

[MO]
Sym=X
Ene= -0.311847
Spin=Alpha
Occup=1
     1   -1.828352122332e-13
     2    1.255613750207e-12
     3    8.314491835439e-01
     4   -3.012295919884e-17
     5   -1.138466998304e-12
     6    8.777174953075e-01
     7   -8.777174953101e-01
Sym=X
Ene= -0.557548
Spin=Alpha
Occup=1
     1    8.198199119477e-02
     2   -4.478369849917e-01
     3    2.145639558733e-14
     4   -8.906387843539e-17
     5   -7.869829509230e-01
     6    3.008507924123e-01
     7    3.008507924122e-01
Sym=X
Ene= -1.842636
Spin=Alpha
Occup=1
     1   -2.486246844949e-01
     2    9.393027980501e-01
     3   -8.962555592580e-15
     4    3.329521059896e-16
     5   -1.031183289581e-01
     6    8.092347419258e-02
     7    8.092347419259e-02
Sym=X
Ene= -1.280051
Spin=Alpha
Occup=1
     1    4.103241872797e-15
     2   -2.363122128524e-14
     3   -7.936868011812e-01
     4    1.464569989957e-15
     5    1.528158675823e-14
     6    2.647837385023e-01
     7   -2.647837385022e-01
Sym=X
Ene= -1.052705
Spin=Alpha
Occup=1
     1   -6.957943426378e-16
     2   -5.069126717844e-16
     3    1.126386545801e-15
     4    1.000000000000e+00
     5    1.086057611480e-16
     6   -3.421037022629e-16
     7    5.727909140935e-16
Sym=X
Ene= 0.009281
Spin=Alpha
Occup=0
     1   -1.105626301425e-01
     2    7.636943660979e-01
     3   -1.371222579927e-12
     4    1.467323662148e-16
     5   -7.117980198797e-01
     6   -7.810080508678e-01
     7   -7.810080508650e-01
Sym=X
Ene= 0.000000
Spin=Alpha
Occup=0
     1   -4.982835506349e-03
     2    3.051160172114e-02
     3   -3.909025880766e-14
     4    1.071061482121e-17
     5   -5.306866057708e-14
     6   -3.819513991568e-02
     7   1.976262583365e-321

======= END OF MOLDEN-FORMAT MOLECULAR ORBITALS =======

          Ground-State Mulliken Net Atomic Charges

     Atom                 Charge (a.u.)
  ----------------------------------------
      1 O                     0.410723
      2 H                     0.294639
      3 H                     0.294639
  ----------------------------------------
  Sum of atomic charges =     1.000000

 -----------------------------------------------------------------
                    Cartesian Multipole Moments
 -----------------------------------------------------------------
    Charge (ESU x 10^10)
                 4.8032
    Dipole Moment (Debye)
         X      -0.0000      Y       0.0000      Z      -0.3909
       Tot       0.3909
    Quadrupole Moments (Debye-Ang)
        XX      -4.1864     XY       0.0000     YY      -5.5054
        XZ       0.0000     YZ       0.0000     ZZ      -3.1936
    Octopole Moments (Debye-Ang^2)
       XXX      -0.0000    XXY      -0.0000    XYY      -0.0000
       YYY      -0.0000    XXZ      -0.3143    XYZ       0.0000
       YYZ       0.0895    XZZ      -0.0000    YZZ      -0.0000
       ZZZ       0.5860
    Hexadecapole Moments (Debye-Ang^3)
      XXXX      -8.0708   XXXY      -0.0000   XXYY      -1.9292
      XYYY      -0.0000   YYYY      -2.9651   XXXZ       0.0000
      XXYZ       0.0000   XYYZ       0.0000   YYYZ      -0.0000
      XXZZ      -1.8636   XYZZ      -0.0000   YYZZ      -1.0938
      XZZZ       0.0000   YZZZ      -0.0000   ZZZZ      -3.3482
 -----------------------------------------------------------------
 Total job time:  1.15s(wall), 0.10s(cpu) 
 Mon Dec  5 16:41:25 2022

======= MOLDEN-FORMATTED INPUT FILE FOLLOWS =======
[Molden Format]
[Atoms] (Angs)
  O      1    8      0.00000000      0.00000000      0.11555121
  H      2    1     -0.81253118     -0.00000000     -0.46220486
  H      3    1      0.81253118     -0.00000000     -0.46220486
[GTO]
1    0
S    3    1.000000
   1.30709320E+02    1.54328970E-01 
   2.38088610E+01    5.35328140E-01 
   6.44360830E+00    4.44634540E-01 
SP   3    1.000000
   5.03315130E+00   -9.99672300E-02   1.55916270E-01 
   1.16959610E+00    3.99512830E-01   6.07683720E-01 
   3.80389000E-01    7.00115470E-01   3.91957390E-01 

2    0
S    3    1.000000
   3.42525091E+00    1.54328970E-01 
   6.23913730E-01    5.35328140E-01 
   1.68855400E-01    4.44634540E-01 

3    0
S    3    1.000000
   3.42525091E+00    1.54328970E-01 
   6.23913730E-01    5.35328140E-01 
   1.68855400E-01    4.44634540E-01 

[MO]
Sym=X
Ene= -0.311847
Spin=Alpha
Occup=1
     1   -1.828352122332e-13
     2    1.255613750207e-12
     3    8.314491835439e-01
     4   -3.012295919884e-17
     5   -1.138466998304e-12
     6    8.777174953075e-01
     7   -8.777174953101e-01
Sym=X
Ene= -0.557548
Spin=Alpha
Occup=1
     1    8.198199119477e-02
     2   -4.478369849917e-01
     3    2.145639558733e-14
     4   -8.906387843539e-17
     5   -7.869829509230e-01
     6    3.008507924123e-01
     7    3.008507924122e-01
Sym=X
Ene= -1.842636
Spin=Alpha
Occup=1
     1   -2.486246844949e-01
     2    9.393027980501e-01
     3   -8.962555592580e-15
     4    3.329521059896e-16
     5   -1.031183289581e-01
     6    8.092347419258e-02
     7    8.092347419259e-02
Sym=X
Ene= -1.280051
Spin=Alpha
Occup=1
     1    4.103241872797e-15
     2   -2.363122128524e-14
     3   -7.936868011812e-01
     4    1.464569989957e-15
     5    1.528158675823e-14
     6    2.647837385023e-01
     7   -2.647837385022e-01
Sym=X
Ene= -1.052705
Spin=Alpha
Occup=1
     1   -6.957943426378e-16
     2   -5.069126717844e-16
     3    1.126386545801e-15
     4    1.000000000000e+00
     5    1.086057611480e-16
     6   -3.421037022629e-16
     7    5.727909140935e-16
Sym=X
Ene= 0.009281
Spin=Alpha
Occup=0
     1   -1.105626301425e-01
     2    7.636943660979e-01
     3   -1.371222579927e-12
     4    1.467323662148e-16
     5   -7.117980198797e-01
     6   -7.810080508678e-01
     7   -7.810080508650e-01
Sym=X
Ene= 0.000000
Spin=Alpha
Occup=0
     1   -4.982835506349e-03
     2    3.051160172114e-02
     3   -3.909025880766e-14
     4    1.071061482121e-17
     5   -5.306866057708e-14
     6   -3.819513991568e-02
     7   1.976262583365e-321

======= END OF MOLDEN-FORMATTED INPUT FILE =======


        *************************************************************
        *                                                           *
        *  Thank you very much for using Q-Chem.  Have a nice day.  *
        *                                                           *
        *************************************************************


