                  Welcome to Q-Chem
     A Quantum Leap Into The Future Of Chemistry


 Q-Chem 6.0 (devel), Q-Chem, Inc., Pleasanton, CA (2022)

 E. Epifanovsky,  A. T. B. Gilbert,  Xintian Feng,  Joonho Lee,  Yuezhi Mao,  
 N. Mardirossian,  P. Pokhilko,  A. White,  M. Wormit,  M. P. Coons,  
 A. L. Dempwolff,  Zhengting Gan,  D. Hait,  P. R. Horn,  L. D. Jacobson,  
 I. Kaliman,  J. Kussmann,  A. W. Lange,  Ka Un Lao,  D. S. Levine,  Jie Liu,  
 S. C. McKenzie,  A. F. Morrison,  K. Nanda,  F. Plasser,  D. R. Rehn,  
 M. L. Vidal,  Zhi-Qiang You,  Ying Zhu,  B. Alam,  B. Albrecht,  
 A. Aldossary,  E. Alguire,  J. H. Andersen,  V. Athavale,  D. Barton,  
 K. Begam,  A. Behn,  N. Bellonzi,  Y. A. Bernard,  E. J. Berquist,  
 H. Burton,  A. Carreras,  K. Carter-Fenk,  Romit Chakraborty,  
 Chandrima Chakravarty,  Junhan Chen,  A. D. Chien,  K. D. Closser,  
 V. Cofer-Shabica,  L. Cunha,  S. Dasgupta,  Jia Deng,  M. de Wergifosse,  
 M. Diedenhofen,  Hainam Do,  S. Ehlert,  Po-Tung Fang,  S. Fatehi,  
 Qingguo Feng,  T. Friedhoff,  B. Ganoe,  J. Gayvert,  Qinghui Ge,  
 G. Gidofalvi,  M. Goldey,  J. Gomes,  C. Gonzalez-Espinoza,  S. Gulania,  
 A. Gunina,  J. A. Gyamfi,  M. W. D. Hanson-Heine,  P. H. P. Harbach,  
 A. W. Hauser,  M. F. Herbst,  M. Hernandez Vera,  M. Hodecker,  
 Z. C. Holden,  S. Houck,  Xunkun Huang,  Kerwin Hui,  B. C. Huynh,  
 K. Ikeda,  M. Ivanov,  Hyunjun Ji,  Zuxin Jin,  Hanjie Jiang,  B. Kaduk,  
 S. Kaehler,  R. Kang,  K. Khistyaev,  Jaehoon Kim,  Yongbin Kim,  
 P. Klunzinger,  Z. Koczor-Benda,  Joong Hoon Koh,  D. Kosenkov,  
 Saikiran Kotaru,  L. Koulias,  T. Kowalczyk,  C. M. Krauter,  K. Kue,  
 A. Kunitsa,  T. Kus,  A. Landau,  K. V. Lawler,  D. Lefrancois,  S. Lehtola,  
 Rain Li,  Shaozhi Li,  Yi-Pei Li,  Jiashu Liang,  M. Liebenthal,  
 Hung-Hsuan Lin,  You-Sheng Lin,  Fenglai Liu,  Kuan-Yu Liu,  
 M. Loipersberger,  A. Luenser,  C. Malbon,  A. Manjanath,  P. Manohar,  
 E. Mansoor,  S. F. Manzer,  Shan-Ping Mao,  A. V. Marenich,  T. Markovich,  
 S. Mason,  F. Matz,  S. A. Maurer,  P. F. McLaughlin,  M. F. S. J. Menger,  
 J.-M. Mewes,  S. A. Mewes,  P. Morgante,  Mohammad Mostafanejad,  
 J. W. Mullinax,  K. J. Oosterbaan,  G. Paran,  V. Parravicini,  
 Alexander C. Paul,  Suranjan K. Paul,  F. Pavosevic,  Zheng Pei,  S. Prager,  
 E. I. Proynov,  E. Ramos,  B. Rana,  A. E. Rask,  A. Rettig,  R. M. Richard,  
 F. Rob,  E. Rossomme,  T. Scheele,  M. Scheurer,  M. Schneider,  
 P. E. Schneider,  N. Sergueev,  S. M. Sharada,  Hengyuan Shen,  
 W. Skomorowski,  D. W. Small,  C. J. Stein,  Yingli Su,  Yu-Chuan Su,  
 E. J. Sundstrom,  Zhen Tao,  J. Thirman,  Hung-Yi Tsai,  T. Tsuchimochi,  
 N. M. Tubman,  C. Utku,  S. P. Veccham,  O. Vydrov,  J. Wenzel,  
 Jonathan Wong,  J. Witte,  A. Yamada,  Chou-Hsun Yang,  Kun Yao,  
 S. Yeganeh,  S. R. Yost,  A. Zech,  F. Zeller,  Igor Ying Zhang,  
 Xing Zhang,  Yu Zhang,  D. Zuev,  A. Aspuru-Guzik,  A. T. Bell,  
 N. A. Besley,  K. B. Bravaya,  B. R. Brooks,  D. Casanova,  Jeng-Da Chai,  
 Hsing-Ta Chen,  S. Coriani,  C. J. Cramer,  A. E. DePrince, III,  
 R. A. DiStasio Jr.,  A. Dreuw,  B. D. Dunietz,  T. R. Furlani,  
 W. A. Goddard III,  S. Grimme,  S. Hammes-Schiffer,  T. Head-Gordon,  
 W. J. Hehre,  Chao-Ping Hsu,  T.-C. Jagau,  Yousung Jung,  A. Klamt,  
 Jing Kong,  D. S. Lambrecht,  Xiangyuan Li,  WanZhen Liang,  N. J. Mayhall,  
 C. W. McCurdy,  J. B. Neaton,  T. Neudecker,  C. Ochsenfeld,  
 J. A. Parkhill,  R. Peverati,  V. A. Rassolov,  Haisheng Ren,  Yihan Shao,  
 L. V. Slipchenko,  R. P. Steele,  J. E. Subotnik,  A. J. W. Thom,  
 A. Tkatchenko,  D. G. Truhlar,  T. Van Voorhis,  Fan Wang,  
 T. A. Wesolowski,  K. B. Whaley,  H. L. Woodcock III,  P. M. Zimmerman,  
 S. Faraji,  P. M. W. Gill,  M. Head-Gordon,  J. M. Herbert,  A. I. Krylov

 Contributors to earlier versions of Q-Chem not listed above: 
 R. D. Adamson,  B. Austin,  R. Baer,  J. Baker,  G. J. O. Beran,  
 K. Brandhorst,  S. T. Brown,  E. F. C. Byrd,  Arup K. Chakraborty,  
 G. K. L. Chan,  Chun-Min Chang,  Yunqing Chen,  C.-L. Cheng,  
 Siu Hung Chien,  D. M. Chipman,  D. L. Crittenden,  H. Dachsel,  
 R. J. Doerksen,  A. D. Dutoi,  R. G. Edgar,  J. Fosso-Tande,  
 L. Fusti-Molnar,  D. Ghosh,  A. Ghysels,  A. Golubeva-Zadorozhnaya,  
 J. Gonthier,  M. S. Gordon,  S. R. Gwaltney,  G. Hawkins,  J. E. Herr,  
 A. Heyden,  S. Hirata,  E. G. Hohenstein,  G. Kedziora,  F. J. Keil,  
 C. Kelley,  Jihan Kim,  R. A. King,  R. Z. Khaliullin,  P. P. Korambath,  
 W. Kurlancheek,  A. Laurent,  A. M. Lee,  M. S. Lee,  S. V. Levchenko,  
 Ching Yeh Lin,  D. Liotard,  E. Livshits,  R. C. Lochan,  I. Lotan,  
 L. A. Martinez-Martinez,  P. E. Maslen,  N. Nair,  D. P. O'Neill,  
 D. Neuhauser,  E. Neuscamman,  C. M. Oana,  R. Olivares-Amaya,  R. Olson,  
 T. M. Perrine,  B. Peters,  P. A. Pieniazek,  A. Prociuk,  Y. M. Rhee,  
 J. Ritchie,  M. A. Rohrdanz,  E. Rosta,  N. J. Russ,  H. F. Schaefer III,  
 M. W. Schmidt,  N. E. Schultz,  S. Sharma,  N. Shenvi,  C. D. Sherrill,  
 A. C. Simmonett,  A. Sodt,  T. Stein,  D. Stuck,  K. S. Thanthiriwatte,  
 V. Vanovschi,  L. Vogt,  Tao Wang,  A. Warshel,  M. A. Watson,  
 C. F. Williams,  Q. Wu,  X. Xu,  Jun Yang,  W. Zhang,  Yan Zhao

   Please cite Q-Chem as follows:
  "Software for the frontiers of quantum chemistry:
   An overview of developments in the Q-Chem 5 package"
   J. Chem. Phys. 155, 084801 (2021)
   https://doi.org/10.1063/5.0055522 (open access)

 Q-Chem 6.0.1 for Intel X86 EM64T Linux

 Parts of Q-Chem use Armadillo 9.900.5 (Nocturnal Misbehaviour).
 http://arma.sourceforge.net/

 Q-Chem begins on Fri Mar 31 17:33:20 2023  

 Host: atlas-056
0

     Scratch files written to ./qchem14808//
 Processing $rem in /scratch/abel/SOFTWARE/qchem/config/preferences:
 Processing $rem in /dipc/acebg/.qchemrc:

 Checking the input file for inconsistencies... 	...done.

--------------------------------------------------------------
User input:
--------------------------------------------------------------
$comment
 RAS-SF CALCULATION
$end

$molecule
1 2    !charge and multiplicity
O1
H1 O1 oh
H2 O1 oh H1 hoh

oh = 0.997
hoh = 109.17
$end

$rem
!**CALCULATION TYPE***     
JOBTYPE            sp    
EXCHANGE           HF
CORRELATION        RASCI    !RASCI=Casanova; RASCI2=Zimmerman
BASIS              def2-TZVP

!***SCF REFERENCE***
SKIP_SCFMAN        FALSE
UNRESTRICTED       FALSE
!SCF_GUESS          core
!SCF_GUESS_MIX      FALSE
!SCF_GUESS_ALWAYS   FALSE
MAX_SCF_CYCLES     500
SCF_CONVERGENCE    8
!SCF_ALGORITHM      DIIS !DIIS,DM,DIIS_DM,GDM,DIIS_GDM,GD

SYMMETRY           TRUE !use of symmetry for calculating integrals
SYM_IGNORE         TRUE !turn off using symmetry
SYM_TOL            5 !tolerance for determining point group

!THRESH             14
SCF_FINAL_PRINT     1 !0,1,2,3

!****RAS-SF****
RAS_ROOTS          20       !number of RAS-CI roots to be computed
SET_ITER           100     !number of iterations in RASCI
RAS_ELEC           5       !number of electrons in RAS2
!RAS_ELEC_ALPHA            !spin-α electrons in RAS2 
!RAS_ELEC_BETA             !spin-β electrons in RAS2

RAS_ACT            5       !number of orbitals in RAS2 
RAS_ACT_ORB       [3,4,5,6,7]  !user-selected RAS2 orbitals
RAS_OCC            2       !number of orbitals in RAS1
N_FROZEN_CORE      0     !Number of frozen core orbitals
N_FROZEN_VIRTUAL   0      !Number of frozen virtual orbitals
RAS_NATORB         TRUE    !computation of the natural orbital occupancies
!RAS_NATORB_STATE  0      !Saves NO of i RAS computed state in .fchk ﬁle

RAS_DO_HOLE        TRUE   !presence of hole excitations in RAS-CI wave function
RAS_DO_PART        TRUE   !presence of particle excitations
RAS_AMPL_PRINT     10     !threshold (×10 2 ) for the CI amplitudes

RAS_GUESS_CS       0      !number of closed shell guess conﬁgurations
RAS_SPIN_MULT      0      !spin multiplicity: 0=any, 2n+1=defined 
RAS_SRDFT          FALSE  !short-range density functional RAS-CI
RAS_NFRAG          0     !fragments of excitation analysis in RASCI

RAS_PRINT          2      !level of information
RAS_NATORB         TRUE   !computation of the natural orbital occupancies
!RAS_NATORB_STATE  0      !Saves NO of i RAS computed state in .fchk ﬁle
RAS_FOD            TRUE

!****RAS-SOC****
CALC_SOC           TRUE   !calculate SOC for EOM-CC, RAS-CI, ADC, TDDFT/TDA and TDDFT
!RAS_SOC_2E        TRUE   !two-electron mean-ﬁeld contribution, default=true
RAS_SOC_SYM_DENS   TRUE   !averaging of α and β densities

!****MEMORY****
MEM_TOTAL          15000 !Default 2000 MB
MEM_STATIC         3000  !Default 64 MB

!**Molecular Properties and Analysis **                                                                                          
GUI                2
STATE_ANALYSIS     TRUE
MOLDEN_FORMAT      TRUE
PRINT_ORBITALS     20
$end                                           

--------------------------------------------------------------
 ----------------------------------------------------------------
             Standard Nuclear Orientation (Angstroms)
    I     Atom           X                Y                Z
 ----------------------------------------------------------------
    1      O       0.0000000000     0.0000000000     0.0000000000
    2      H       0.0000000000     0.0000000000     0.9970000000
    3      H       0.9417147896     0.0000000000    -0.3273870110
 ----------------------------------------------------------------
 Nuclear Repulsion Energy =           8.81794733 hartrees
 There are        5 alpha and        4 beta electrons
 Requested basis set is def2-TZVP
 There are 19 shells and 43 basis functions

 Total QAlloc Memory Limit  15000 MB
 Mega-Array Size      2933 MB
 MEM_STATIC part      3000 MB


                       Distance Matrix (Angstroms)
             O (  1)   H (  2)
   H (  2)  0.997000
   H (  3)  0.997000  1.625062
 
 A cutoff of  1.0D-12 yielded    190 shell pairs
 There are      1002 function pairs (      1266 Cartesian)
 Smallest overlap matrix eigenvalue = 9.85E-03

 Scale SEOQF with 1.000000e+00/1.000000e+00/1.000000e+00

 Standard Electronic Orientation quadrupole field applied
 Nucleus-field energy     =    -0.0000000009 hartrees
 Guess from superposition of atomic densities
 Warning:  Energy on first SCF cycle will be non-variational
 SAD guess density has 10.000000 electrons

 -----------------------------------------------------------------------
  General SCF calculation program by
  Eric Jon Sundstrom, Paul Horn, Yuezhi Mao, Dmitri Zuev, Alec White,
  David Stuck, Shaama M.S., Shane Yost, Joonho Lee, David Small,
  Daniel Levine, Susi Lehtola, Hugh Burton, Evgeny Epifanovsky,
  Bang C. Huynh
 -----------------------------------------------------------------------
 Hartree-Fock
 Orthonormalizing orbitals
 A restricted open-shell SCF calculation will be
 performed using GDM
 SCF converges when RMS gradient is below 1.0e-08
 ---------------------------------------
  Cycle       Energy        RMS Gradient
 ---------------------------------------
    1     -74.2885158654      6.78e-01   Descent step
    2     -74.5879762059      5.05e-01   Descent step
    3     -74.7749713421      3.49e-01   Descent step
    4     -74.9870495954      9.51e-01   Descent step
    5     -75.3431392786      5.15e-01   Descent step
    6     -75.4875103875      2.91e-01   Dog-leg BFGS step
    7     -75.5615026977      1.22e-01   Normal BFGS step
    8     -75.5804573404      1.93e-02   Normal BFGS step
    9     -75.5809683254      5.03e-03   Normal BFGS step
   10     -75.5809858473      5.81e-03   Normal BFGS step
   11     -75.5810237702      4.74e-04   Normal BFGS step
   12     -75.5810245315      2.76e-04   Normal BFGS step
   13     -75.5810246256      5.15e-05   Normal BFGS step
   14     -75.5810246313      9.47e-06   Normal BFGS step
   15     -75.5810246316      2.87e-06   Normal BFGS step
   16     -75.5810246316      2.26e-06   Normal BFGS step
   17     -75.5810246316      3.83e-07   Normal BFGS step
   18     -75.5810246316      1.19e-07   Normal BFGS step
   19     -75.5810246316      1.18e-08   Normal BFGS step
   20     -75.5810246316      2.00e-09  Convergence criterion met
The disked orbital energies are calculated using alpha and beta Focks
 ---------------------------------------
 Alpha HF Exchange    Energy =  -4.64193359308512
 Beta HF Exchange     Energy =  -3.97326994765904
 Nuclear Attraction   Energy =   0.00000000000000
 One-Electron (alpha) Energy = -62.45798234750630
 One-Electron (beta)  Energy = -55.14368281633937
 Total Coulomb        Energy =  41.81789674776083
 Final Alpha MO Eigenvalues
            1           2           3           4           5           6
    1 -21.1010263  -1.8422982  -1.1866051  -1.0071423  -1.1742971  -0.1632813
            7           8           9          10          11          12
    1  -0.0878182   0.1696166   0.2047489   0.2233534   0.2418978   0.3981198
           13          14          15          16          17          18
    1   0.4206804   1.0006397   0.9843967   1.1037079   1.3750993   1.4678141
           19          20          21          22          23          24
    1   1.5597825   1.8667731   1.8861505   1.9599115   2.1620537   2.2590355
           25          26          27          28          29          30
    1   2.4336073   2.4530009   2.5487834   2.6246710   3.4805570   3.8370222
           31          32          33          34          35          36
    1   5.0291621   5.0992645   5.3231578   5.3390261   5.4227537   5.8507010
           37          38          39          40          41          42
    1   6.1570223   6.2618482   6.3277075   6.3859943   6.8494622   6.9108960
           43
    1  44.2986624
 Final Beta MO Eigenvalues
            1           2           3           4           5           6
    1 -21.0627425  -1.7165214  -1.1460461  -0.9595998  -0.3412940  -0.1489722
            7           8           9          10          11          12
    1  -0.0742020   0.1998981   0.2267505   0.2843054   0.2514510   0.4111124
           13          14          15          16          17          18
    1   0.4335333   1.0116168   1.0596725   1.1661622   1.4198263   1.4848710
           19          20          21          22          23          24
    1   1.5810307   1.8902890   1.9167400   1.9757494   2.1848618   2.3089084
           25          26          27          28          29          30
    1   2.4533921   2.5119931   2.5671907   2.7041917   3.5084858   3.8535036
           31          32          33          34          35          36
    1   5.0830904   5.1549399   5.3535371   5.3547075   5.4597181   5.8920099
           37          38          39          40          41          42
    1   6.1735474   6.3457462   6.4308908   6.4107901   6.8883593   6.9768497
           43
    1  44.3243006
 SCF time:   CPU 2.41s  wall 6.00s 
<S^2> =          0.750000000
 SCF   energy in the final basis set =      -75.5810246316
 Total energy in the final basis set =      -75.5810246316
  
     ##========================================##
     ||                                        ||
     ||              R A S M A N 2             ||
     ||________________________________________||
     ||                                        ||
     ||  Author:                               ||
     ||                                        ||
     ||        David Casanova (2010)           ||
     ||                                        ||
     ##========================================##
  
Setting single-point xc-functionals (if necessary)

  ***************************************************
  *  RAS-CI Dimensions:                             *
  *                                                 *
  *  Active Elec.:   5 ( 3, 2)   Active Orb.:   5   *
  *  Doubly Occ. :   2           Doubly Vir.:  36   *
  *  Frozen Occ. :   0           Frozen Vir.:   0   *
  *                                                 *
  *  Total CI configurations:      5800             * 
  *    Active configurations:       100             * 
  *      Hole configurations:       300             * 
  *  Particle configurations:      5400             * 
  *                                                 *
  *   Requested states:       20                    *
  *  Spin multiplicity: Any multiplicity            *
  *                                                 *
  ***************************************************
-----------------------------------------
    Memory requirements of RASCI

 Each CI-vector requires      0.04 MiB 
 Max. subspace vectors           2000      

 Reduced Lists                0.00 MiB 
 Excitation Lists             0.00 MiB 
 Excitation Lists Sign        0.00 MiB 
 CI-space (Max)             119.92 MiB 
 Integrals                    0.83 MiB 
 Memory required (Max)      119.92 MiB 
 Memory available          2861.02 MiB 

    Disk requirements of RASCI

 Fock matrix                  0.03 MiB 
 2-electron integrals         1.10 MiB 
 CI-space                   177.00 MiB 
 Disk required              178.13 MiB 
-----------------------------------------
  
RAS1 HF-like energy:            -63.3055485110
 Computing integrals
 Computing J and K matrices
 Computing addressing
 Making amplitude guesses
 
Direct CI diagonalization
 ---------------------------------------------------
 Iter    Rts Conv    Rts Left    Ttl Dev     Max Dev
 ---------------------------------------------------
   1         0          20      0.109637    0.006337
   2         0          20      0.053035    0.003940
   3         0          20      0.037903    0.002840
   4         0          20      0.041119    0.003420
   5         0          20      0.024856    0.002027
   6         0          20      0.017223    0.003572
   7         0          20      0.022113    0.010738
   8         0          20      0.010924    0.004881
   9         0          20      0.007999    0.003800
  10         0          20      0.011061    0.004058
  11         0          20      0.005833    0.002105
  12         1          19      0.003566    0.001163
  13         2          18      0.003187    0.001114
  14         2          18      0.002803    0.001193
  15         2          18      0.002730    0.001282
  16         3          17      0.003809    0.002259
  17         4          16      0.002609    0.001598
  18        11           9      0.001427    0.000882
  19        13           7      0.001100    0.000695
  20        13           7      0.000824    0.000520
  21        14           6      0.000436    0.000277
  22        15           5      0.000243    0.000152
  23        16           4      0.000177    0.000109
  24        17           3      0.000109    0.000066
  25        17           3      0.000057    0.000031
  26        17           3      0.000038    0.000019
  27        17           3      0.000028    0.000012
  28        18           2      0.000018    0.000006
  29        18           2      0.000015    0.000004
  30        18           2      0.000015    0.000004
  31        19           1      0.000013    0.000002
  32        19           1      0.000011    0.000001
  33        20           0      0.000011    0.000001    Roots Converged
 ---------------------------------------------------
   
**************************************************
 RAS-CI total energy for state   1:    -75.681957806219
  Excitation energy (eV) =  0.000000000000
  State symmetry: A1  (C1       )
  <S^2>      :  0.7500
  Dipole Moment:    0.9332 X    -0.0000 Y     0.6636 Z
 NATURAL OCCUPATION NUMBERS (higher than 1.0E-05)
            1           2           3           4           5           6
    1   1.9999998   1.9989284   1.9911286   1.9863574   0.9994698   0.0110592
            7           8           9          10          11          12
    1   0.0057106   0.0018481   0.0017889   0.0013687   0.0007799   0.0003321
           13          14          15          16          17          18
    1   0.0002851   0.0002829   0.0002322   0.0001028   0.0000887   0.0000592
           19          20          21          22          23          24
    1   0.0000516   0.0000380   0.0000219   0.0000143   0.0000135   0.0000124
           25
    1   0.0000122
Natural Orbitals stored in FCHK

  Amplitudes : 
  
 | HOLE  | ALPHA | BETA  | PART  |    AMPLITUDE 
--------------------------------------------------
 |       | 11100 | 10100 |       |     9.8872653163086E-01
--------------------------------------------------
*** Contributions RASCI wfn    Active:  98.20
                                 Hole:   0.12
                                 Part:   1.68

      Mulliken population analysis 
 ---------------------------------------------------
   Atom    Charge (a.u.)   Spin (a.u.)  
 ---------------------------------------------------
   1  O    0.053769        1.047363 
   2  H    0.473115       -0.023682 
   3  H    0.473115       -0.023682 
 ---------------------------------------------------
   Sum:    1.000000        1.000000 
 ---------------------------------------------------
 
  
 NATURAL OCCUPATION NUMBERS (higher than 1.0E-05)
            1           2           3           4           5           6
    1   1.9999998   1.9989284   1.9911286   1.9863574   0.9994698   0.0110592
            7           8           9          10          11          12
    1   0.0057106   0.0018481   0.0017889   0.0013687   0.0007799   0.0003321
           13          14          15          16          17          18
    1   0.0002851   0.0002829   0.0002322   0.0001028   0.0000887   0.0000592
           19          20          21          22          23          24
    1   0.0000516   0.0000380   0.0000219   0.0000143   0.0000135   0.0000124
           25
    1   0.0000122
  
*** Unpaired Electrons
 Yamaguchi Nd:         1.09
 Head-Gordon Nu:       1.05
 Head-Gordon Nu_nl:    1.00
  
**************************************************
 RAS-CI total energy for state   2:    -75.607130357527
  Excitation energy (eV) =  2.036158475409
  State symmetry: A1  (C1       )
  <S^2>      :  0.7500
  Dipole Moment:    1.0292 X     0.0000 Y     0.7318 Z
  Trans. Moment:   -0.0000 X    -0.1082 Y     0.0000 Z
  Strength   :  0.000584
  Natural transition orbitals ( 1 -> 2 ):
   e-/hole pair  1 alpha:  ampl =  0.027773 (  0.1%)   [5 : 6]
   e-/hole pair  2 alpha:  ampl =  0.023227 (  0.1%)   [4 : 7]
   e-/hole pair  1 beta :  ampl =  0.992298 ( 98.5%)   [5 : 6]
   e-/hole pair  2 beta :  ampl =  0.006632 (  0.0%)   [4 : 7]
   Sum of square amplitudes: 0.99

 NATURAL OCCUPATION NUMBERS (higher than 1.0E-05)
            1           2           3           4           5           6
    1   1.9999998   1.9990749   1.9941617   1.9863851   0.9994292   0.0098197
            7           8           9          10          11          12
    1   0.0033375   0.0030361   0.0015383   0.0009960   0.0006485   0.0003858
           13          14          15          16          17          18
    1   0.0003322   0.0002633   0.0001830   0.0001129   0.0000841   0.0000654
           19          20          21          22          23          24
    1   0.0000335   0.0000280   0.0000273   0.0000171   0.0000138   0.0000107
           25
    1   0.0000103
Natural Orbitals stored in FCHK

  Amplitudes : 
  
 | HOLE  | ALPHA | BETA  | PART  |    AMPLITUDE 
--------------------------------------------------
 |       | 11100 | 11000 |       |     9.9349279201262E-01
--------------------------------------------------
*** Contributions RASCI wfn    Active:  98.98
                                 Hole:   0.10
                                 Part:   0.92

      Mulliken population analysis 
 ---------------------------------------------------
   Atom    Charge (a.u.)   Spin (a.u.)  
 ---------------------------------------------------
   1  O   -0.011104        0.950370 
   2  H    0.505552        0.024815 
   3  H    0.505552        0.024815 
 ---------------------------------------------------
   Sum:    1.000000        1.000000 
 ---------------------------------------------------
 
  
 NATURAL OCCUPATION NUMBERS (higher than 1.0E-05)
            1           2           3           4           5           6
    1   1.9999998   1.9990749   1.9941617   1.9863851   0.9994292   0.0098197
            7           8           9          10          11          12
    1   0.0033375   0.0030361   0.0015383   0.0009960   0.0006485   0.0003858
           13          14          15          16          17          18
    1   0.0003322   0.0002633   0.0001830   0.0001129   0.0000841   0.0000654
           19          20          21          22          23          24
    1   0.0000335   0.0000280   0.0000273   0.0000171   0.0000138   0.0000107
           25
    1   0.0000103
  
*** Unpaired Electrons
 Yamaguchi Nd:         1.08
 Head-Gordon Nu:       1.04
 Head-Gordon Nu_nl:    1.00
  
**************************************************
 RAS-CI total energy for state   3:    -75.440296844267
  Excitation energy (eV) =  6.575929347546
  State symmetry: A1  (C1       )
  <S^2>      :  0.7500
  Dipole Moment:    0.7872 X    -0.0000 Y     0.5597 Z
  Trans. Moment:    0.0000 X    -0.0000 Y     0.0000 Z
  Strength   :  0.000000
  Natural transition orbitals ( 1 -> 3 ):
   e-/hole pair  1 alpha:  ampl =  0.044896 (  0.2%)   [5 : 6]
   e-/hole pair  2 alpha:  ampl =  0.027011 (  0.1%)   [4 : 7]
   e-/hole pair  1 beta :  ampl =  0.988618 ( 97.7%)   [5 : 6]
   e-/hole pair  2 beta :  ampl =  0.005490 (  0.0%)   [4 : 7]
   Sum of square amplitudes: 0.98

 NATURAL OCCUPATION NUMBERS (higher than 1.0E-05)
            1           2           3           4           5           6
    1   1.9999999   1.9987902   1.9921249   1.9904383   1.0001521   0.0073463
            7           8           9          10          11          12
    1   0.0050407   0.0018017   0.0011415   0.0009433   0.0008074   0.0003439
           13          14          15          16          17          18
    1   0.0002339   0.0001809   0.0001757   0.0001224   0.0001142   0.0000755
           19          20          21          22          23          24
    1   0.0000449   0.0000326   0.0000272   0.0000155   0.0000146   0.0000133
Natural Orbitals stored in FCHK

  Amplitudes : 
  
 | HOLE  | ALPHA | BETA  | PART  |    AMPLITUDE 
--------------------------------------------------
 |       | 11100 | 01100 |       |     9.8523886086390E-01
--------------------------------------------------
*** Contributions RASCI wfn    Active:  97.75
                                 Hole:   0.12
                                 Part:   2.13

      Mulliken population analysis 
 ---------------------------------------------------
   Atom    Charge (a.u.)   Spin (a.u.)  
 ---------------------------------------------------
   1  O   -0.152206        0.660737 
   2  H    0.576103        0.169632 
   3  H    0.576103        0.169632 
 ---------------------------------------------------
   Sum:    1.000000        1.000000 
 ---------------------------------------------------
 
  
 NATURAL OCCUPATION NUMBERS (higher than 1.0E-05)
            1           2           3           4           5           6
    1   1.9999999   1.9987902   1.9921249   1.9904383   1.0001521   0.0073463
            7           8           9          10          11          12
    1   0.0050407   0.0018017   0.0011415   0.0009433   0.0008074   0.0003439
           13          14          15          16          17          18
    1   0.0002339   0.0001809   0.0001757   0.0001224   0.0001142   0.0000755
           19          20          21          22          23          24
    1   0.0000449   0.0000326   0.0000272   0.0000155   0.0000146   0.0000133
  
*** Unpaired Electrons
 Yamaguchi Nd:         1.07
 Head-Gordon Nu:       1.04
 Head-Gordon Nu_nl:    1.00
  
**************************************************
 RAS-CI total energy for state   4:    -75.247990707900
  Excitation energy (eV) = 11.808845560551
  State symmetry: A1  (C1       )
  <S^2>      :  3.7500
  Dipole Moment:    1.8478 X    -0.0000 Y     1.3139 Z
  Trans. Moment:    0.0000 X     0.0000 Y     0.0000 Z
  Strength   :  0.000000
  Natural transition orbitals ( 1 -> 4 ):
   e-/hole pair  1 alpha:  ampl =  0.560387 ( 31.4%)   [5 : 6]
   e-/hole pair  2 alpha:  ampl =  0.055862 (  0.3%)   [4 : 7]
   e-/hole pair  1 beta :  ampl =  0.560387 ( 31.4%)   [5 : 6]
   e-/hole pair  2 beta :  ampl =  0.055862 (  0.3%)   [4 : 7]
   Sum of square amplitudes: 0.64

 NATURAL OCCUPATION NUMBERS (higher than 1.0E-05)
            1           2           3           4           5           6
    1   1.9999999   1.9994756   1.9800799   1.0092562   0.9983079   0.9858328
            7           8           9          10          11          12
    1   0.0179271   0.0033792   0.0015280   0.0013918   0.0008203   0.0004496
           13          14          15          16          17          18
    1   0.0004132   0.0002308   0.0002008   0.0001754   0.0001184   0.0000819
           19          20          21          22          23          24
    1   0.0000796   0.0000564   0.0000544   0.0000456   0.0000258   0.0000235
           25
    1   0.0000142
Natural Orbitals stored in FCHK

  Amplitudes : 
  
 | HOLE  | ALPHA | BETA  | PART  |    AMPLITUDE 
--------------------------------------------------
 |       | 11100 | 10010 |       |     5.4029568739495E-01
 |       | 11010 | 10100 |       |    -5.4029568739501E-01
 |       | 10110 | 11000 |       |     5.4029568739502E-01
 |       | 10100 | 11000 |  10   |    -1.1499023655219E-01
 |       | 11000 | 10100 |  10   |     1.1499023655219E-01
 |       | 11100 | 10000 |  10   |    -1.1499023655218E-01
--------------------------------------------------
*** Contributions RASCI wfn    Active:  89.06
                                 Hole:   0.17
                                 Part:  10.77

      Mulliken population analysis 
 ---------------------------------------------------
   Atom    Charge (a.u.)   Spin (a.u.)  
 ---------------------------------------------------
   1  O    0.822933        0.613443 
   2  H    0.088534        0.193279 
   3  H    0.088534        0.193279 
 ---------------------------------------------------
   Sum:    1.000000        1.000000 
 ---------------------------------------------------
 
  
 NATURAL OCCUPATION NUMBERS (higher than 1.0E-05)
            1           2           3           4           5           6
    1   1.9999999   1.9994756   1.9800799   1.0092562   0.9983079   0.9858328
            7           8           9          10          11          12
    1   0.0179271   0.0033792   0.0015280   0.0013918   0.0008203   0.0004496
           13          14          15          16          17          18
    1   0.0004132   0.0002308   0.0002008   0.0001754   0.0001184   0.0000819
           19          20          21          22          23          24
    1   0.0000796   0.0000564   0.0000544   0.0000456   0.0000258   0.0000235
           25
    1   0.0000142
  
*** Unpaired Electrons
 Yamaguchi Nd:         3.09
 Head-Gordon Nu:       3.02
 Head-Gordon Nu_nl:    3.00
  
**************************************************
 RAS-CI total energy for state   5:    -75.201486826092
  Excitation energy (eV) = 13.074280567864
  State symmetry: A1  (C1       )
  <S^2>      :  0.7500
  Dipole Moment:    1.8480 X    -0.0000 Y     1.3140 Z
  Trans. Moment:   -0.3603 X     0.0000 Y    -0.2562 Z
  Strength   :  0.062619
  Natural transition orbitals ( 1 -> 5 ):
   e-/hole pair  1 alpha:  ampl =  0.351597 ( 12.4%)   [5 : 6]
   e-/hole pair  2 alpha:  ampl =  0.064660 (  0.4%)   [4 : 7]
   e-/hole pair  1 beta :  ampl =  0.787158 ( 62.0%)   [5 : 6]
   e-/hole pair  2 beta :  ampl =  0.037301 (  0.1%)   [4 : 7]
   Sum of square amplitudes: 0.75

 NATURAL OCCUPATION NUMBERS (higher than 1.0E-05)
            1           2           3           4           5           6
    1   1.9999999   1.9987794   1.9787165   1.0845450   0.9976284   0.9099490
            7           8           9          10          11          12
    1   0.0202902   0.0025505   0.0023252   0.0016717   0.0014136   0.0004521
           13          14          15          16          17          18
    1   0.0003184   0.0002566   0.0001724   0.0001688   0.0001621   0.0001308
           19          20          21          22          23          24
    1   0.0000981   0.0000885   0.0000784   0.0000574   0.0000474   0.0000433
           25          26
    1   0.0000128   0.0000105
Natural Orbitals stored in FCHK

  Amplitudes : 
  
 | HOLE  | ALPHA | BETA  | PART  |    AMPLITUDE 
--------------------------------------------------
 |       | 11100 | 10010 |       |     7.7645032171187E-01
 |       | 11010 | 10100 |       |     3.4843802845687E-01
 |       | 10110 | 11000 |       |    -4.2801229325491E-01
--------------------------------------------------
*** Contributions RASCI wfn    Active:  92.66
                                 Hole:   0.40
                                 Part:   6.94

      Mulliken population analysis 
 ---------------------------------------------------
   Atom    Charge (a.u.)   Spin (a.u.)  
 ---------------------------------------------------
   1  O    0.865970        1.376714 
   2  H    0.067015       -0.188357 
   3  H    0.067015       -0.188357 
 ---------------------------------------------------
   Sum:    1.000000        1.000000 
 ---------------------------------------------------
 
  
 NATURAL OCCUPATION NUMBERS (higher than 1.0E-05)
            1           2           3           4           5           6
    1   1.9999999   1.9987794   1.9787165   1.0845450   0.9976284   0.9099490
            7           8           9          10          11          12
    1   0.0202902   0.0025505   0.0023252   0.0016717   0.0014136   0.0004521
           13          14          15          16          17          18
    1   0.0003184   0.0002566   0.0001724   0.0001688   0.0001621   0.0001308
           19          20          21          22          23          24
    1   0.0000981   0.0000885   0.0000784   0.0000574   0.0000474   0.0000433
           25          26
    1   0.0000128   0.0000105
  
*** Unpaired Electrons
 Yamaguchi Nd:         3.09
 Head-Gordon Nu:       2.88
 Head-Gordon Nu_nl:    2.97
  
**************************************************
 RAS-CI total energy for state   6:    -75.183888050999
  Excitation energy (eV) = 13.553167603150
  State symmetry: A1  (C1       )
  <S^2>      :  0.7500
  Dipole Moment:    1.7405 X    -0.0000 Y     1.2376 Z
  Trans. Moment:    0.0000 X     0.2169 Y    -0.0000 Z
  Strength   :  0.015628
  Natural transition orbitals ( 1 -> 6 ):
   e-/hole pair  1 alpha:  ampl =  0.929771 ( 86.4%)   [5 : 6]
   e-/hole pair  2 alpha:  ampl =  0.009753 (  0.0%)   [4 : 7]
   e-/hole pair  1 beta :  ampl =  0.113511 (  1.3%)   [5 : 6]
   e-/hole pair  2 beta :  ampl =  0.018571 (  0.0%)   [4 : 7]
   Sum of square amplitudes: 0.88

 NATURAL OCCUPATION NUMBERS (higher than 1.0E-05)
            1           2           3           4           5           6
    1   1.9999999   1.9864582   1.9794974   1.8613644   0.9803347   0.1700775
            7           8           9          10          11          12
    1   0.0125388   0.0033164   0.0016089   0.0011153   0.0007994   0.0007477
           13          14          15          16          17          18
    1   0.0004582   0.0004320   0.0003867   0.0002310   0.0001806   0.0001050
           19          20          21          22          23          24
    1   0.0000913   0.0000870   0.0000391   0.0000342   0.0000219   0.0000141
           25          26
    1   0.0000135   0.0000101
Natural Orbitals stored in FCHK

  Amplitudes : 
  
 | HOLE  | ALPHA | BETA  | PART  |    AMPLITUDE 
--------------------------------------------------
 |       | 11010 | 11000 |       |    -2.4143008317411E-01
 |       | 10110 | 10100 |       |     9.0251818786774E-01
 |   2   | 11100 | 11100 |       |    -1.1430267831131E-01
 |       | 10100 | 10100 |  10   |    -1.9147294632817E-01
 |       | 10100 | 10100 |  13   |    -1.3675084253838E-01
--------------------------------------------------
*** Contributions RASCI wfn    Active:  88.80
                                 Hole:   1.48
                                 Part:   9.72

      Mulliken population analysis 
 ---------------------------------------------------
   Atom    Charge (a.u.)   Spin (a.u.)  
 ---------------------------------------------------
   1  O    0.831515       -0.132563 
   2  H    0.084243        0.566282 
   3  H    0.084243        0.566282 
 ---------------------------------------------------
   Sum:    1.000000        1.000000 
 ---------------------------------------------------
 
  
 NATURAL OCCUPATION NUMBERS (higher than 1.0E-05)
            1           2           3           4           5           6
    1   1.9999999   1.9864582   1.9794974   1.8613644   0.9803347   0.1700775
            7           8           9          10          11          12
    1   0.0125388   0.0033164   0.0016089   0.0011153   0.0007994   0.0007477
           13          14          15          16          17          18
    1   0.0004582   0.0004320   0.0003867   0.0002310   0.0001806   0.0001050
           19          20          21          22          23          24
    1   0.0000913   0.0000870   0.0000391   0.0000342   0.0000219   0.0000141
           25          26
    1   0.0000135   0.0000101
  
*** Unpaired Electrons
 Yamaguchi Nd:         1.68
 Head-Gordon Nu:       1.35
 Head-Gordon Nu_nl:    1.17
  
**************************************************
 RAS-CI total energy for state   7:    -75.178986400377
  Excitation energy (eV) = 13.686548302796
  State symmetry: A1  (C1       )
  <S^2>      :  3.7500
  Dipole Moment:    1.8253 X    -0.0000 Y     1.2979 Z
  Trans. Moment:   -0.0000 X     0.0000 Y     0.0000 Z
  Strength   :  0.000000
  Natural transition orbitals ( 1 -> 7 ):
   e-/hole pair  1 alpha:  ampl =  0.543559 ( 29.5%)   [5 : 6]
   e-/hole pair  2 alpha:  ampl =  0.155654 (  2.4%)   [4 : 7]
   e-/hole pair  1 beta :  ampl =  0.543559 ( 29.5%)   [5 : 6]
   e-/hole pair  2 beta :  ampl =  0.155654 (  2.4%)   [4 : 7]
   Sum of square amplitudes: 0.64

 NATURAL OCCUPATION NUMBERS (higher than 1.0E-05)
            1           2           3           4           5           6
    1   1.9999996   1.9991454   1.9174041   1.0717848   0.9985361   0.9207435
            7           8           9          10          11          12
    1   0.0816467   0.0044218   0.0021113   0.0014574   0.0006698   0.0006664
           13          14          15          16          17          18
    1   0.0002918   0.0002803   0.0002186   0.0001429   0.0000770   0.0000585
           19          20          21          22          23          24
    1   0.0000527   0.0000526   0.0000480   0.0000403   0.0000365   0.0000351
           25          26          27          28
    1   0.0000239   0.0000136   0.0000130   0.0000101
Natural Orbitals stored in FCHK

  Amplitudes : 
  
 | HOLE  | ALPHA | BETA  | PART  |    AMPLITUDE 
--------------------------------------------------
 |       | 11100 | 10001 |       |     5.1030862807458E-01
 |       | 11100 | 00110 |       |     1.3995866020188E-01
 |       | 11001 | 10100 |       |    -5.1030862807452E-01
 |       | 10110 | 01100 |       |    -1.3995866020187E-01
 |       | 10101 | 11000 |       |     5.1030862807453E-01
 |       | 01110 | 10100 |       |     1.3995866020187E-01
 |       | 10100 | 11000 |   8   |    -1.4231966061231E-01
 |       | 10100 | 11000 |  12   |     1.2958388834920E-01
 |       | 11000 | 10100 |   8   |     1.4231966061230E-01
 |       | 11000 | 10100 |  12   |    -1.2958388834919E-01
 |       | 11100 | 10000 |   8   |    -1.4231966061232E-01
 |       | 11100 | 10000 |  12   |     1.2958388834921E-01
--------------------------------------------------
*** Contributions RASCI wfn    Active:  84.37
                                 Hole:   0.26
                                 Part:  15.37

      Mulliken population analysis 
 ---------------------------------------------------
   Atom    Charge (a.u.)   Spin (a.u.)  
 ---------------------------------------------------
   1  O    0.758398        0.644327 
   2  H    0.120801        0.177836 
   3  H    0.120801        0.177836 
 ---------------------------------------------------
   Sum:    1.000000        1.000000 
 ---------------------------------------------------
 
  
 NATURAL OCCUPATION NUMBERS (higher than 1.0E-05)
            1           2           3           4           5           6
    1   1.9999996   1.9991454   1.9174041   1.0717848   0.9985361   0.9207435
            7           8           9          10          11          12
    1   0.0816467   0.0044218   0.0021113   0.0014574   0.0006698   0.0006664
           13          14          15          16          17          18
    1   0.0002918   0.0002803   0.0002186   0.0001429   0.0000770   0.0000585
           19          20          21          22          23          24
    1   0.0000527   0.0000526   0.0000480   0.0000403   0.0000365   0.0000351
           25          26          27          28
    1   0.0000239   0.0000136   0.0000130   0.0000101
  
*** Unpaired Electrons
 Yamaguchi Nd:         3.33
 Head-Gordon Nu:       3.02
 Head-Gordon Nu_nl:    3.03
  
**************************************************
 RAS-CI total energy for state   8:    -75.137945010637
  Excitation energy (eV) = 14.803341338273
  State symmetry: A1  (C1       )
  <S^2>      :  0.7500
  Dipole Moment:    1.7935 X    -0.0000 Y     1.2753 Z
  Trans. Moment:   -0.2156 X     0.0000 Y    -0.1533 Z
  Strength   :  0.025390
  Natural transition orbitals ( 1 -> 8 ):
   e-/hole pair  1 alpha:  ampl =  0.700752 ( 49.1%)   [5 : 6]
   e-/hole pair  2 alpha:  ampl =  0.024218 (  0.1%)   [4 : 7]
   e-/hole pair  1 beta :  ampl =  0.095331 (  0.9%)   [5 : 6]
   e-/hole pair  2 beta :  ampl =  0.058598 (  0.3%)   [4 : 7]
   Sum of square amplitudes: 0.51

 NATURAL OCCUPATION NUMBERS (higher than 1.0E-05)
            1           2           3           4           5           6
    1   1.9999999   1.9977252   1.9710103   1.0289987   0.9982438   0.9656001
            7           8           9          10          11          12
    1   0.0272552   0.0034595   0.0019224   0.0017055   0.0013186   0.0005573
           13          14          15          16          17          18
    1   0.0004594   0.0004278   0.0002973   0.0002253   0.0001759   0.0001166
           19          20          21          22          23          24
    1   0.0001131   0.0001088   0.0000778   0.0000577   0.0000297   0.0000245
           25          26          27
    1   0.0000224   0.0000189   0.0000120
Natural Orbitals stored in FCHK

  Amplitudes : 
  
 | HOLE  | ALPHA | BETA  | PART  |    AMPLITUDE 
--------------------------------------------------
 |       | 11010 | 10100 |       |     6.8372024372053E-01
 |       | 10110 | 11000 |       |     6.3738461662885E-01
 |       | 10100 | 11000 |  10   |    -1.3203907716734E-01
 |       | 11000 | 10100 |  10   |    -1.1558837417788E-01
--------------------------------------------------
*** Contributions RASCI wfn    Active:  89.93
                                 Hole:   0.85
                                 Part:   9.21

      Mulliken population analysis 
 ---------------------------------------------------
   Atom    Charge (a.u.)   Spin (a.u.)  
 ---------------------------------------------------
   1  O    0.819129       -0.132405 
   2  H    0.090435        0.566203 
   3  H    0.090435        0.566203 
 ---------------------------------------------------
   Sum:    1.000000        1.000000 
 ---------------------------------------------------
 
  
 NATURAL OCCUPATION NUMBERS (higher than 1.0E-05)
            1           2           3           4           5           6
    1   1.9999999   1.9977252   1.9710103   1.0289987   0.9982438   0.9656001
            7           8           9          10          11          12
    1   0.0272552   0.0034595   0.0019224   0.0017055   0.0013186   0.0005573
           13          14          15          16          17          18
    1   0.0004594   0.0004278   0.0002973   0.0002253   0.0001759   0.0001166
           19          20          21          22          23          24
    1   0.0001131   0.0001088   0.0000778   0.0000577   0.0000297   0.0000245
           25          26          27
    1   0.0000224   0.0000189   0.0000120
  
*** Unpaired Electrons
 Yamaguchi Nd:         3.14
 Head-Gordon Nu:       3.00
 Head-Gordon Nu_nl:    3.00
  
**************************************************
 RAS-CI total energy for state   9:    -75.134203330487
  Excitation energy (eV) = 14.905157635395
  State symmetry: A1  (C1       )
  <S^2>      :  0.7500
  Dipole Moment:    1.8601 X    -0.0000 Y     1.3226 Z
  Trans. Moment:   -0.2386 X     0.0000 Y     0.3355 Z
  Strength   :  0.061886
  Natural transition orbitals ( 1 -> 9 ):
   e-/hole pair  1 alpha:  ampl =  0.274277 (  7.5%)   [5 : 6]
   e-/hole pair  2 alpha:  ampl =  0.075186 (  0.6%)   [4 : 7]
   e-/hole pair  1 beta :  ampl =  0.777293 ( 60.4%)   [5 : 6]
   e-/hole pair  2 beta :  ampl =  0.025838 (  0.1%)   [4 : 7]
   Sum of square amplitudes: 0.69

 NATURAL OCCUPATION NUMBERS (higher than 1.0E-05)
            1           2           3           4           5           6
    1   1.9999998   1.9985949   1.9789528   1.0119169   0.9980048   0.9791138
            7           8           9          10          11          12
    1   0.0216308   0.0046921   0.0021866   0.0011931   0.0009766   0.0008535
           13          14          15          16          17          18
    1   0.0007427   0.0002542   0.0002470   0.0001168   0.0000886   0.0000840
           19          20          21          22          23          24
    1   0.0000664   0.0000643   0.0000567   0.0000364   0.0000354   0.0000205
           25          26          27
    1   0.0000163   0.0000161   0.0000147
Natural Orbitals stored in FCHK

  Amplitudes : 
  
 | HOLE  | ALPHA | BETA  | PART  |    AMPLITUDE 
--------------------------------------------------
 |       | 11100 | 10001 |       |     7.5363217165543E-01
 |       | 11001 | 10100 |       |     2.7234435556217E-01
 |       | 10101 | 11000 |       |    -4.8128781609333E-01
 |       | 10100 | 11000 |   8   |     1.1467938815414E-01
 |       | 10100 | 11000 |  12   |    -1.0159750272316E-01
 |       | 11100 | 10000 |   8   |    -1.3240908102275E-01
 |       | 11100 | 10000 |  12   |     1.4516978485158E-01
--------------------------------------------------
*** Contributions RASCI wfn    Active:  89.53
                                 Hole:   0.32
                                 Part:  10.15

      Mulliken population analysis 
 ---------------------------------------------------
   Atom    Charge (a.u.)   Spin (a.u.)  
 ---------------------------------------------------
   1  O    0.744178        1.281891 
   2  H    0.127911       -0.140945 
   3  H    0.127911       -0.140945 
 ---------------------------------------------------
   Sum:    1.000000        1.000000 
 ---------------------------------------------------
 
  
 NATURAL OCCUPATION NUMBERS (higher than 1.0E-05)
            1           2           3           4           5           6
    1   1.9999998   1.9985949   1.9789528   1.0119169   0.9980048   0.9791138
            7           8           9          10          11          12
    1   0.0216308   0.0046921   0.0021866   0.0011931   0.0009766   0.0008535
           13          14          15          16          17          18
    1   0.0007427   0.0002542   0.0002470   0.0001168   0.0000886   0.0000840
           19          20          21          22          23          24
    1   0.0000664   0.0000643   0.0000567   0.0000364   0.0000354   0.0000205
           25          26          27
    1   0.0000163   0.0000161   0.0000147
  
*** Unpaired Electrons
 Yamaguchi Nd:         3.11
 Head-Gordon Nu:       3.02
 Head-Gordon Nu_nl:    3.00
  
**************************************************
 RAS-CI total energy for state  10:    -75.106712102601
  Excitation energy (eV) = 15.653232006999
  State symmetry: A1  (C1       )
  <S^2>      :  3.7500
  Dipole Moment:    1.5857 X     0.0000 Y     1.1275 Z
  Trans. Moment:    0.0000 X    -0.0000 Y    -0.0000 Z
  Strength   :  0.000000
  Natural transition orbitals ( 1 -> 10 ):
   e-/hole pair  1 alpha:  ampl =  0.544721 ( 29.7%)   [5 : 6]
   e-/hole pair  2 alpha:  ampl =  0.155556 (  2.4%)   [4 : 7]
   e-/hole pair  1 beta :  ampl =  0.544721 ( 29.7%)   [5 : 6]
   e-/hole pair  2 beta :  ampl =  0.155556 (  2.4%)   [4 : 7]
   Sum of square amplitudes: 0.64

 NATURAL OCCUPATION NUMBERS (higher than 1.0E-05)
            1           2           3           4           5           6
    1   1.9999999   1.9989472   1.9158029   1.0766126   0.9988663   0.9171113
            7           8           9          10          11          12
    1   0.0836062   0.0028579   0.0012750   0.0012446   0.0011925   0.0005716
           13          14          15          16          17          18
    1   0.0004605   0.0003542   0.0002024   0.0001926   0.0001775   0.0001495
           19          20          21          22          23          24
    1   0.0001063   0.0001057   0.0000473   0.0000341   0.0000218   0.0000137
           25
    1   0.0000137
Natural Orbitals stored in FCHK

  Amplitudes : 
  
 | HOLE  | ALPHA | BETA  | PART  |    AMPLITUDE 
--------------------------------------------------
 |       | 11100 | 10001 |       |    -1.4905742032293E-01
 |       | 11100 | 00110 |       |     5.1813552464650E-01
 |       | 11001 | 10100 |       |     1.4905742032298E-01
 |       | 10110 | 01100 |       |    -5.1813552464652E-01
 |       | 10101 | 11000 |       |    -1.4905742032293E-01
 |       | 01110 | 10100 |       |     5.1813552464657E-01
 |       | 01100 | 10100 |  10   |    -1.3191292527092E-01
 |       | 10100 | 01100 |  10   |     1.3191292527091E-01
 |       | 11100 | 00100 |  10   |    -1.3191292527090E-01
--------------------------------------------------
*** Contributions RASCI wfn    Active:  87.70
                                 Hole:   0.55
                                 Part:  11.75

      Mulliken population analysis 
 ---------------------------------------------------
   Atom    Charge (a.u.)   Spin (a.u.)  
 ---------------------------------------------------
   1  O    0.685116        0.556886 
   2  H    0.157442        0.221557 
   3  H    0.157442        0.221557 
 ---------------------------------------------------
   Sum:    1.000000        1.000000 
 ---------------------------------------------------
 
  
 NATURAL OCCUPATION NUMBERS (higher than 1.0E-05)
            1           2           3           4           5           6
    1   1.9999999   1.9989472   1.9158029   1.0766126   0.9988663   0.9171113
            7           8           9          10          11          12
    1   0.0836062   0.0028579   0.0012750   0.0012446   0.0011925   0.0005716
           13          14          15          16          17          18
    1   0.0004605   0.0003542   0.0002024   0.0001926   0.0001775   0.0001495
           19          20          21          22          23          24
    1   0.0001063   0.0001057   0.0000473   0.0000341   0.0000218   0.0000137
           25
    1   0.0000137
  
*** Unpaired Electrons
 Yamaguchi Nd:         3.33
 Head-Gordon Nu:       3.02
 Head-Gordon Nu_nl:    3.03
  
**************************************************
 RAS-CI total energy for state  11:    -75.103518497539
  Excitation energy (eV) = 15.740134422206
  State symmetry: A1  (C1       )
  <S^2>      :  0.7500
  Dipole Moment:    1.7377 X    -0.0000 Y     1.2356 Z
  Trans. Moment:   -0.0000 X     0.0000 Y     0.0000 Z
  Strength   :  0.000000
  Natural transition orbitals ( 1 -> 11 ):
   e-/hole pair  1 alpha:  ampl =  0.928394 ( 86.2%)   [5 : 6]
   e-/hole pair  2 alpha:  ampl =  0.017078 (  0.0%)   [4 : 7]
   e-/hole pair  1 beta :  ampl =  0.044408 (  0.2%)   [5 : 6]
   e-/hole pair  2 beta :  ampl =  0.023860 (  0.1%)   [4 : 7]
   Sum of square amplitudes: 0.87

 NATURAL OCCUPATION NUMBERS (higher than 1.0E-05)
            1           2           3           4           5           6
    1   1.9999999   1.9994247   1.9825630   1.8275787   0.9902811   0.1778805
            7           8           9          10          11          12
    1   0.0115869   0.0037063   0.0019492   0.0015555   0.0008584   0.0007792
           13          14          15          16          17          18
    1   0.0005888   0.0002963   0.0002463   0.0002179   0.0001169   0.0001157
           19          20          21          22          23          24
    1   0.0000717   0.0000515   0.0000342   0.0000176   0.0000167   0.0000120
           25
    1   0.0000106
Natural Orbitals stored in FCHK

  Amplitudes : 
  
 | HOLE  | ALPHA | BETA  | PART  |    AMPLITUDE 
--------------------------------------------------
 |       | 11001 | 11000 |       |    -2.6601405088724E-01
 |       | 10101 | 10100 |       |     8.8784076085944E-01
 |       | 10100 | 10100 |   8   |    -2.0831097271018E-01
 |       | 10100 | 10100 |  12   |     2.1383496030601E-01
--------------------------------------------------
*** Contributions RASCI wfn    Active:  87.20
                                 Hole:   0.28
                                 Part:  12.52

      Mulliken population analysis 
 ---------------------------------------------------
   Atom    Charge (a.u.)   Spin (a.u.)  
 ---------------------------------------------------
   1  O    0.775114       -0.061457 
   2  H    0.112443        0.530728 
   3  H    0.112443        0.530728 
 ---------------------------------------------------
   Sum:    1.000000        1.000000 
 ---------------------------------------------------
 
  
 NATURAL OCCUPATION NUMBERS (higher than 1.0E-05)
            1           2           3           4           5           6
    1   1.9999999   1.9994247   1.9825630   1.8275787   0.9902811   0.1778805
            7           8           9          10          11          12
    1   0.0115869   0.0037063   0.0019492   0.0015555   0.0008584   0.0007792
           13          14          15          16          17          18
    1   0.0005888   0.0002963   0.0002463   0.0002179   0.0001169   0.0001157
           19          20          21          22          23          24
    1   0.0000717   0.0000515   0.0000342   0.0000176   0.0000167   0.0000120
           25
    1   0.0000106
  
*** Unpaired Electrons
 Yamaguchi Nd:         1.72
 Head-Gordon Nu:       1.38
 Head-Gordon Nu_nl:    1.21
  
**************************************************
 RAS-CI total energy for state  12:    -75.072741879098
  Excitation energy (eV) = 16.577608819358
  State symmetry: A1  (C1       )
  <S^2>      :  0.7500
  Dipole Moment:    1.7592 X    -0.0000 Y     1.2509 Z
  Trans. Moment:   -0.0185 X    -0.0000 Y     0.0260 Z
  Strength   :  0.000413
  Natural transition orbitals ( 1 -> 12 ):
   e-/hole pair  1 alpha:  ampl =  0.629851 ( 39.7%)   [5 : 6]
   e-/hole pair  2 alpha:  ampl =  0.024558 (  0.1%)   [4 : 7]
   e-/hole pair  1 beta :  ampl =  0.389048 ( 15.1%)   [5 : 6]
   e-/hole pair  2 beta :  ampl =  0.144300 (  2.1%)   [4 : 7]
   Sum of square amplitudes: 0.57

 NATURAL OCCUPATION NUMBERS (higher than 1.0E-05)
            1           2           3           4           5           6
    1   1.9999999   1.9975384   1.6914961   1.2973048   0.9991357   0.6934480
            7           8           9          10          11          12
    1   0.3058775   0.0064549   0.0023939   0.0014729   0.0011544   0.0009286
           13          14          15          16          17          18
    1   0.0006017   0.0004961   0.0003581   0.0003426   0.0003369   0.0001236
           19          20          21          22          23          24
    1   0.0001088   0.0000719   0.0000628   0.0000586   0.0000578   0.0000406
           25          26          27          28          29
    1   0.0000271   0.0000262   0.0000235   0.0000138   0.0000122
Natural Orbitals stored in FCHK

  Amplitudes : 
  
 | HOLE  | ALPHA | BETA  | PART  |    AMPLITUDE 
--------------------------------------------------
 |       | 11100 | 10001 |       |     1.4288589439252E-01
 |       | 11100 | 00110 |       |    -3.7307981614992E-01
 |       | 11001 | 10100 |       |     6.0478089080162E-01
 |       | 10110 | 01100 |       |    -3.5460201124414E-01
 |       | 10101 | 11000 |       |     4.6189499640910E-01
 |       | 10100 | 11000 |   8   |    -1.4111275248953E-01
 |       | 10100 | 11000 |  12   |     1.1689274710817E-01
 |       | 11000 | 10100 |   8   |    -1.2765446939513E-01
 |       | 11000 | 10100 |  12   |     1.3736098055811E-01
 |       | 10100 | 01100 |  10   |     1.0074398884896E-01
--------------------------------------------------
*** Contributions RASCI wfn    Active:  87.06
                                 Hole:   0.81
                                 Part:  12.13

      Mulliken population analysis 
 ---------------------------------------------------
   Atom    Charge (a.u.)   Spin (a.u.)  
 ---------------------------------------------------
   1  O    0.743252        0.280563 
   2  H    0.128374        0.359718 
   3  H    0.128374        0.359718 
 ---------------------------------------------------
   Sum:    1.000000        1.000000 
 ---------------------------------------------------
 
  
 NATURAL OCCUPATION NUMBERS (higher than 1.0E-05)
            1           2           3           4           5           6
    1   1.9999999   1.9975384   1.6914961   1.2973048   0.9991357   0.6934480
            7           8           9          10          11          12
    1   0.3058775   0.0064549   0.0023939   0.0014729   0.0011544   0.0009286
           13          14          15          16          17          18
    1   0.0006017   0.0004961   0.0003581   0.0003426   0.0003369   0.0001236
           19          20          21          22          23          24
    1   0.0001088   0.0000719   0.0000628   0.0000586   0.0000578   0.0000406
           25          26          27          28          29
    1   0.0000271   0.0000262   0.0000235   0.0000138   0.0000122
  
*** Unpaired Electrons
 Yamaguchi Nd:         3.89
 Head-Gordon Nu:       3.03
 Head-Gordon Nu_nl:    3.19
  
**************************************************
 RAS-CI total energy for state  13:    -75.044734920510
  Excitation energy (eV) = 17.339716937364
  State symmetry: A1  (C1       )
  <S^2>      :  3.7500
  Dipole Moment:    1.5274 X     0.0000 Y     1.0861 Z
  Trans. Moment:    0.0000 X    -0.0000 Y    -0.0000 Z
  Strength   :  0.000000
  Natural transition orbitals ( 1 -> 13 ):
   e-/hole pair  1 alpha:  ampl =  0.560374 ( 31.4%)   [5 : 6]
   e-/hole pair  2 alpha:  ampl =  0.089689 (  0.8%)   [4 : 7]
   e-/hole pair  1 beta :  ampl =  0.560374 ( 31.4%)   [5 : 6]
   e-/hole pair  2 beta :  ampl =  0.089689 (  0.8%)   [4 : 7]
   Sum of square amplitudes: 0.65

 NATURAL OCCUPATION NUMBERS (higher than 1.0E-05)
            1           2           3           4           5           6
    1   1.9999997   1.9950410   1.9681271   1.0278772   0.9989152   0.9676175
            7           8           9          10          11          12
    1   0.0295504   0.0045757   0.0031391   0.0013892   0.0011815   0.0006882
           13          14          15          16          17          18
    1   0.0005169   0.0003467   0.0003118   0.0002289   0.0001543   0.0000899
           19          20          21          22          23          24
    1   0.0000830   0.0000743   0.0000302   0.0000146   0.0000136   0.0000101
Natural Orbitals stored in FCHK

  Amplitudes : 
  
 | HOLE  | ALPHA | BETA  | PART  |    AMPLITUDE 
--------------------------------------------------
 |       | 11100 | 00101 |       |    -5.1775810897897E-01
 |       | 10101 | 01100 |       |     5.1775810897902E-01
 |       | 01101 | 10100 |       |    -5.1775810897898E-01
 |       | 01100 | 10100 |   8   |     1.5675510358785E-01
 |       | 01100 | 10100 |  12   |    -1.5113390789970E-01
 |       | 10100 | 01100 |   8   |    -1.5675510358785E-01
 |       | 10100 | 01100 |  12   |     1.5113390789972E-01
 |       | 11100 | 00100 |   8   |     1.5675510358785E-01
 |       | 11100 | 00100 |  12   |    -1.5113390789970E-01
--------------------------------------------------
*** Contributions RASCI wfn    Active:  81.81
                                 Hole:   1.03
                                 Part:  17.16

      Mulliken population analysis 
 ---------------------------------------------------
   Atom    Charge (a.u.)   Spin (a.u.)  
 ---------------------------------------------------
   1  O    0.600749        0.584751 
   2  H    0.199626        0.207625 
   3  H    0.199626        0.207625 
 ---------------------------------------------------
   Sum:    1.000000        1.000000 
 ---------------------------------------------------
 
  
 NATURAL OCCUPATION NUMBERS (higher than 1.0E-05)
            1           2           3           4           5           6
    1   1.9999997   1.9950410   1.9681271   1.0278772   0.9989152   0.9676175
            7           8           9          10          11          12
    1   0.0295504   0.0045757   0.0031391   0.0013892   0.0011815   0.0006882
           13          14          15          16          17          18
    1   0.0005169   0.0003467   0.0003118   0.0002289   0.0001543   0.0000899
           19          20          21          22          23          24
    1   0.0000830   0.0000743   0.0000302   0.0000146   0.0000136   0.0000101
  
*** Unpaired Electrons
 Yamaguchi Nd:         3.15
 Head-Gordon Nu:       3.02
 Head-Gordon Nu_nl:    3.00
  
**************************************************
 RAS-CI total energy for state  14:    -75.043079240216
  Excitation energy (eV) = 17.384770290419
  State symmetry: A1  (C1       )
  <S^2>      :  0.7500
  Dipole Moment:    1.6921 X    -0.0000 Y     1.2032 Z
  Trans. Moment:   -0.4540 X     0.0000 Y     0.6385 Z
  Strength   :  0.261394
  Natural transition orbitals ( 1 -> 14 ):
   e-/hole pair  1 alpha:  ampl =  0.378219 ( 14.3%)   [5 : 6]
   e-/hole pair  2 alpha:  ampl =  0.258007 (  6.7%)   [4 : 7]
   e-/hole pair  1 beta :  ampl =  0.672902 ( 45.3%)   [5 : 6]
   e-/hole pair  2 beta :  ampl =  0.063718 (  0.4%)   [4 : 7]
   Sum of square amplitudes: 0.67

 NATURAL OCCUPATION NUMBERS (higher than 1.0E-05)
            1           2           3           4           5           6
    1   1.9999998   1.9976249   1.7181958   1.2734261   0.9993891   0.7209628
            7           8           9          10          11          12
    1   0.2783312   0.0036585   0.0021461   0.0011106   0.0010932   0.0008812
           13          14          15          16          17          18
    1   0.0007584   0.0005800   0.0003949   0.0003882   0.0002641   0.0001915
           19          20          21          22          23          24
    1   0.0001224   0.0001073   0.0000913   0.0000638   0.0000473   0.0000369
           25          26          27          28
    1   0.0000294   0.0000268   0.0000252   0.0000201
Natural Orbitals stored in FCHK

  Amplitudes : 
  
 | HOLE  | ALPHA | BETA  | PART  |    AMPLITUDE 
--------------------------------------------------
 |       | 11100 | 00110 |       |     6.6205985382424E-01
 |       | 11001 | 10100 |       |     3.6972527771887E-01
 |       | 10110 | 01100 |       |     4.0634612008952E-01
 |       | 10101 | 11000 |       |     3.2113976480608E-01
 |       | 01110 | 10100 |       |    -2.5571373373471E-01
--------------------------------------------------
*** Contributions RASCI wfn    Active:  92.20
                                 Hole:   0.46
                                 Part:   7.34

      Mulliken population analysis 
 ---------------------------------------------------
   Atom    Charge (a.u.)   Spin (a.u.)  
 ---------------------------------------------------
   1  O    0.707144        0.844776 
   2  H    0.146428        0.077612 
   3  H    0.146428        0.077612 
 ---------------------------------------------------
   Sum:    1.000000        1.000000 
 ---------------------------------------------------
 
  
 NATURAL OCCUPATION NUMBERS (higher than 1.0E-05)
            1           2           3           4           5           6
    1   1.9999998   1.9976249   1.7181958   1.2734261   0.9993891   0.7209628
            7           8           9          10          11          12
    1   0.2783312   0.0036585   0.0021461   0.0011106   0.0010932   0.0008812
           13          14          15          16          17          18
    1   0.0007584   0.0005800   0.0003949   0.0003882   0.0002641   0.0001915
           19          20          21          22          23          24
    1   0.0001224   0.0001073   0.0000913   0.0000638   0.0000473   0.0000369
           25          26          27          28
    1   0.0000294   0.0000268   0.0000252   0.0000201
  
*** Unpaired Electrons
 Yamaguchi Nd:         3.84
 Head-Gordon Nu:       3.02
 Head-Gordon Nu_nl:    3.17
  
**************************************************
 RAS-CI total energy for state  15:    -75.022304357599
  Excitation energy (eV) = 17.950083608680
  State symmetry: A1  (C1       )
  <S^2>      :  0.7500
  Dipole Moment:    1.7788 X    -0.0000 Y     1.2648 Z
  Trans. Moment:   -0.0000 X     0.0602 Y     0.0000 Z
  Strength   :  0.001595
  Natural transition orbitals ( 1 -> 15 ):
   e-/hole pair  1 alpha:  ampl =  0.222961 (  5.0%)   [5 : 6]
   e-/hole pair  2 alpha:  ampl =  0.011782 (  0.0%)   [4 : 7]
   e-/hole pair  1 beta :  ampl =  0.068957 (  0.5%)   [5 : 6]
   e-/hole pair  2 beta :  ampl =  0.038312 (  0.1%)   [4 : 7]
   Sum of square amplitudes: 0.06

 NATURAL OCCUPATION NUMBERS (higher than 1.0E-05)
            1           2           3           4           5           6
    1   1.9999999   1.9904928   1.8882164   1.8660836   0.9442098   0.2470562
            7           8           9          10          11          12
    1   0.0506303   0.0046480   0.0044491   0.0011845   0.0007146   0.0006103
           13          14          15          16          17          18
    1   0.0003452   0.0002669   0.0002544   0.0001781   0.0001461   0.0001154
           19          20          21          22          23          24
    1   0.0000893   0.0000822   0.0000617   0.0000483   0.0000242   0.0000220
           25          26
    1   0.0000182   0.0000148
Natural Orbitals stored in FCHK

  Amplitudes : 
  
 | HOLE  | ALPHA | BETA  | PART  |    AMPLITUDE 
--------------------------------------------------
 |       | 11100 | 01001 |       |    -1.4010699615476E-01
 |       | 11010 | 11000 |       |     8.6905458375528E-01
 |       | 11001 | 01100 |       |    -1.2218963744985E-01
 |       | 10110 | 10100 |       |     2.1265490376931E-01
 |       | 01110 | 01100 |       |    -1.8945370223893E-01
 |   2   | 11010 | 11100 |       |    -1.2594903752586E-01
 |       | 11000 | 11000 |  10   |    -1.5314887638683E-01
 |       | 11000 | 11000 |  13   |    -1.0955833422177E-01
--------------------------------------------------
*** Contributions RASCI wfn    Active:  87.89
                                 Hole:   3.15
                                 Part:   8.97

      Mulliken population analysis 
 ---------------------------------------------------
   Atom    Charge (a.u.)   Spin (a.u.)  
 ---------------------------------------------------
   1  O    0.768849       -0.119927 
   2  H    0.115575        0.559964 
   3  H    0.115575        0.559964 
 ---------------------------------------------------
   Sum:    1.000000        1.000000 
 ---------------------------------------------------
 
  
 NATURAL OCCUPATION NUMBERS (higher than 1.0E-05)
            1           2           3           4           5           6
    1   1.9999999   1.9904928   1.8882164   1.8660836   0.9442098   0.2470562
            7           8           9          10          11          12
    1   0.0506303   0.0046480   0.0044491   0.0011845   0.0007146   0.0006103
           13          14          15          16          17          18
    1   0.0003452   0.0002669   0.0002544   0.0001781   0.0001461   0.0001154
           19          20          21          22          23          24
    1   0.0000893   0.0000822   0.0000617   0.0000483   0.0000242   0.0000220
           25          26
    1   0.0000182   0.0000148
  
*** Unpaired Electrons
 Yamaguchi Nd:         2.04
 Head-Gordon Nu:       1.51
 Head-Gordon Nu_nl:    1.30
  
**************************************************
 RAS-CI total energy for state  16:    -75.011272522769
  Excitation energy (eV) = 18.250275107665
  State symmetry: A1  (C1       )
  <S^2>      :  0.7500
  Dipole Moment:    1.6255 X    -0.0000 Y     1.1558 Z
  Trans. Moment:    0.3275 X    -0.0000 Y    -0.4606 Z
  Strength   :  0.142848
  Natural transition orbitals ( 1 -> 16 ):
   e-/hole pair  1 alpha:  ampl =  0.749844 ( 56.2%)   [5 : 6]
   e-/hole pair  2 alpha:  ampl =  0.101975 (  1.0%)   [4 : 7]
   e-/hole pair  1 beta :  ampl =  0.186900 (  3.5%)   [5 : 6]
   e-/hole pair  2 beta :  ampl =  0.064053 (  0.4%)   [4 : 7]
   Sum of square amplitudes: 0.61

 NATURAL OCCUPATION NUMBERS (higher than 1.0E-05)
            1           2           3           4           5           6
    1   1.9999999   1.9991345   1.9524021   1.0365978   0.9989692   0.9530372
            7           8           9          10          11          12
    1   0.0473232   0.0042437   0.0029857   0.0012191   0.0008165   0.0005085
           13          14          15          16          17          18
    1   0.0004621   0.0004433   0.0003673   0.0003558   0.0002886   0.0002609
           19          20          21          22          23          24
    1   0.0001328   0.0000990   0.0000701   0.0000615   0.0000530   0.0000432
           25          26          27          28
    1   0.0000396   0.0000257   0.0000167   0.0000166
Natural Orbitals stored in FCHK

  Amplitudes : 
  
 | HOLE  | ALPHA | BETA  | PART  |    AMPLITUDE 
--------------------------------------------------
 |       | 11100 | 00110 |       |    -1.8524333480563E-01
 |       | 10110 | 01100 |       |     5.4377367933329E-01
 |       | 10101 | 11000 |       |     1.4977532976964E-01
 |       | 01110 | 10100 |       |     7.2901701413885E-01
 |       | 01100 | 10100 |  10   |    -1.5133781573939E-01
 |       | 01100 | 10100 |  13   |    -1.0060132108498E-01
 |       | 10100 | 01100 |  10   |    -1.3560743776457E-01
--------------------------------------------------
*** Contributions RASCI wfn    Active:  90.20
                                 Hole:   0.24
                                 Part:   9.56

      Mulliken population analysis 
 ---------------------------------------------------
   Atom    Charge (a.u.)   Spin (a.u.)  
 ---------------------------------------------------
   1  O    0.711042        0.008096 
   2  H    0.144479        0.495952 
   3  H    0.144479        0.495952 
 ---------------------------------------------------
   Sum:    1.000000        1.000000 
 ---------------------------------------------------
 
  
 NATURAL OCCUPATION NUMBERS (higher than 1.0E-05)
            1           2           3           4           5           6
    1   1.9999999   1.9991345   1.9524021   1.0365978   0.9989692   0.9530372
            7           8           9          10          11          12
    1   0.0473232   0.0042437   0.0029857   0.0012191   0.0008165   0.0005085
           13          14          15          16          17          18
    1   0.0004621   0.0004433   0.0003673   0.0003558   0.0002886   0.0002609
           19          20          21          22          23          24
    1   0.0001328   0.0000990   0.0000701   0.0000615   0.0000530   0.0000432
           25          26          27          28
    1   0.0000396   0.0000257   0.0000167   0.0000166
  
*** Unpaired Electrons
 Yamaguchi Nd:         3.21
 Head-Gordon Nu:       3.02
 Head-Gordon Nu_nl:    3.01
  
**************************************************
 RAS-CI total energy for state  17:    -74.989253669230
  Excitation energy (eV) = 18.849438596934
  State symmetry: A1  (C1       )
  <S^2>      :  0.7500
  Dipole Moment:    1.7003 X     0.0000 Y     1.2090 Z
  Trans. Moment:   -0.0000 X     0.0000 Y    -0.0000 Z
  Strength   :  0.000000
  Natural transition orbitals ( 1 -> 17 ):
   e-/hole pair  1 alpha:  ampl =  0.136833 (  1.9%)   [5 : 6]
   e-/hole pair  2 alpha:  ampl =  0.006743 (  0.0%)   [4 : 7]
   e-/hole pair  1 beta :  ampl =  0.038576 (  0.1%)   [5 : 6]
   e-/hole pair  2 beta :  ampl =  0.015808 (  0.0%)   [4 : 7]
   Sum of square amplitudes: 0.02

 NATURAL OCCUPATION NUMBERS (higher than 1.0E-05)
            1           2           3           4           5           6
    1   1.9999998   1.9919975   1.9513390   1.1874505   0.8800175   0.7380647
            7           8           9          10          11          12
    1   0.2379068   0.0044535   0.0027260   0.0025351   0.0005542   0.0005480
           13          14          15          16          17          18
    1   0.0005339   0.0004720   0.0002745   0.0002202   0.0001554   0.0001520
           19          20          21          22          23          24
    1   0.0001261   0.0001106   0.0000781   0.0000767   0.0000584   0.0000394
           25          26          27          28
    1   0.0000322   0.0000274   0.0000203   0.0000108
Natural Orbitals stored in FCHK

  Amplitudes : 
  
 | HOLE  | ALPHA | BETA  | PART  |    AMPLITUDE 
--------------------------------------------------
 |       | 11100 | 01010 |       |    -6.5897389387530E-01
 |       | 11010 | 01100 |       |    -4.8174500613029E-01
 |       | 11001 | 11000 |       |     3.9452961607423E-01
 |       | 10101 | 10100 |       |     1.3232702318930E-01
 |       | 01110 | 11000 |       |     1.7722888774516E-01
 |       | 01101 | 01100 |       |    -1.2734361600807E-01
 |       | 11000 | 11000 |   8   |    -1.2734114356731E-01
 |       | 11100 | 01000 |  10   |     1.0765581193605E-01
--------------------------------------------------
*** Contributions RASCI wfn    Active:  89.57
                                 Hole:   0.99
                                 Part:   9.44

      Mulliken population analysis 
 ---------------------------------------------------
   Atom    Charge (a.u.)   Spin (a.u.)  
 ---------------------------------------------------
   1  O    0.687793        0.815017 
   2  H    0.156103        0.092491 
   3  H    0.156103        0.092491 
 ---------------------------------------------------
   Sum:    1.000000        1.000000 
 ---------------------------------------------------
 
  
 NATURAL OCCUPATION NUMBERS (higher than 1.0E-05)
            1           2           3           4           5           6
    1   1.9999998   1.9919975   1.9513390   1.1874505   0.8800175   0.7380647
            7           8           9          10          11          12
    1   0.2379068   0.0044535   0.0027260   0.0025351   0.0005542   0.0005480
           13          14          15          16          17          18
    1   0.0005339   0.0004720   0.0002745   0.0002202   0.0001554   0.0001520
           19          20          21          22          23          24
    1   0.0001261   0.0001106   0.0000781   0.0000767   0.0000584   0.0000394
           25          26          27          28
    1   0.0000322   0.0000274   0.0000203   0.0000108
  
*** Unpaired Electrons
 Yamaguchi Nd:         3.44
 Head-Gordon Nu:       2.74
 Head-Gordon Nu_nl:    2.96
  
**************************************************
 RAS-CI total energy for state  18:    -74.983571150159
  Excitation energy (eV) = 19.004067808151
  State symmetry: A1  (C1       )
  <S^2>      :  0.7500
  Dipole Moment:    1.5331 X    -0.0000 Y     1.0901 Z
  Trans. Moment:   -0.1731 X    -0.0000 Y    -0.1231 Z
  Strength   :  0.021001
  Natural transition orbitals ( 1 -> 18 ):
   e-/hole pair  1 alpha:  ampl =  0.185084 (  3.4%)   [5 : 6]
   e-/hole pair  2 alpha:  ampl =  0.129451 (  1.7%)   [4 : 7]
   e-/hole pair  1 beta :  ampl =  0.574050 ( 33.0%)   [5 : 6]
   e-/hole pair  2 beta :  ampl =  0.038604 (  0.1%)   [4 : 7]
   Sum of square amplitudes: 0.40

 NATURAL OCCUPATION NUMBERS (higher than 1.0E-05)
            1           2           3           4           5           6
    1   1.9999999   1.9958895   1.9649312   1.0586360   0.9821719   0.9327695
            7           8           9          10          11          12
    1   0.0327396   0.0180256   0.0065620   0.0034700   0.0015074   0.0006614
           13          14          15          16          17          18
    1   0.0005130   0.0004487   0.0004174   0.0003678   0.0002174   0.0002044
           19          20          21          22          23          24
    1   0.0000969   0.0000873   0.0000762   0.0000460   0.0000425   0.0000421
           25          26
    1   0.0000146   0.0000142
Natural Orbitals stored in FCHK

  Amplitudes : 
  
 | HOLE  | ALPHA | BETA  | PART  |    AMPLITUDE 
--------------------------------------------------
 |       | 11100 | 00101 |       |     5.4919076465513E-01
 |       | 10101 | 01100 |       |     6.9960917202568E-01
 |       | 01101 | 10100 |       |     1.5041840737061E-01
 |       | 10100 | 10100 |  11   |    -1.2470422581781E-01
 |       | 10100 | 01100 |   8   |    -1.9612327530528E-01
 |       | 10100 | 01100 |  12   |     1.8643310344633E-01
 |       | 11100 | 00100 |   8   |    -1.2467958265587E-01
 |       | 11100 | 00100 |  12   |     1.1102621792192E-01
--------------------------------------------------
*** Contributions RASCI wfn    Active:  83.80
                                 Hole:   0.67
                                 Part:  15.54

      Mulliken population analysis 
 ---------------------------------------------------
   Atom    Charge (a.u.)   Spin (a.u.)  
 ---------------------------------------------------
   1  O    0.582970        0.461677 
   2  H    0.208515        0.269162 
   3  H    0.208515        0.269162 
 ---------------------------------------------------
   Sum:    1.000000        1.000000 
 ---------------------------------------------------
 
  
 NATURAL OCCUPATION NUMBERS (higher than 1.0E-05)
            1           2           3           4           5           6
    1   1.9999999   1.9958895   1.9649312   1.0586360   0.9821719   0.9327695
            7           8           9          10          11          12
    1   0.0327396   0.0180256   0.0065620   0.0034700   0.0015074   0.0006614
           13          14          15          16          17          18
    1   0.0005130   0.0004487   0.0004174   0.0003678   0.0002174   0.0002044
           19          20          21          22          23          24
    1   0.0000969   0.0000873   0.0000762   0.0000460   0.0000425   0.0000421
           25          26
    1   0.0000146   0.0000142
  
*** Unpaired Electrons
 Yamaguchi Nd:         3.20
 Head-Gordon Nu:       2.96
 Head-Gordon Nu_nl:    2.99
  
**************************************************
 RAS-CI total energy for state  19:    -74.948557046265
  Excitation energy (eV) = 19.956850051163
  State symmetry: A1  (C1       )
  <S^2>      :  0.7500
  Dipole Moment:    1.1140 X     0.0000 Y     0.7921 Z
  Trans. Moment:   -0.0000 X    -0.2466 Y    -0.0000 Z
  Strength   :  0.029744
  Natural transition orbitals ( 1 -> 19 ):
   e-/hole pair  1 alpha:  ampl =  0.192186 (  3.7%)   [5 : 6]
   e-/hole pair  2 alpha:  ampl =  0.111676 (  1.2%)   [4 : 7]
   e-/hole pair  1 beta :  ampl =  0.677979 ( 46.0%)   [5 : 6]
   e-/hole pair  2 beta :  ampl =  0.060236 (  0.4%)   [4 : 7]
   Sum of square amplitudes: 0.52

[...]
    34   -5.398831548206e-01
    35   -1.859020684894e-02
    36   -2.185395593932e-15
    37   -2.831839225503e-02
    38    8.622516909633e-02
    39    9.234904597782e-01
    40   -5.398831687687e-01
    41   -3.285259807584e-02
    42   -2.131931394985e-15
    43   -8.260379970348e-03
Sym=X
Ene= 0.241898
Spin=Alpha
Occup=0
     1    8.171295562534e-15
     2    2.159203430962e-14
     3   -1.541306026438e-14
     4   -1.606615801075e-14
     5   -8.054657863659e-13
     6   -3.605032251772e-13
     7   -2.638959452327e-01
     8   -2.560830538335e-13
     9   -9.515994989926e-13
    10   -6.715990699792e-01
    11   -6.761287064756e-13
    12    9.045849612107e-13
    13    1.263348677822e+00
    14    6.438191141269e-13
    15    1.223557116624e-14
    16   -1.248027856734e-14
    17   -1.393745731178e-03
    18    1.258238697721e-14
    19   -1.960103795917e-03
    20    8.784702044900e-16
    21    4.602057388268e-16
    22    7.777268414600e-03
    23    1.336680276339e-15
    24    1.093761434914e-02
    25   -9.965086052977e-15
    26    5.455813939260e-16
    27   -1.346105121491e-03
    28    1.070557999076e-15
    29   -5.745725586414e-04
    30   -7.784462838277e-15
    31   -2.064004746688e-03
    32    1.415455170240e-13
    33    1.463944205889e-12
    34   -9.059184311051e-13
    35   -3.000377123783e-14
    36    1.167322744565e-03
    37   -4.146145988668e-14
    38    1.415825966974e-13
    39    1.466004320123e-12
    40   -9.062841558625e-13
    41   -4.911293321932e-14
    42    1.167322955612e-03
    43   -1.460115870681e-14
Sym=X
Ene= 0.398120
Spin=Alpha
Occup=0
     1   -1.399223560091e-09
     2   -2.936781580697e-09
     3   -3.780386230345e-09
     4    6.781965281235e-08
     5   -1.379152892479e-07
     6    1.814707070297e-01
     7   -9.498363345434e-18
     8   -2.552125621186e-01
     9    4.338627490066e-01
    10   -6.964598879497e-17
    11   -6.101658314503e-01
    12   -1.211643699511e+00
    13    4.885305685836e-16
    14    1.704003313642e+00
    15   -5.918715787484e-03
    16   -2.375959135769e-03
    17   -1.028851983404e-15
    18    3.417172786089e-03
    19    2.544736591676e-16
    20    5.381035179857e-02
    21    2.160116927671e-02
    22    5.178223428744e-17
    23   -3.106742281855e-02
    24    5.917669860090e-16
    25    1.057932285864e-03
    26   -3.523168264342e-05
    27    5.574917458705e-16
    28    1.240811220133e-03
    29    1.284748561333e-16
    30   -1.187053094185e-03
    31   -3.523749170133e-16
    32    6.133084519638e-02
    33    7.195447669841e-02
    34   -1.598999033553e+00
    35    5.223856904014e-03
    36   -8.113723597278e-16
    37    4.779374483038e-02
    38   -6.133084586672e-02
    39   -7.195442459718e-02
    40    1.598999085260e+00
    41   -4.685888112875e-02
    42    1.734415292260e-16
    43    1.075994803670e-02
Sym=X
Ene= 0.420680
Spin=Alpha
Occup=0
     1    4.774392363684e-02
     2    1.009077284650e-01
     3    1.246180507663e-01
     4   -2.293061629728e+00
     5    4.590573584068e+00
     6   -7.358298130760e-02
     7    3.178415611602e-15
     8   -5.232171276594e-02
     9   -9.275564164221e-02
    10    1.286344448249e-14
    11   -6.595458492909e-02
    12    9.703458556951e-01
    13   -2.096575000797e-14
    14    6.899713872200e-01
    15   -9.762809079409e-03
    16    5.148965765537e-03
    17    5.896991284186e-16
    18   -1.332960658606e-02
    19    7.712512454138e-16
    20    2.501730319106e-02
    21   -1.320611895422e-03
    22   -1.703149645256e-15
    23    4.241301539803e-02
    24   -1.621362983406e-15
    25    1.036503616545e-02
    26   -2.266129985623e-03
    27   -1.211591243311e-16
    28   -4.849856868103e-03
    29    1.189855863355e-16
    30    4.235357554713e-03
    31    1.178779423174e-16
    32    2.598895984218e-02
    33   -7.100950805248e-01
    34   -9.997745917124e-01
    35    2.494259877838e-02
    36   -6.924705757828e-16
    37    7.391026879522e-02
    38    2.598895592783e-02
    39   -7.100950880870e-01
    40   -9.997744904810e-01
    41    7.800228044843e-02
    42   -3.179375121967e-17
    43   -7.105788821006e-04
Sym=X
Ene= 1.000640
Spin=Alpha
Occup=0
     1    3.500890578022e-16
     2    6.854876672554e-16
     3    1.255544710979e-15
     4   -2.832433981202e-14
     5    1.111247838402e-13
     6    6.780130421405e-15
     7    1.031269791124e-10
     8    1.477649600284e-15
     9    5.468767749834e-15
    10    9.243349939931e-11
    11    4.376966942238e-15
    12    5.572234840712e-14
    13    5.578541266655e-10
    14    3.467424406612e-14
    15    5.883735493427e-16
    16   -9.170837324948e-16
    17    6.780099188228e-03
    18   -1.408347881191e-16
    19   -4.821037677463e-03
    20    4.829901677197e-15
    21   -6.065888094805e-14
    22    4.506451230732e-01
    23   -2.965513576886e-14
    24   -3.204344164660e-01
    25   -3.287826147323e-16
    26   -5.281591022313e-17
    27   -7.704298732113e-03
    28   -7.064582323089e-16
    29   -3.387935727089e-03
    30    8.921083466101e-16
    31    5.967724166349e-03
    32    3.514614487362e-15
    33   -5.610873364236e-14
    34   -9.382094437788e-15
    35   -4.603412509227e-14
    36    4.177291006671e-01
    37    3.528553195996e-15
    38    3.599712071755e-15
    39   -6.509802981661e-14
    40   -6.534546290958e-15
    41   -1.389272761420e-14
    42   -4.177291023450e-01
    43   -4.172474567200e-14
Sym=X
Ene= 0.984397
Spin=Alpha
Occup=0
     1    2.601785175724e-03
     2    5.702762936627e-03
     3    4.344048608463e-03
     4   -2.071581884724e-01
     5    8.829515470499e-01
     6    4.666417336159e-02
     7   -5.159373477995e-16
     8    3.318089190191e-02
     9    5.400137739437e-02
    10    2.053031465747e-15
    11    3.839806274814e-02
    12    4.402541076470e-01
    13   -3.120878667730e-15
    14    3.130458104078e-01
    15    2.867221270193e-03
    16   -7.961722004257e-03
    17   -6.998311924289e-16
    18   -5.696100960608e-04
    19    5.216607467512e-16
    20    5.301946505983e-02
    21   -5.277399186470e-01
    22   -4.327878031790e-14
    23   -2.751050056035e-01
    24    4.709751712948e-14
    25    3.184558324899e-03
    26   -4.050376853123e-04
    27    9.264166642195e-16
    28   -8.439774516075e-04
    29   -5.358488627289e-16
    30    1.967984541960e-03
    31   -1.261836569031e-15
    32    2.889340299694e-02
    33   -5.056882647880e-01
    34   -5.498899177663e-02
    35   -3.915535259970e-01
    36   -4.401326778476e-14
    37    1.850255489605e-02
    38    2.889340328144e-02
    39   -5.056882649149e-01
    40   -5.498899111578e-02
    41   -1.110987051100e-01
    42    5.328019741493e-14
    43   -3.759169939418e-01
Sym=X
Ene= 1.103708
Spin=Alpha
Occup=0
     1   -3.316155538713e-16
     2   -9.740541386160e-16
     3    3.967931171873e-15
     4   -2.745166411675e-15
     5    9.081665997507e-15
     6   -5.139408308080e-15
     7   -7.588778870125e-02
     8   -3.684159371945e-15
     9    5.809830586158e-18
    10   -3.410352945626e-02
    11   -1.796159100931e-16
    12   -1.007372063052e-15
    13   -2.064016999526e-01
    14   -2.229237359521e-15
    15   -1.404212223586e-16
    16    2.995443802025e-16
    17   -7.126639585051e-05
    18    1.240627426991e-16
    19   -1.002260120591e-04
    20    4.501291934861e-15
    21    3.468643573671e-15
    22    4.140253934665e-01
    23    1.299445987141e-14
    24    5.822674311310e-01
    25   -3.352258897979e-16
    26   -5.356810679068e-16
    27   -5.453560416392e-03
    28   -1.096611125190e-15
    29    7.831616989911e-03
    30   -1.193809936564e-15
    31   -2.594430205237e-03
    32   -8.019924564183e-16
    33   -4.932111266829e-15
    34    5.964317530570e-16
    35    7.078242873706e-15
    36    3.592115403064e-01
    37    2.193932000310e-15
    38   -1.995273234500e-17
    39   -7.908625260824e-15
    40    1.219263140685e-16
    41    4.691253065794e-15
    42    3.592115390541e-01
    43    6.311658271389e-15
Sym=X
Ene= 1.375099
Spin=Alpha
Occup=0
     1   -7.415788246190e-11
     2   -2.539399416480e-10
     3    1.556203786947e-09
     4   -2.095451630991e-09
     5   -4.140756976350e-09
     6    3.939028273508e-02
     7    7.002260916006e-16
     8   -5.539679220484e-02
     9   -3.433966383290e-01
    10   -9.174711396010e-16
    11    4.829382003177e-01
    12   -6.064796287197e-01
    13    1.206602822700e-15
    14    8.529267543666e-01
    15   -6.735312125055e-03
    16   -2.703766295106e-03
    17   -2.694453927833e-16
    18    3.888634311304e-03
    19   -5.172046584453e-16
    20    8.784324436643e-01
    21    3.526304340434e-01
    22    1.314321178625e-16
    23   -5.071632117769e-01
    24    3.221240993062e-15
    25    2.260210081549e-02
    26    1.133489386735e-02
    27    8.745525614520e-16
    28    2.095278801700e-02
    29    3.146781071311e-16
    30   -2.525577242993e-02
    31   -7.096035698733e-16
    32    3.318782002340e-01
    33   -1.839577974625e+00
    34    3.774809340999e-01
    35    3.168362742543e-01
    36    2.423513142986e-15
    37    2.332958716762e-01
    38   -3.318782027756e-01
    39    1.839577986095e+00
    40   -3.774809360537e-01
    41   -3.243994527949e-01
    42   -3.797486903883e-15
    43   -2.226593447399e-01
Sym=X
Ene= 1.467814
Spin=Alpha
Occup=0
     1   -1.311081867729e-02
     2   -4.379186480624e-02
     3    2.774574292224e-01
     4   -2.979823599465e-01
     5   -1.575598867751e+00
     6    4.203472694636e-02
     7   -4.924883290102e-15
     8    2.988909088822e-02
     9   -2.224620097544e-01
    10    2.317575103940e-15
    11   -1.581831935638e-01
    12   -6.660021167575e-01
    13   -3.031586984849e-15
    14   -4.735655396474e-01
    15    3.629446839055e-03
    16    8.191875562427e-04
    17    1.505584470608e-16
    18    6.855967229099e-03
    19   -1.546786017200e-16
    20   -6.227145704484e-01
    21    2.912249860427e-01
    22    3.463076783301e-15
    23   -8.760846202851e-01
    24    2.877040048238e-15
    25   -3.480846230872e-02
    26    5.625948889206e-03
    27   -1.320131875914e-15
    28    1.188457825841e-02
    29    3.394358361403e-16
    30   -1.876639474739e-02
    31   -1.365414913083e-15
    32   -3.027281369871e-01
    33    1.693465391775e+00
    34   -1.777775029727e-01
    35    5.265112867670e-02
    36    4.526472697833e-15
    37   -1.255530654987e-01
    38   -3.027281357528e-01
    39    1.693465381910e+00
    40   -1.777775019510e-01
    41   -1.013017859414e-01
    42    4.201450685220e-15
    43    9.095967230254e-02
Sym=X
Ene= 1.559782
Spin=Alpha
Occup=0
     1    7.148314245086e-13
     2    8.191283928802e-12
     3   -9.134688730539e-11
     4    4.952628598361e-10
     5   -2.554867898038e-09
     6   -8.801818913580e-02
     7    4.655900073800e-16
     8    1.237849798575e-01
     9    2.532223463199e-01
    10   -1.352549670556e-15
    11   -3.561209723286e-01
    12   -1.222017321389e-01
    13    1.724152137980e-15
    14    1.718592368058e-01
    15    1.401518532052e-02
    16    5.626136523113e-03
    17    3.722965055348e-16
    18   -8.091671013614e-03
    19    5.746755830900e-17
    20   -5.308218496433e-01
    21   -2.130885969941e-01
    22    7.520461847208e-15
    23    3.064701358069e-01
    24   -5.052810597842e-15
    25   -1.860883625308e-02
    26   -1.255232487632e-02
    27   -3.444297582743e-16
    28   -1.577073612250e-02
    29   -3.357212995608e-16
    30    2.076571930121e-02
    31    1.493936789389e-15
    32   -2.045633685910e-01
    33    7.666813333131e-01
    34   -4.143744039505e-01
    35    7.114924564847e-01
    36   -5.691537992891e-15
    37   -2.137689950843e-01
    38    2.045633681629e-01
    39   -7.666813288062e-01
    40    4.143744034472e-01
    41   -3.171912173363e-02
    42    4.646551947175e-15
    43   -7.422348661688e-01
Sym=X
Ene= 1.866773
Spin=Alpha
Occup=0
     1    7.232382925884e-16
     2    2.293347679842e-15
     3   -1.043305585364e-14
     4    2.102987144326e-15
     5   -1.451489811951e-14
     6    1.284973693578e-14
     7   -2.638651921840e-01
     8    6.549270894151e-15
     9   -1.905004673093e-14
    10    1.211610827910e-01
    11   -8.827194821205e-15
    12    5.228574856957e-15
    13   -4.570608219640e-01
    14    3.973734993608e-15
    15   -1.309602303513e-16
    16   -3.658720758406e-16
    17    7.320419697666e-03
    18    5.770222203147e-16
    19    1.029512222716e-02
    20    1.241170931052e-16
    21    7.165953170474e-15
    22   -4.788936867688e-01
    23    3.733572720419e-15
    24   -6.734954059656e-01
    25   -1.743140875353e-15
    26    1.118575986089e-15
    27    7.964633259785e-03
    28    1.469963027413e-15
    29   -9.531923794672e-03
    30    3.503352015319e-16
    31    4.870930464014e-03
    32   -6.410447050416e-15
    33    1.593135206820e-14
    34   -1.371132015890e-15
    35   -5.073228228592e-15
    36    7.515313491636e-01
    37   -7.415888518767e-15
    38   -1.074551700827e-14
    39    2.493142640058e-14
    40   -5.664033285267e-15
    41   -1.055917031237e-14
    42    7.515313541188e-01
    43   -4.812629765240e-15
Sym=X
Ene= 1.886150
Spin=Alpha
Occup=0
     1    1.059162224480e-02
     2    5.151975725838e-02
     3   -6.744062593984e-01
     4    2.058290234516e+00
     5   -4.417335818459e-02
     6   -3.234676756140e-01
     7   -8.544890047400e-15
     8   -2.300039873002e-01
     9    8.795298089136e-01
    10    7.209993428218e-15
    11    6.253959135713e-01
    12   -8.042486138141e-02
    13   -9.564780147270e-15
    14   -5.718666852009e-02
    15   -5.338628103579e-03
    16    9.346480898031e-03
    17   -3.272218405203e-16
    18   -2.748169759364e-03
    19   -8.675431722216e-16
    20    9.437990859825e-02
    21   -4.474132170371e-01
    22   -4.112944344887e-15
    23   -1.476154840854e-01
    24   -1.093634261664e-14
    25    1.292692411581e-01
    26   -2.511576309598e-02
    27   -5.460021354921e-16
    28   -5.350443441676e-02
    29    1.786313268876e-17
    30    6.002607427420e-02
    31   -1.189103461385e-15
    32    7.042468259283e-01
    33   -1.772346261354e+00
    34    4.835505430645e-01
    35    3.032515516529e-01
    36    9.206364285920e-15
    37    6.766132732535e-01
    38    7.042468271711e-01
    39   -1.772346265715e+00
    40    4.835505444377e-01
    41    7.386733684126e-01
    42    1.251231249810e-14
    43    6.425483804842e-02
Sym=X
Ene= 1.959911
Spin=Alpha
Occup=0
     1    2.110926843411e-16
     2    9.111206244406e-16
     3   -5.715555710870e-15
     4    6.641891147796e-15
     5   -7.206800146997e-15
     6    8.010889761507e-15
     7    1.141023209358e-09
     8   -8.143752388637e-15
     9   -2.121353593945e-14
    10   -6.714264138581e-10
    11    2.524951416618e-14
    12    2.038425039500e-15
    13    1.598742368598e-09
    14   -4.402807069351e-15
    15   -5.981658730424e-16
    16   -4.820774280756e-16
    17   -1.214776437501e-02
    18    3.163270557054e-16
    19    8.637754092350e-03
    20    8.295484160969e-15
    21    4.572610714600e-15
    22    8.605396455402e-01
    23   -2.884992155481e-15
    24   -6.118928230076e-01
    25   -3.533198343956e-16
    26    7.176719560526e-16
    27   -1.098980459136e-02
    28    7.004916027214e-17
    29   -4.832724188371e-03
    30   -3.606520389707e-16
    31    8.512665970679e-03
    32    8.598727582780e-15
    33   -3.017920684801e-14
    34    1.468417509985e-14
    35   -3.013041594357e-15
    36   -7.418568595302e-01
    37    1.375801552267e-14
    38   -1.277285430206e-14
    39    3.793796985032e-14
    40   -1.384959181230e-14
    41   -1.381804128279e-14
    42    7.418568543271e-01
    43    8.439684762744e-15
Sym=X
Ene= 2.162054
Spin=Alpha
Occup=0
     1    3.743306347645e-12
     2   -5.290599916569e-12
     3    4.112550948263e-10
     4   -8.387127996516e-10
     5   -2.402732885918e-09
     6    1.705993665248e-01
     7   -3.144748510285e-15
     8   -2.399235839492e-01
     9   -1.183320329384e+00
    10    4.733072292675e-15
    11    1.664170609042e+00
    12    5.751720346638e-02
    13   -2.855810413350e-16
    14   -8.088971442739e-02
    15   -3.884883418676e-02
    16   -1.559514485830e-02
    17    7.022345761954e-17
    18    2.242938489800e-02
    19    8.419320173683e-16
    20    2.348725682819e-01
    21    9.428524012190e-02
    22   -1.149926492954e-14
    23   -1.356037416341e-01
    24    1.006244983644e-14
    25    7.744821619928e-02
    26    3.813548568637e-02
    27   -7.405130040911e-16
    28    7.212057518408e-02
    29   -1.353708714520e-15
    30   -8.654738495380e-02
    31    1.547161532283e-15
    32    5.604371614499e-01
    33   -2.027357294813e+00
    34    6.890740410490e-01
    35    1.312059484356e-01
    36    7.068494682589e-15
    37    1.156622084820e+00
    38   -5.604371603833e-01
    39    2.027357296731e+00
    40   -6.890740399471e-01
    41   -1.135569957098e+00
    42   -1.246740016939e-14
    43    2.558720847955e-01
Sym=X
Ene= 2.259036
Spin=Alpha
Occup=0
     1    2.433052097174e-02
     2    9.366572867125e-02
     3   -8.009668786834e-01
     4    1.650483999820e+00
     5    2.940841449271e-01
     6    2.624095324751e-01
     7   -4.012651917255e-15
     8    1.865881602837e-01
     9    1.512684192288e-01
    10    4.843650497541e-15
    11    1.075604882833e-01
    12    5.903397442662e-01
    13    1.872014431699e-16
    14    4.197652669097e-01
    15   -1.743054600117e-03
    16    1.791909801443e-03
    17    3.859054720256e-16
    18   -1.773144632272e-03
    19    3.827435382450e-16
    20   -1.764339439427e-01
    21    8.386693382335e-01
    22    2.831281888199e-15
    23    2.775339935944e-01
    24    4.961927512681e-15
    25    8.758401545488e-02
    26   -2.185959904584e-02
    27   -5.982209033163e-16
    28   -4.699565156874e-02
    29    2.069232125621e-15
    30    2.958201322734e-02
    31    6.798509793675e-16
    32    3.928961872114e-01
    33   -1.207891922104e+00
    34    1.623307314874e-01
    35   -7.204096695772e-01
    36   -3.199323504622e-15
    37    4.703837712796e-01
    38    3.928961845879e-01
    39   -1.207891914780e+00
    40    1.623307281334e-01
    41    2.077377963069e-01
    42   -3.252436511001e-15
    43   -8.349227445425e-01
Sym=X
Ene= 2.433607
Spin=Alpha
Occup=0
     1    4.167017037456e-10
     2    1.224692181804e-09
     3   -2.613156726090e-09
     4   -6.558471923050e-09
     5   -1.605757094442e-08
     6   -5.395003377518e-01
     7    7.531103545028e-15
     8    7.587299632228e-01
     9    6.378118773331e-02
    10   -1.136974962028e-14
    11   -8.969910660501e-02
    12   -6.478658602677e-01
    13    3.161413321002e-15
    14    9.111305549452e-01
    15   -3.590183116694e-02
    16   -1.441212526772e-02
    17    2.113783180680e-15
    18    2.072793217921e-02
    19   -1.403876207145e-15
    20    7.589249580094e-01
    21    3.046563748686e-01
    22    3.580593259013e-17
    23   -4.381655356559e-01
    24   -3.845270271189e-15
    25    2.181894901609e-02
    26    7.919226703740e-03
    27    1.027746321355e-15
    28    2.161635375811e-02
    29    1.543137727286e-15
    30   -2.440690881327e-02
    31    4.141351485126e-16
    32   -2.994332154424e-01
    33   -7.723856146078e-01
    34   -4.586533460576e-01
    35   -5.782681559094e-02
    36    3.472620080298e-16
    37    8.679184884974e-01
    38    2.994332185075e-01
    39    7.723856388601e-01
    40    4.586533488767e-01
    41   -8.008023563735e-01
    42    6.353887700881e-15
    43    3.396204689645e-01
[5D7F]

======= END OF MOLDEN-FORMATTED INPUT FILE =======


        *************************************************************
        *                                                           *
        *  Thank you very much for using Q-Chem.  Have a nice day.  *
        *                                                           *
        *************************************************************


