                  Welcome to Q-Chem
     A Quantum Leap Into The Future Of Chemistry


 Q-Chem 6.0 (devel), Q-Chem, Inc., Pleasanton, CA (2022)

 E. Epifanovsky,  A. T. B. Gilbert,  Xintian Feng,  Joonho Lee,  Yuezhi Mao,  
 N. Mardirossian,  P. Pokhilko,  A. White,  M. Wormit,  M. P. Coons,  
 A. L. Dempwolff,  Zhengting Gan,  D. Hait,  P. R. Horn,  L. D. Jacobson,  
 I. Kaliman,  J. Kussmann,  A. W. Lange,  Ka Un Lao,  D. S. Levine,  Jie Liu,  
 S. C. McKenzie,  A. F. Morrison,  K. Nanda,  F. Plasser,  D. R. Rehn,  
 M. L. Vidal,  Zhi-Qiang You,  Ying Zhu,  B. Alam,  B. Albrecht,  
 A. Aldossary,  E. Alguire,  J. H. Andersen,  V. Athavale,  D. Barton,  
 K. Begam,  A. Behn,  N. Bellonzi,  Y. A. Bernard,  E. J. Berquist,  
 H. Burton,  A. Carreras,  K. Carter-Fenk,  Romit Chakraborty,  
 Chandrima Chakravarty,  Junhan Chen,  A. D. Chien,  K. D. Closser,  
 V. Cofer-Shabica,  L. Cunha,  S. Dasgupta,  Jia Deng,  M. de Wergifosse,  
 M. Diedenhofen,  Hainam Do,  S. Ehlert,  Po-Tung Fang,  S. Fatehi,  
 Qingguo Feng,  T. Friedhoff,  B. Ganoe,  J. Gayvert,  Qinghui Ge,  
 G. Gidofalvi,  M. Goldey,  J. Gomes,  C. Gonzalez-Espinoza,  S. Gulania,  
 A. Gunina,  J. A. Gyamfi,  M. W. D. Hanson-Heine,  P. H. P. Harbach,  
 A. W. Hauser,  M. F. Herbst,  M. Hernandez Vera,  M. Hodecker,  
 Z. C. Holden,  S. Houck,  Xunkun Huang,  Kerwin Hui,  B. C. Huynh,  
 K. Ikeda,  M. Ivanov,  Hyunjun Ji,  Zuxin Jin,  Hanjie Jiang,  B. Kaduk,  
 S. Kaehler,  R. Kang,  K. Khistyaev,  Jaehoon Kim,  Yongbin Kim,  
 P. Klunzinger,  Z. Koczor-Benda,  Joong Hoon Koh,  D. Kosenkov,  
 Saikiran Kotaru,  L. Koulias,  T. Kowalczyk,  C. M. Krauter,  K. Kue,  
 A. Kunitsa,  T. Kus,  A. Landau,  K. V. Lawler,  D. Lefrancois,  S. Lehtola,  
 Rain Li,  Shaozhi Li,  Yi-Pei Li,  Jiashu Liang,  M. Liebenthal,  
 Hung-Hsuan Lin,  You-Sheng Lin,  Fenglai Liu,  Kuan-Yu Liu,  
 M. Loipersberger,  A. Luenser,  C. Malbon,  A. Manjanath,  P. Manohar,  
 E. Mansoor,  S. F. Manzer,  Shan-Ping Mao,  A. V. Marenich,  T. Markovich,  
 S. Mason,  F. Matz,  S. A. Maurer,  P. F. McLaughlin,  M. F. S. J. Menger,  
 J.-M. Mewes,  S. A. Mewes,  P. Morgante,  Mohammad Mostafanejad,  
 J. W. Mullinax,  K. J. Oosterbaan,  G. Paran,  V. Parravicini,  
 Alexander C. Paul,  Suranjan K. Paul,  F. Pavosevic,  Zheng Pei,  S. Prager,  
 E. I. Proynov,  E. Ramos,  B. Rana,  A. E. Rask,  A. Rettig,  R. M. Richard,  
 F. Rob,  E. Rossomme,  T. Scheele,  M. Scheurer,  M. Schneider,  
 P. E. Schneider,  N. Sergueev,  S. M. Sharada,  Hengyuan Shen,  
 W. Skomorowski,  D. W. Small,  C. J. Stein,  Yingli Su,  Yu-Chuan Su,  
 E. J. Sundstrom,  Zhen Tao,  J. Thirman,  Hung-Yi Tsai,  T. Tsuchimochi,  
 N. M. Tubman,  C. Utku,  S. P. Veccham,  O. Vydrov,  J. Wenzel,  
 Jonathan Wong,  J. Witte,  A. Yamada,  Chou-Hsun Yang,  Kun Yao,  
 S. Yeganeh,  S. R. Yost,  A. Zech,  F. Zeller,  Igor Ying Zhang,  
 Xing Zhang,  Yu Zhang,  D. Zuev,  A. Aspuru-Guzik,  A. T. Bell,  
 N. A. Besley,  K. B. Bravaya,  B. R. Brooks,  D. Casanova,  Jeng-Da Chai,  
 Hsing-Ta Chen,  S. Coriani,  C. J. Cramer,  A. E. DePrince, III,  
 R. A. DiStasio Jr.,  A. Dreuw,  B. D. Dunietz,  T. R. Furlani,  
 W. A. Goddard III,  S. Grimme,  S. Hammes-Schiffer,  T. Head-Gordon,  
 W. J. Hehre,  Chao-Ping Hsu,  T.-C. Jagau,  Yousung Jung,  A. Klamt,  
 Jing Kong,  D. S. Lambrecht,  Xiangyuan Li,  WanZhen Liang,  N. J. Mayhall,  
 C. W. McCurdy,  J. B. Neaton,  T. Neudecker,  C. Ochsenfeld,  
 J. A. Parkhill,  R. Peverati,  V. A. Rassolov,  Haisheng Ren,  Yihan Shao,  
 L. V. Slipchenko,  R. P. Steele,  J. E. Subotnik,  A. J. W. Thom,  
 A. Tkatchenko,  D. G. Truhlar,  T. Van Voorhis,  Fan Wang,  
 T. A. Wesolowski,  K. B. Whaley,  H. L. Woodcock III,  P. M. Zimmerman,  
 S. Faraji,  P. M. W. Gill,  M. Head-Gordon,  J. M. Herbert,  A. I. Krylov

 Contributors to earlier versions of Q-Chem not listed above: 
 R. D. Adamson,  B. Austin,  R. Baer,  J. Baker,  G. J. O. Beran,  
 K. Brandhorst,  S. T. Brown,  E. F. C. Byrd,  Arup K. Chakraborty,  
 G. K. L. Chan,  Chun-Min Chang,  Yunqing Chen,  C.-L. Cheng,  
 Siu Hung Chien,  D. M. Chipman,  D. L. Crittenden,  H. Dachsel,  
 R. J. Doerksen,  A. D. Dutoi,  R. G. Edgar,  J. Fosso-Tande,  
 L. Fusti-Molnar,  D. Ghosh,  A. Ghysels,  A. Golubeva-Zadorozhnaya,  
 J. Gonthier,  M. S. Gordon,  S. R. Gwaltney,  G. Hawkins,  J. E. Herr,  
 A. Heyden,  S. Hirata,  E. G. Hohenstein,  G. Kedziora,  F. J. Keil,  
 C. Kelley,  Jihan Kim,  R. A. King,  R. Z. Khaliullin,  P. P. Korambath,  
 W. Kurlancheek,  A. Laurent,  A. M. Lee,  M. S. Lee,  S. V. Levchenko,  
 Ching Yeh Lin,  D. Liotard,  E. Livshits,  R. C. Lochan,  I. Lotan,  
 L. A. Martinez-Martinez,  P. E. Maslen,  N. Nair,  D. P. O'Neill,  
 D. Neuhauser,  E. Neuscamman,  C. M. Oana,  R. Olivares-Amaya,  R. Olson,  
 T. M. Perrine,  B. Peters,  P. A. Pieniazek,  A. Prociuk,  Y. M. Rhee,  
 J. Ritchie,  M. A. Rohrdanz,  E. Rosta,  N. J. Russ,  H. F. Schaefer III,  
 M. W. Schmidt,  N. E. Schultz,  S. Sharma,  N. Shenvi,  C. D. Sherrill,  
 A. C. Simmonett,  A. Sodt,  T. Stein,  D. Stuck,  K. S. Thanthiriwatte,  
 V. Vanovschi,  L. Vogt,  Tao Wang,  A. Warshel,  M. A. Watson,  
 C. F. Williams,  Q. Wu,  X. Xu,  Jun Yang,  W. Zhang,  Yan Zhao

   Please cite Q-Chem as follows:
  "Software for the frontiers of quantum chemistry:
   An overview of developments in the Q-Chem 5 package"
   J. Chem. Phys. 155, 084801 (2021)
   https://doi.org/10.1063/5.0055522 (open access)

 Q-Chem 6.0.1 for Intel X86 EM64T Linux

 Parts of Q-Chem use Armadillo 9.900.5 (Nocturnal Misbehaviour).
 http://arma.sourceforge.net/

 Q-Chem begins on Tue Feb 14 18:45:51 2023  

 Host: atlas-146
0

     Scratch files written to ./qchem156203//
 Processing $rem in /scratch/abel/SOFTWARE/qchem/config/preferences:
 Processing $rem in /dipc/acebg/.qchemrc:

 Checking the input file for inconsistencies... 	...done.

--------------------------------------------------------------
User input:
--------------------------------------------------------------
$comment
 RAS-SF CALCULATION
$end

$molecule
 READ cucl4_2-_d10.molecule
$end

$rem
!**CALCULATION TYPE***     
JOBTYPE            sp    
EXCHANGE           HF
CORRELATION        RASCI    !RASCI=Casanova; RASCI2=Zimmerman
BASIS              def2-TZVP

!***SCF REFERENCE***
SKIP_SCFMAN        FALSE
UNRESTRICTED       FALSE
!SCF_GUESS          core
!SCF_GUESS_MIX      FALSE
!SCF_GUESS_ALWAYS   FALSE
MAX_SCF_CYCLES     500
SCF_CONVERGENCE    8
!SCF_ALGORITHM      DIIS !DIIS,DM,DIIS_DM,GDM,DIIS_GDM,GD

SYMMETRY           TRUE !use of symmetry for calculating integrals
SYM_IGNORE         FALSE !turn off using symmetry
SYM_TOL            5 !tolerance for determining point group

!THRESH             14
SCF_FINAL_PRINT     1 !0,1,2,3

!****RAS-SF****
RAS_ROOTS          15       !number of RAS-CI roots to be computed
SET_ITER           100     !number of iterations in RASCI
RAS_ELEC           17       !number of electrons in RAS2
!RAS_ELEC_ALPHA            !spin-α electrons in RAS2 
!RAS_ELEC_BETA             !spin-β electrons in RAS2

RAS_ACT            9       !number of orbitals in RAS2 
RAS_ACT_ORB   [34,35,36,37, 38, 43, 45, 46, 50] !user-selected RAS2 orbitals
RAS_OCC            41       !number of orbitals in RAS1
N_FROZEN_CORE      FC     !Number of frozen core orbitals
N_FROZEN_VIRTUAL   0      !Number of frozen virtual orbitals
RAS_NATORB         TRUE    !computation of the natural orbital occupancies
!RAS_NATORB_STATE  0      !Saves NO of i RAS computed state in .fchk ﬁle

RAS_DO_HOLE        TRUE   !presence of hole excitations in RAS-CI wave function
RAS_DO_PART        TRUE   !presence of particle excitations
RAS_AMPL_PRINT     10     !threshold (×10 2 ) for the CI amplitudes

RAS_GUESS_CS       0      !number of closed shell guess conﬁgurations
RAS_SPIN_MULT      0      !spin multiplicity: 0=any, 2n+1=defined 
RAS_SRDFT          FALSE  !short-range density functional RAS-CI
RAS_NFRAG          0     !fragments of excitation analysis in RASCI

RAS_PRINT          2      !level of information
RAS_NATORB         TRUE   !computation of the natural orbital occupancies
!RAS_NATORB_STATE  0      !Saves NO of i RAS computed state in .fchk ﬁle
RAS_FOD            TRUE

!****RAS-SOC****
CALC_SOC           TRUE   !calculate SOC for EOM-CC, RAS-CI, ADC, TDDFT/TDA and TDDFT
!RAS_SOC_2E        TRUE   !two-electron mean-ﬁeld contribution, default=true
RAS_SOC_SYM_DENS   TRUE   !averaging of α and β densities

!****MEMORY****
MEM_TOTAL          10000 !Default 2000 MB
MEM_STATIC         2000  !Default 64 MB

!**Molecular Properties and Analysis **                                                                                          
GUI                2
STATE_ANALYSIS     TRUE
MOLDEN_FORMAT      TRUE
PRINT_ORBITALS     20
$end                                           

--------------------------------------------------------------
 ----------------------------------------------------------------
             Standard Nuclear Orientation (Angstroms)
    I     Atom           X                Y                Z
 ----------------------------------------------------------------
    1      Cu     -0.0000000000     0.0000000000    -0.0000000000
    2      Cl      2.3112385002    -0.0000000000    -0.0000000000
    3      Cl      0.0000000000     2.3112385002    -0.0000000000
    4      Cl     -0.0000000000    -2.3112385002     0.0000000000
    5      Cl     -2.3112385002     0.0000000000     0.0000000000
 ----------------------------------------------------------------
 Molecular Point Group                 D2h   NOp =  8
 Largest Abelian Subgroup              D2h   NOp =  8
 Nuclear Repulsion Energy =         704.82872953 hartrees
 There are       50 alpha and       50 beta electrons
 Requested basis set is def2-TZVP
 There are 67 shells and 193 basis functions

 Total QAlloc Memory Limit  10000 MB
 Mega-Array Size      1956 MB
 MEM_STATIC part      2000 MB


                       Distance Matrix (Angstroms)
             Cu(  1)   Cl(  2)   Cl(  3)   Cl(  4)
   Cl(  2)  2.311239
   Cl(  3)  2.311239  3.268585
   Cl(  4)  2.311239  3.268585  4.622477
   Cl(  5)  2.311239  4.622477  3.268585  3.268585
 
 A cutoff of  1.0D-12 yielded   1874 shell pairs
 There are     16710 function pairs (     21943 Cartesian)
 Smallest overlap matrix eigenvalue = 9.49E-03

 Scale SEOQF with 1.000000e-01/1.000000e-01/1.000000e-01

 Standard Electronic Orientation quadrupole field applied
 Nucleus-field energy     =     0.0000000195 hartrees
 Guess from superposition of atomic densities
 Warning:  Energy on first SCF cycle will be non-variational
 SAD guess density has 97.000000 electrons

 -----------------------------------------------------------------------
  General SCF calculation program by
  Eric Jon Sundstrom, Paul Horn, Yuezhi Mao, Dmitri Zuev, Alec White,
  David Stuck, Shaama M.S., Shane Yost, Joonho Lee, David Small,
  Daniel Levine, Susi Lehtola, Hugh Burton, Evgeny Epifanovsky,
  Bang C. Huynh
 -----------------------------------------------------------------------
 Hartree-Fock
 A restricted SCF calculation will be
 performed using DIIS
 SCF converges when DIIS error is below 1.0e-08
 ---------------------------------------
  Cycle       Energy         DIIS error
 ---------------------------------------
    1   -3476.6934826312      2.23e-02  
    2   -3476.7267802228      4.35e-03  
    3   -3476.8410644553      1.91e-03  
    4   -3476.8520041212      2.79e-04  
    5   -3476.8523511136      2.54e-04  
    6   -3476.8524851303      7.30e-05  
    7   -3476.8525273337      2.19e-05  
    8   -3476.8525341592      1.08e-05  
    9   -3476.8525355757      3.27e-06  
   10   -3476.8525357122      3.26e-07  
   11   -3476.8525357138      7.02e-08  
   12   -3476.8525357138      1.51e-08  
   13   -3476.8525357139      1.55e-09  Convergence criterion met
 ---------------------------------------
 DFT Correlation    Energy =   0.00000000000000
 DFT Exchange       Energy =   0.00000000000000
 HF Exchange        Energy = -176.91470970372541
 Kinetic            Energy =   0.00000000000000
 Nuclear Attraction Energy =   0.00000000000000
 One-Electron       Energy = -6295.50476505299048
 Total Coulomb      Energy = 2290.73820949294986
 Final Alpha MO Eigenvalues
            1           2           3           4           5           6
    1-328.2526880-104.2563787-104.2563747-104.2563726-104.2563726 -40.2821337
            7           8           9          10          11          12
    1 -35.0854217 -35.0791333 -35.0791333  -9.9853569  -9.9853513  -9.9853513
           13          14          15          16          17          18
    1  -9.9853475  -7.4519553  -7.4519543  -7.4519514  -7.4519514  -7.4516502
           19          20          21          22          23          24
    1  -7.4516490  -7.4516490  -7.4516461  -7.4516219  -7.4516205  -7.4516205
           25          26          27          28          29          30
    1  -7.4516202  -4.4792870  -2.7943978  -2.7932823  -2.7932823  -0.5208555
           31          32          33          34          35          36
    1  -0.5061055  -0.5061055  -0.4970716  -0.0205584  -0.0027431   0.0050176
           37          38          39          40          41          42
    1   0.0210534   0.0210534   0.0466990   0.0466990   0.0621517   0.0690382
           43          44          45          46          47          48
    1   0.0911038   0.0926183   0.0986302   0.0986302   0.1016668   0.1016668
           49          50          51          52          53          54
    1   0.1235028   0.1715809   0.5481729   0.7294426   0.7685366   0.7917636
           55          56          57          58          59          60
    1   0.7963456   0.7970110   0.7970110   0.8669463   0.8669463   0.8873983
           61          62          63          64          65          66
    1   0.9783104   0.9811655   0.9811655   1.0047210   1.0155879   1.0182896
           67          68          69          70          71          72
    1   1.0182896   1.0326180   1.0326180   1.0397569   1.0413603   1.0589295
           73          74          75          76          77          78
    1   1.1502152   1.1728335   1.1728335   1.1869368   1.1869368   1.2013374
           79          80          81          82          83          84
    1   1.2018508   1.2018508   1.2047875   1.2122699   1.2301253   1.2838251
           85          86          87          88          89          90
    1   1.3277483   1.3277483   1.3404934   1.3639313   1.3907938   1.4038245
           91          92          93          94          95          96
    1   1.4038245   1.4079482   1.6542816   1.6993003   1.6993003   1.7632838
           97          98          99         100         101         102
    1   1.7632838   1.7762061   1.8103443   1.9105157   2.2083616   2.6019552
          103         104         105         106         107         108
    1   2.6019552   2.6056087   2.6322840   2.6647521   2.6647521   2.6690897
          109         110         111         112         113         114
    1   2.6754366   2.6841253   2.7241609   2.7326887   2.7326887   2.7752308
          115         116         117         118         119         120
    1   2.7764452   2.7764452   2.7926907   2.7945818   2.8014102   2.8014102
          121         122         123         124         125         126
    1   2.8196103   2.8832699   2.8832699   2.9445441   2.9525696   2.9548264
          127         128         129         130         131         132
    1   2.9548264   2.9587492   2.9600007   2.9600007   2.9603876   2.9607705
          133         134         135         136         137         138
    1   2.9619675   2.9628112   2.9658159   2.9658159   2.9721825   2.9721825
          139         140         141         142         143         144
    1   2.9766428   2.9809479   2.9831379   2.9833770   3.0162647   3.0162647
          145         146         147         148         149         150
    1   3.0578387   3.0998549   3.0998549   3.1229140   3.1298064   3.1322353
          151         152         153         154         155         156
    1   3.1440176   3.1440176   3.1476350   3.1476350   3.1489322   3.1749870
          157         158         159         160         161         162
    1   3.1871187   3.2628845   3.2628845   3.2706487   3.4383735   3.5352329
          163         164         165         166         167         168
    1   3.5352329   3.8468307   4.5942864   4.8505777   4.8505777   5.0099398
          169         170         171         172         173         174
    1   5.2302019   5.5198005   6.8747169   6.8771836   6.8787843   6.8787843
          175         176         177         178         179         180
    1   6.8792960   6.9224463   6.9224463  12.0084787  12.0253834  12.0253834
          181         182         183         184         185         186
    1  12.0484890  12.0684403  12.0684403  12.0708402  12.0860505  12.1165240
          187         188         189         190         191         192
    1  12.1165240  12.2919054  12.2922253  25.7615927  25.7615927  26.1169800
          193
    1  26.6477221
 SCF time:   CPU 41.82s  wall 45.00s 
 SCF   energy in the final basis set =    -3476.8525357139
 Total energy in the final basis set =    -3476.8525357139
Setting RAS_srDFT_COR/EXC
  
     ##========================================##
     ||                                        ||
     ||              R A S M A N 2             ||
     ||________________________________________||
     ||                                        ||
     ||  Author:                               ||
     ||                                        ||
     ||        David Casanova (2010)           ||
     ||                                        ||
     ##========================================##
  
  ***************************************************
  *  RAS-CI Dimensions:                             *
  *                                                 *
  *  Active Elec.:  17 ( 9, 8)   Active Orb.:   9   *
  *  Doubly Occ. :  41           Doubly Vir.: 143   *
  *  Frozen Occ. :  29           Frozen Vir.:   0   *
  *                                                 *
  *  Total CI configurations:     16752             * 
  *    Active configurations:         9             * 
  *      Hole configurations:        12             * 
  *  Particle configurations:     16731             * 
  *                                                 *
  *   Requested states:       15                    *
  *  Spin multiplicity: Any multiplicity            *
  *                                                 *
  ***************************************************
-----------------------------------------
    Memory requirements of RASCI

 Each CI-vector requires      0.13 MiB 
 Max. subspace vectors           1500      

 Reduced Lists                0.00 MiB 
 Excitation Lists             0.00 MiB 
 Excitation Lists Sign        0.00 MiB 
 CI-space (Max)             210.81 MiB 
 Integrals                   48.54 MiB 
 Memory required (Max)      210.81 MiB 
 Memory available          1907.35 MiB 

    Disk requirements of RASCI

 Fock matrix                  0.57 MiB 
 2-electron integrals        54.85 MiB 
 CI-space                   383.42 MiB 
 Disk required              438.84 MiB 
-----------------------------------------
  
RAS1 HF-like energy:          -3420.8696689778
 Computing integrals
 Computing J and K matrices
 Computing addressing
 Making amplitude guesses
 
Direct CI diagonalization
 ---------------------------------------------------
 Iter    Rts Conv    Rts Left    Ttl Dev     Max Dev
 ---------------------------------------------------
   1         0          15      0.036950    0.005022
   2         0          15      0.019622    0.002558
   3         0          15      0.012715    0.001560
   4         0          15      0.011675    0.001861
   5         0          15      0.007141    0.001716
   6         0          15      0.004603    0.001273
   7         0          15      0.004510    0.001323
   8         0          15      0.003520    0.001267
   9         0          15      0.004060    0.002025
  10         0          15      0.003350    0.001493
  11         0          15      0.002806    0.001218
  12         0          15      0.001638    0.000784
  13         0          15      0.001007    0.000361
  14         0          15      0.001030    0.000460
  15         0          15      0.000737    0.000298
  16         0          15      0.000490    0.000239
  17         0          15      0.000406    0.000148
  18         0          15      0.000330    0.000162
  19         1          14      0.000214    0.000083
  20         1          14      0.000162    0.000063
  21         7           8      0.000162    0.000070
  22         8           7      0.000090    0.000034
  23         9           6      0.000084    0.000038
  24        11           4      0.000067    0.000025
  25        11           4      0.000056    0.000021
  26        11           4      0.000033    0.000011
  27        13           2      0.000037    0.000015
  28        13           2      0.000028    0.000010
  29        13           2      0.000023    0.000006
  30        13           2      0.000019    0.000005
  31        13           2      0.000021    0.000006
  32        14           1      0.000016    0.000003
  33        14           1      0.000016    0.000003
  34        14           1      0.000015    0.000002
  35        14           1      0.000016    0.000002
  36        15           0      0.000014    0.000001    Roots Converged
 ---------------------------------------------------
   
**************************************************
 RAS-CI total energy for state   1:  -3477.172385970024
  Excitation energy (eV) =  0.000000000000
  Warning: not all configurations have same symmetry
  State symmetry: *Ag    (D2h      )
  <S^2>      :  0.7500
  Dipole Moment:    0.0000 X     0.0000 Y    -0.0000 Z
 NATURAL OCCUPATION NUMBERS (higher than 1.0E-05)
            1           2           3           4           5           6
    1   2.0000000   2.0000000   2.0000000   2.0000000   2.0000000   2.0000000
            7           8           9          10          11          12
    1   2.0000000   2.0000000   2.0000000   2.0000000   2.0000000   2.0000000
           13          14          15          16          17          18
    1   2.0000000   2.0000000   2.0000000   2.0000000   2.0000000   2.0000000
           19          20          21          22          23          24
    1   2.0000000   2.0000000   2.0000000   2.0000000   2.0000000   2.0000000
           25          26          27          28          29          30
    1   2.0000000   2.0000000   2.0000000   2.0000000   2.0000000   2.0000000
           31          32          33          34          35          36
    1   2.0000000   2.0000000   2.0000000   2.0000000   2.0000000   2.0000000
           37          38          39          40          41          42
    1   2.0000000   2.0000000   2.0000000   2.0000000   1.9999942   1.9997616
           43          44          45          46          47          48
    1   1.9996316   1.9996316   1.9968726   1.9968726   1.9965145   1.9955982
           49          50          51          52          53          54
    1   1.9906785   1.0070778   0.0038252   0.0034532   0.0029948   0.0029948
           55          56          57          58          59          60
    1   0.0026676   0.0001813   0.0001740   0.0001635   0.0001635   0.0001515
           61          62          63          64          65          66
    1   0.0001515   0.0001286   0.0000790   0.0000763   0.0000554   0.0000263
           67          68          69          70
    1   0.0000148   0.0000126   0.0000105   0.0000105
Natural Orbitals stored in FCHK

  Amplitudes : 
  
 | HOLE  | ALPHA     | BETA      | PART  |    AMPLITUDE 
--------------------------------------------------
 |       | 111111111 | 111111110 |       |     8.3620595381600E-01
 |       | 111111111 | 011111111 |       |    -4.5764636513706E-01
--------------------------------------------------
*** Contributions RASCI wfn    Active:  90.87
                                 Hole:   0.03
                                 Part:   9.11

      Mulliken population analysis 
 ---------------------------------------------------
   Atom    Charge (a.u.)   Spin (a.u.)  
 ---------------------------------------------------
   1 Cu    1.153037        0.799323 
   2 Cl   -0.788259        0.050169 
   3 Cl   -0.788259        0.050169 
   4 Cl   -0.788259        0.050169 
   5 Cl   -0.788259        0.050169 
 ---------------------------------------------------
   Sum:   -2.000000        1.000000 
 ---------------------------------------------------
 
  
 NATURAL OCCUPATION NUMBERS (higher than 1.0E-05)
            1           2           3           4           5           6
    1   2.0000000   2.0000000   2.0000000   2.0000000   2.0000000   2.0000000
            7           8           9          10          11          12
    1   2.0000000   2.0000000   2.0000000   2.0000000   2.0000000   2.0000000
           13          14          15          16          17          18
    1   2.0000000   2.0000000   2.0000000   2.0000000   2.0000000   2.0000000
           19          20          21          22          23          24
    1   2.0000000   2.0000000   2.0000000   2.0000000   2.0000000   2.0000000
           25          26          27          28          29          30
    1   2.0000000   2.0000000   2.0000000   2.0000000   2.0000000   2.0000000
           31          32          33          34          35          36
    1   2.0000000   2.0000000   2.0000000   2.0000000   2.0000000   2.0000000
           37          38          39          40          41          42
    1   2.0000000   2.0000000   2.0000000   2.0000000   1.9999942   1.9997616
           43          44          45          46          47          48
    1   1.9996316   1.9996316   1.9968726   1.9968726   1.9965145   1.9955982
           49          50          51          52          53          54
    1   1.9906785   1.0070778   0.0038252   0.0034532   0.0029948   0.0029948
           55          56          57          58          59          60
    1   0.0026676   0.0001813   0.0001740   0.0001635   0.0001635   0.0001515
           61          62          63          64          65          66
    1   0.0001515   0.0001286   0.0000790   0.0000763   0.0000554   0.0000263
           67          68          69          70
    1   0.0000148   0.0000126   0.0000105   0.0000105
  
*** Unpaired Electrons
 Yamaguchi Nd:         1.08
 Head-Gordon Nu:       1.03
 Head-Gordon Nu_nl:    1.00
  
**************************************************
 RAS-CI total energy for state   2:  -3477.131084347608
  Excitation energy (eV) =  1.123874326872
  Warning: not all configurations have same symmetry
  State symmetry: *Ag    (D2h      )
  <S^2>      :  0.7500
  Dipole Moment:    0.0000 X     0.0000 Y    -0.0000 Z
  Trans. Moment:   -0.0000 X     0.0000 Y     0.0000 Z
  Strength   :  0.000000
  Natural transition orbitals ( 1 -> 2 ):
   e-/hole pair  1 alpha:  ampl =  0.004459 (  0.0%)   [9 : 10]
   e-/hole pair  2 alpha:  ampl =  0.003835 (  0.0%)   [8 : 11]
   e-/hole pair  1 beta :  ampl =  0.992281 ( 98.5%)   [9 : 10]
   e-/hole pair  2 beta :  ampl =  0.027793 (  0.1%)   [8 : 11]
   Sum of square amplitudes: 0.99

 NATURAL OCCUPATION NUMBERS (higher than 1.0E-05)
            1           2           3           4           5           6
    1   2.0000000   2.0000000   2.0000000   2.0000000   2.0000000   2.0000000
            7           8           9          10          11          12
    1   2.0000000   2.0000000   2.0000000   2.0000000   2.0000000   2.0000000
           13          14          15          16          17          18
    1   2.0000000   2.0000000   2.0000000   2.0000000   2.0000000   2.0000000
           19          20          21          22          23          24
    1   2.0000000   2.0000000   2.0000000   2.0000000   2.0000000   2.0000000
           25          26          27          28          29          30
    1   2.0000000   2.0000000   2.0000000   2.0000000   2.0000000   2.0000000
           31          32          33          34          35          36
    1   2.0000000   2.0000000   2.0000000   2.0000000   2.0000000   2.0000000
           37          38          39          40          41          42
    1   2.0000000   2.0000000   2.0000000   2.0000000   2.0000000   1.9998339
           43          44          45          46          47          48
    1   1.9997897   1.9997897   1.9977442   1.9977442   1.9976417   1.9975817
           49          50          51          52          53          54
    1   1.9966404   1.0009608   0.0031606   0.0022820   0.0021247   0.0021247
           55          56          57          58          59          60
    1   0.0018090   0.0001563   0.0001563   0.0001376   0.0001111   0.0000314
           61          62          63          64          65          66
    1   0.0000266   0.0000266   0.0000259   0.0000183   0.0000164   0.0000159
           67          68          69
    1   0.0000126   0.0000106   0.0000106
Natural Orbitals stored in FCHK

  Amplitudes : 
  
 | HOLE  | ALPHA     | BETA      | PART  |    AMPLITUDE 
--------------------------------------------------
 |       | 111111111 | 111110111 |       |     7.9115796417156E-01
 |       | 111111111 | 110111111 |       |    -5.2108483526070E-01
--------------------------------------------------
*** Contributions RASCI wfn    Active:  89.75
                                 Hole:   0.00
                                 Part:  10.25

      Mulliken population analysis 
 ---------------------------------------------------
   Atom    Charge (a.u.)   Spin (a.u.)  
 ---------------------------------------------------
   1 Cu    1.270634        0.965327 
   2 Cl   -0.817659        0.008668 
   3 Cl   -0.817659        0.008668 
   4 Cl   -0.817659        0.008668 
   5 Cl   -0.817659        0.008668 
 ---------------------------------------------------
   Sum:   -2.000000        1.000000 
 ---------------------------------------------------
 
  
 NATURAL OCCUPATION NUMBERS (higher than 1.0E-05)
            1           2           3           4           5           6
    1   2.0000000   2.0000000   2.0000000   2.0000000   2.0000000   2.0000000
            7           8           9          10          11          12
    1   2.0000000   2.0000000   2.0000000   2.0000000   2.0000000   2.0000000
           13          14          15          16          17          18
    1   2.0000000   2.0000000   2.0000000   2.0000000   2.0000000   2.0000000
           19          20          21          22          23          24
    1   2.0000000   2.0000000   2.0000000   2.0000000   2.0000000   2.0000000
           25          26          27          28          29          30
    1   2.0000000   2.0000000   2.0000000   2.0000000   2.0000000   2.0000000
           31          32          33          34          35          36
    1   2.0000000   2.0000000   2.0000000   2.0000000   2.0000000   2.0000000
           37          38          39          40          41          42
    1   2.0000000   2.0000000   2.0000000   2.0000000   2.0000000   1.9998339
           43          44          45          46          47          48
    1   1.9997897   1.9997897   1.9977442   1.9977442   1.9976417   1.9975817
           49          50          51          52          53          54
    1   1.9966404   1.0009608   0.0031606   0.0022820   0.0021247   0.0021247
           55          56          57          58          59          60
    1   0.0018090   0.0001563   0.0001563   0.0001376   0.0001111   0.0000314
           61          62          63          64          65          66
    1   0.0000266   0.0000266   0.0000259   0.0000183   0.0000164   0.0000159
           67          68          69
    1   0.0000126   0.0000106   0.0000106
  
*** Unpaired Electrons
 Yamaguchi Nd:         1.05
 Head-Gordon Nu:       1.02
 Head-Gordon Nu_nl:    1.00
  
**************************************************
 RAS-CI total energy for state   3:  -3477.120399458132
  Excitation energy (eV) =  1.414624962431
  Warning: not all configurations have same symmetry
  State symmetry: *B3u   (D2h      )
  <S^2>      :  0.7500
  Dipole Moment:    0.0000 X     0.0000 Y    -0.0000 Z
  Trans. Moment:   -0.0000 X     0.0000 Y     0.0000 Z
  Strength   :  0.000000
  Natural transition orbitals ( 1 -> 3 ):
   e-/hole pair  1 alpha:  ampl =  0.008407 (  0.0%)   [9 : 10]
   e-/hole pair  2 alpha:  ampl =  0.007814 (  0.0%)   [8 : 11]
   e-/hole pair  1 beta :  ampl =  0.991660 ( 98.3%)   [9 : 10]
   e-/hole pair  2 beta :  ampl =  0.026236 (  0.1%)   [8 : 11]
   Sum of square amplitudes: 0.98

 NATURAL OCCUPATION NUMBERS (higher than 1.0E-05)
            1           2           3           4           5           6
    1   2.0000000   2.0000000   2.0000000   2.0000000   2.0000000   2.0000000
            7           8           9          10          11          12
    1   2.0000000   2.0000000   2.0000000   2.0000000   2.0000000   2.0000000
           13          14          15          16          17          18
    1   2.0000000   2.0000000   2.0000000   2.0000000   2.0000000   2.0000000
           19          20          21          22          23          24
    1   2.0000000   2.0000000   2.0000000   2.0000000   2.0000000   2.0000000
           25          26          27          28          29          30
    1   2.0000000   2.0000000   2.0000000   2.0000000   2.0000000   2.0000000
           31          32          33          34          35          36
    1   2.0000000   2.0000000   2.0000000   2.0000000   2.0000000   2.0000000
           37          38          39          40          41          42
    1   2.0000000   2.0000000   2.0000000   2.0000000   2.0000000   1.9998332
           43          44          45          46          47          48
    1   1.9998198   1.9997503   1.9977141   1.9975602   1.9974704   1.9969648
           49          50          51          52          53          54
    1   1.9961924   1.0014975   0.0038153   0.0022740   0.0021632   0.0021337
           55          56          57          58          59          60
    1   0.0018991   0.0001571   0.0001530   0.0001496   0.0001158   0.0001014
           61          62          63          64          65
    1   0.0000909   0.0000525   0.0000379   0.0000137   0.0000111
Natural Orbitals stored in FCHK

  Amplitudes : 
  
 | HOLE  | ALPHA     | BETA      | PART  |    AMPLITUDE 
--------------------------------------------------
 |       | 111111111 | 111111011 |       |    -6.2143932538987E-01
 |       | 111111111 | 111011111 |       |     7.1362760156956E-01
--------------------------------------------------
*** Contributions RASCI wfn    Active:  89.55
                                 Hole:   0.00
                                 Part:  10.45

      Mulliken population analysis 
 ---------------------------------------------------
   Atom    Charge (a.u.)   Spin (a.u.)  
 ---------------------------------------------------
   1 Cu    1.266246        0.966409 
   2 Cl   -0.807014        0.017971 
   3 Cl   -0.826109       -0.001176 
   4 Cl   -0.826109       -0.001176 
   5 Cl   -0.807014        0.017971 
 ---------------------------------------------------
   Sum:   -2.000000        1.000000 
 ---------------------------------------------------
 
  
 NATURAL OCCUPATION NUMBERS (higher than 1.0E-05)
            1           2           3           4           5           6
    1   2.0000000   2.0000000   2.0000000   2.0000000   2.0000000   2.0000000
            7           8           9          10          11          12
    1   2.0000000   2.0000000   2.0000000   2.0000000   2.0000000   2.0000000
           13          14          15          16          17          18
    1   2.0000000   2.0000000   2.0000000   2.0000000   2.0000000   2.0000000
           19          20          21          22          23          24
    1   2.0000000   2.0000000   2.0000000   2.0000000   2.0000000   2.0000000
           25          26          27          28          29          30
    1   2.0000000   2.0000000   2.0000000   2.0000000   2.0000000   2.0000000
           31          32          33          34          35          36
    1   2.0000000   2.0000000   2.0000000   2.0000000   2.0000000   2.0000000
           37          38          39          40          41          42
    1   2.0000000   2.0000000   2.0000000   2.0000000   2.0000000   1.9998332
           43          44          45          46          47          48
    1   1.9998198   1.9997503   1.9977141   1.9975602   1.9974704   1.9969648
           49          50          51          52          53          54
    1   1.9961924   1.0014975   0.0038153   0.0022740   0.0021632   0.0021337
           55          56          57          58          59          60
    1   0.0018991   0.0001571   0.0001530   0.0001496   0.0001158   0.0001014
           61          62          63          64          65
    1   0.0000909   0.0000525   0.0000379   0.0000137   0.0000111
  
*** Unpaired Electrons
 Yamaguchi Nd:         1.06
 Head-Gordon Nu:       1.03
 Head-Gordon Nu_nl:    1.00
  
**************************************************
 RAS-CI total energy for state   4:  -3477.120399458125
  Excitation energy (eV) =  1.414624962640
  Warning: not all configurations have same symmetry
  State symmetry: *B2u   (D2h      )
  <S^2>      :  0.7500
  Dipole Moment:    0.0000 X     0.0000 Y     0.0000 Z
  Trans. Moment:   -0.0000 X    -0.0000 Y    -0.0000 Z
  Strength   :  0.000000
  Natural transition orbitals ( 1 -> 4 ):
   e-/hole pair  1 alpha:  ampl =  0.008407 (  0.0%)   [9 : 10]
   e-/hole pair  2 alpha:  ampl =  0.007814 (  0.0%)   [8 : 11]
   e-/hole pair  1 beta :  ampl =  0.991660 ( 98.3%)   [9 : 10]
   e-/hole pair  2 beta :  ampl =  0.026236 (  0.1%)   [8 : 11]
   Sum of square amplitudes: 0.98

 NATURAL OCCUPATION NUMBERS (higher than 1.0E-05)
            1           2           3           4           5           6
    1   2.0000000   2.0000000   2.0000000   2.0000000   2.0000000   2.0000000
            7           8           9          10          11          12
    1   2.0000000   2.0000000   2.0000000   2.0000000   2.0000000   2.0000000
           13          14          15          16          17          18
    1   2.0000000   2.0000000   2.0000000   2.0000000   2.0000000   2.0000000
           19          20          21          22          23          24
    1   2.0000000   2.0000000   2.0000000   2.0000000   2.0000000   2.0000000
           25          26          27          28          29          30
    1   2.0000000   2.0000000   2.0000000   2.0000000   2.0000000   2.0000000
           31          32          33          34          35          36
    1   2.0000000   2.0000000   2.0000000   2.0000000   2.0000000   2.0000000
           37          38          39          40          41          42
    1   2.0000000   2.0000000   2.0000000   2.0000000   2.0000000   1.9998332
           43          44          45          46          47          48
    1   1.9998198   1.9997503   1.9977141   1.9975602   1.9974704   1.9969648
           49          50          51          52          53          54
    1   1.9961924   1.0014975   0.0038153   0.0022740   0.0021632   0.0021337
           55          56          57          58          59          60
    1   0.0018991   0.0001571   0.0001530   0.0001496   0.0001158   0.0001014
           61          62          63          64          65
    1   0.0000909   0.0000525   0.0000379   0.0000137   0.0000111
Natural Orbitals stored in FCHK

  Amplitudes : 
  
 | HOLE  | ALPHA     | BETA      | PART  |    AMPLITUDE 
--------------------------------------------------
 |       | 111111111 | 111111101 |       |     6.2143932597005E-01
 |       | 111111111 | 111101111 |       |     7.1362760106901E-01
--------------------------------------------------
*** Contributions RASCI wfn    Active:  89.55
                                 Hole:   0.00
                                 Part:  10.45

      Mulliken population analysis 
 ---------------------------------------------------
   Atom    Charge (a.u.)   Spin (a.u.)  
 ---------------------------------------------------
   1 Cu    1.266246        0.966409 
   2 Cl   -0.826109       -0.001176 
   3 Cl   -0.807014        0.017971 
   4 Cl   -0.807014        0.017971 
   5 Cl   -0.826109       -0.001176 
 ---------------------------------------------------
   Sum:   -2.000000        1.000000 
 ---------------------------------------------------
 
  
 NATURAL OCCUPATION NUMBERS (higher than 1.0E-05)
            1           2           3           4           5           6
    1   2.0000000   2.0000000   2.0000000   2.0000000   2.0000000   2.0000000
            7           8           9          10          11          12
    1   2.0000000   2.0000000   2.0000000   2.0000000   2.0000000   2.0000000
           13          14          15          16          17          18
    1   2.0000000   2.0000000   2.0000000   2.0000000   2.0000000   2.0000000
           19          20          21          22          23          24
    1   2.0000000   2.0000000   2.0000000   2.0000000   2.0000000   2.0000000
           25          26          27          28          29          30
    1   2.0000000   2.0000000   2.0000000   2.0000000   2.0000000   2.0000000
           31          32          33          34          35          36
    1   2.0000000   2.0000000   2.0000000   2.0000000   2.0000000   2.0000000
           37          38          39          40          41          42
    1   2.0000000   2.0000000   2.0000000   2.0000000   2.0000000   1.9998332
           43          44          45          46          47          48
    1   1.9998198   1.9997503   1.9977141   1.9975602   1.9974704   1.9969648
           49          50          51          52          53          54
    1   1.9961924   1.0014975   0.0038153   0.0022740   0.0021632   0.0021337
           55          56          57          58          59          60
    1   0.0018991   0.0001571   0.0001530   0.0001496   0.0001158   0.0001014
           61          62          63          64          65
    1   0.0000909   0.0000525   0.0000379   0.0000137   0.0000111
  
*** Unpaired Electrons
 Yamaguchi Nd:         1.06
 Head-Gordon Nu:       1.03
 Head-Gordon Nu_nl:    1.00
  
**************************************************
 RAS-CI total energy for state   5:  -3476.983210522700
  Excitation energy (eV) =  5.147725829783
  State symmetry: B2u   (D2h      )
  <S^2>      :  0.7500
  Dipole Moment:   -0.0000 X    -0.0000 Y     0.0000 Z
  Trans. Moment:   -0.0000 X     0.0000 Y    -0.0000 Z
  Strength   :  0.000000
  Natural transition orbitals ( 1 -> 5 ):
   e-/hole pair  1 alpha:  ampl =  0.007038 (  0.0%)   [9 : 10]
   e-/hole pair  2 alpha:  ampl =  0.003272 (  0.0%)   [8 : 11]
   e-/hole pair  1 beta :  ampl =  0.948630 ( 90.0%)   [9 : 10]
   e-/hole pair  2 beta :  ampl =  0.038126 (  0.1%)   [8 : 11]
   Sum of square amplitudes: 0.90

 NATURAL OCCUPATION NUMBERS (higher than 1.0E-05)
            1           2           3           4           5           6
    1   2.0000000   2.0000000   2.0000000   2.0000000   2.0000000   2.0000000
            7           8           9          10          11          12
    1   2.0000000   2.0000000   2.0000000   2.0000000   2.0000000   2.0000000
           13          14          15          16          17          18
    1   2.0000000   2.0000000   2.0000000   2.0000000   2.0000000   2.0000000
           19          20          21          22          23          24
    1   2.0000000   2.0000000   2.0000000   2.0000000   2.0000000   2.0000000
           25          26          27          28          29          30
    1   2.0000000   2.0000000   2.0000000   2.0000000   2.0000000   2.0000000
           31          32          33          34          35          36
    1   2.0000000   2.0000000   2.0000000   2.0000000   2.0000000   2.0000000
           37          38          39          40          41          42
    1   2.0000000   2.0000000   2.0000000   2.0000000   1.9999688   1.9999688
           43          44          45          46          47          48
    1   1.9999272   1.9997663   1.9994085   1.9985377   1.9985377   1.9939187
           49          50          51          52          53          54
    1   1.9900732   1.0099466   0.0059448   0.0013332   0.0013332   0.0004558
           55          56          57          58          59          60
    1   0.0002939   0.0001602   0.0000508   0.0000444   0.0000335   0.0000335
           61          62          63          64          65          66
    1   0.0000277   0.0000277   0.0000266   0.0000217   0.0000206   0.0000202
           67          68          69          70          71          72
    1   0.0000178   0.0000178   0.0000161   0.0000149   0.0000135   0.0000116
           73
    1   0.0000116
Natural Orbitals stored in FCHK

  Amplitudes : 
  
 | HOLE  | ALPHA     | BETA      | PART  |    AMPLITUDE 
--------------------------------------------------
 |  41   | 111111111 | 111111111 |       |     9.9501427443486E-01
--------------------------------------------------
*** Contributions RASCI wfn    Active:   0.00
                                 Hole:  99.01
                                 Part:   0.99

      Mulliken population analysis 
 ---------------------------------------------------
   Atom    Charge (a.u.)   Spin (a.u.)  
 ---------------------------------------------------
   1 Cu    0.653321        0.000370 
   2 Cl   -0.663330        0.249907 
   3 Cl   -0.663330        0.249907 
   4 Cl   -0.663330        0.249907 
   5 Cl   -0.663330        0.249907 
 ---------------------------------------------------
   Sum:   -2.000000        1.000000 
 ---------------------------------------------------
 
  
 NATURAL OCCUPATION NUMBERS (higher than 1.0E-05)
            1           2           3           4           5           6
    1   2.0000000   2.0000000   2.0000000   2.0000000   2.0000000   2.0000000
            7           8           9          10          11          12
    1   2.0000000   2.0000000   2.0000000   2.0000000   2.0000000   2.0000000
           13          14          15          16          17          18
    1   2.0000000   2.0000000   2.0000000   2.0000000   2.0000000   2.0000000
           19          20          21          22          23          24
    1   2.0000000   2.0000000   2.0000000   2.0000000   2.0000000   2.0000000
           25          26          27          28          29          30
    1   2.0000000   2.0000000   2.0000000   2.0000000   2.0000000   2.0000000
           31          32          33          34          35          36
    1   2.0000000   2.0000000   2.0000000   2.0000000   2.0000000   2.0000000
           37          38          39          40          41          42
    1   2.0000000   2.0000000   2.0000000   2.0000000   1.9999688   1.9999688
           43          44          45          46          47          48
    1   1.9999272   1.9997663   1.9994085   1.9985377   1.9985377   1.9939187
           49          50          51          52          53          54
    1   1.9900732   1.0099466   0.0059448   0.0013332   0.0013332   0.0004558
           55          56          57          58          59          60
    1   0.0002939   0.0001602   0.0000508   0.0000444   0.0000335   0.0000335
           61          62          63          64          65          66
    1   0.0000277   0.0000277   0.0000266   0.0000217   0.0000206   0.0000202
           67          68          69          70          71          72
    1   0.0000178   0.0000178   0.0000161   0.0000149   0.0000135   0.0000116
           73
    1   0.0000116
  
*** Unpaired Electrons
 Yamaguchi Nd:         1.06
 Head-Gordon Nu:       1.02
 Head-Gordon Nu_nl:    1.00
  
**************************************************
 RAS-CI total energy for state   6:  -3476.971046627410
  Excitation energy (eV) =  5.478722261210
  Warning: not all configurations have same symmetry
  State symmetry: *B3u   (D2h      )
  <S^2>      :  0.7500
  Dipole Moment:   -0.0000 X     0.0000 Y     0.0000 Z
  Trans. Moment:    0.0000 X     0.0000 Y    -0.0000 Z
  Strength   :  0.000000
  Natural transition orbitals ( 1 -> 6 ):
   e-/hole pair  1 alpha:  ampl =  0.016554 (  0.0%)   [9 : 10]
   e-/hole pair  2 alpha:  ampl =  0.004552 (  0.0%)   [8 : 11]
   e-/hole pair  1 beta :  ampl =  0.950612 ( 90.4%)   [9 : 10]
   e-/hole pair  2 beta :  ampl =  0.048800 (  0.2%)   [8 : 11]
   Sum of square amplitudes: 0.91

 NATURAL OCCUPATION NUMBERS (higher than 1.0E-05)
            1           2           3           4           5           6
    1   2.0000000   2.0000000   2.0000000   2.0000000   2.0000000   2.0000000
            7           8           9          10          11          12
    1   2.0000000   2.0000000   2.0000000   2.0000000   2.0000000   2.0000000
           13          14          15          16          17          18
    1   2.0000000   2.0000000   2.0000000   2.0000000   2.0000000   2.0000000
           19          20          21          22          23          24
    1   2.0000000   2.0000000   2.0000000   2.0000000   2.0000000   2.0000000
           25          26          27          28          29          30
    1   2.0000000   2.0000000   2.0000000   2.0000000   2.0000000   2.0000000
           31          32          33          34          35          36
    1   2.0000000   2.0000000   2.0000000   2.0000000   2.0000000   2.0000000
           37          38          39          40          41          42
    1   2.0000000   2.0000000   2.0000000   2.0000000   1.9998188   1.9996911
           43          44          45          46          47          48
    1   1.9996911   1.9994534   1.9940402   1.9937134   1.9933725   1.9933725
           49          50          51          52          53          54
    1   1.9668348   1.0296887   0.0065305   0.0065305   0.0058393   0.0052492
           55          56          57          58          59          60
    1   0.0049263   0.0002905   0.0002087   0.0002087   0.0001449   0.0001274
           61          62          63          64          65          66
    1   0.0000609   0.0000609   0.0000319   0.0000253   0.0000210   0.0000152
           67
    1   0.0000115
Natural Orbitals stored in FCHK

  Amplitudes : 
  
 | HOLE  | ALPHA     | BETA      | PART  |    AMPLITUDE 
--------------------------------------------------
 |       | 111111111 | 101111111 |       |     2.5942793572504E-01
 |  37   | 111111111 | 111111111 |       |     9.4887133565459E-01
--------------------------------------------------
*** Contributions RASCI wfn    Active:   6.73
                                 Hole:  90.04
                                 Part:   3.23

      Mulliken population analysis 
 ---------------------------------------------------
   Atom    Charge (a.u.)   Spin (a.u.)  
 ---------------------------------------------------
   1 Cu    1.535977        0.931548 
   2 Cl   -0.883994        0.017113 
   3 Cl   -0.883994        0.017113 
   4 Cl   -0.883994        0.017113 
   5 Cl   -0.883994        0.017113 
 ---------------------------------------------------
   Sum:   -2.000000        1.000000 
 ---------------------------------------------------
 
  
 NATURAL OCCUPATION NUMBERS (higher than 1.0E-05)
            1           2           3           4           5           6
    1   2.0000000   2.0000000   2.0000000   2.0000000   2.0000000   2.0000000
            7           8           9          10          11          12
    1   2.0000000   2.0000000   2.0000000   2.0000000   2.0000000   2.0000000
           13          14          15          16          17          18
    1   2.0000000   2.0000000   2.0000000   2.0000000   2.0000000   2.0000000
           19          20          21          22          23          24
    1   2.0000000   2.0000000   2.0000000   2.0000000   2.0000000   2.0000000
           25          26          27          28          29          30
    1   2.0000000   2.0000000   2.0000000   2.0000000   2.0000000   2.0000000
           31          32          33          34          35          36
    1   2.0000000   2.0000000   2.0000000   2.0000000   2.0000000   2.0000000
           37          38          39          40          41          42
    1   2.0000000   2.0000000   2.0000000   2.0000000   1.9998188   1.9996911
           43          44          45          46          47          48
    1   1.9996911   1.9994534   1.9940402   1.9937134   1.9933725   1.9933725
           49          50          51          52          53          54
    1   1.9668348   1.0296887   0.0065305   0.0065305   0.0058393   0.0052492
           55          56          57          58          59          60
    1   0.0049263   0.0002905   0.0002087   0.0002087   0.0001449   0.0001274
           61          62          63          64          65          66
    1   0.0000609   0.0000609   0.0000319   0.0000253   0.0000210   0.0000152
           67
    1   0.0000115
  
*** Unpaired Electrons
 Yamaguchi Nd:         1.18
 Head-Gordon Nu:       1.06
 Head-Gordon Nu_nl:    1.00
  
**************************************************
 RAS-CI total energy for state   7:  -3476.965407787747
  Excitation energy (eV) =  5.632162895249
  State symmetry: B3u   (D2h      )
  <S^2>      :  0.7500
  Dipole Moment:    0.0000 X    -0.0000 Y    -0.0000 Z
  Trans. Moment:   -0.7854 X     0.0234 Y    -0.0000 Z
  Strength   :  0.085199
  Natural transition orbitals ( 1 -> 7 ):
   e-/hole pair  1 alpha:  ampl =  0.019712 (  0.0%)   [9 : 10]
   e-/hole pair  2 alpha:  ampl =  0.018756 (  0.0%)   [8 : 11]
   e-/hole pair  1 beta :  ampl =  0.946730 ( 89.6%)   [9 : 10]
   e-/hole pair  2 beta :  ampl =  0.022521 (  0.1%)   [8 : 11]
   Sum of square amplitudes: 0.90

 NATURAL OCCUPATION NUMBERS (higher than 1.0E-05)
            1           2           3           4           5           6
    1   2.0000000   2.0000000   2.0000000   2.0000000   2.0000000   2.0000000
            7           8           9          10          11          12
    1   2.0000000   2.0000000   2.0000000   2.0000000   2.0000000   2.0000000
           13          14          15          16          17          18
    1   2.0000000   2.0000000   2.0000000   2.0000000   2.0000000   2.0000000
           19          20          21          22          23          24
    1   2.0000000   2.0000000   2.0000000   2.0000000   2.0000000   2.0000000
           25          26          27          28          29          30
    1   2.0000000   2.0000000   2.0000000   2.0000000   2.0000000   2.0000000
           31          32          33          34          35          36
    1   2.0000000   2.0000000   2.0000000   2.0000000   2.0000000   2.0000000
           37          38          39          40          41          42
    1   2.0000000   2.0000000   2.0000000   2.0000000   1.9996817   1.9994409
           43          44          45          46          47          48
    1   1.9993640   1.9992366   1.9977670   1.9971068   1.9967848   1.9929855
           49          50          51          52          53          54
    1   1.9898159   1.0139084   0.0046038   0.0025451   0.0024337   0.0011702
           55          56          57          58          59          60
    1   0.0005502   0.0005050   0.0004791   0.0003913   0.0002734   0.0002496
           61          62          63          64          65          66
    1   0.0001561   0.0001247   0.0001090   0.0000860   0.0000408   0.0000280
           67          68          69          70          71          72
    1   0.0000240   0.0000236   0.0000189   0.0000168   0.0000149   0.0000142
           73
    1   0.0000142
Natural Orbitals stored in FCHK

  Amplitudes : 
  
 | HOLE  | ALPHA     | BETA      | PART  |    AMPLITUDE 
--------------------------------------------------
 |  40   | 111111111 | 111111111 |       |     9.9082136753626E-01
--------------------------------------------------
*** Contributions RASCI wfn    Active:   0.00
                                 Hole:  98.61
                                 Part:   1.39

      Mulliken population analysis 
 ---------------------------------------------------
   Atom    Charge (a.u.)   Spin (a.u.)  
 ---------------------------------------------------
   1 Cu    0.655366        0.000676 
   2 Cl   -0.728218        0.185605 
   3 Cl   -0.599465        0.314056 
   4 Cl   -0.599465        0.314056 
   5 Cl   -0.728218        0.185605 
 ---------------------------------------------------
   Sum:   -2.000000        1.000000 
 ---------------------------------------------------
 
  
 NATURAL OCCUPATION NUMBERS (higher than 1.0E-05)
            1           2           3           4           5           6
    1   2.0000000   2.0000000   2.0000000   2.0000000   2.0000000   2.0000000
            7           8           9          10          11          12
    1   2.0000000   2.0000000   2.0000000   2.0000000   2.0000000   2.0000000
           13          14          15          16          17          18
    1   2.0000000   2.0000000   2.0000000   2.0000000   2.0000000   2.0000000
           19          20          21          22          23          24
    1   2.0000000   2.0000000   2.0000000   2.0000000   2.0000000   2.0000000
           25          26          27          28          29          30
    1   2.0000000   2.0000000   2.0000000   2.0000000   2.0000000   2.0000000
           31          32          33          34          35          36
    1   2.0000000   2.0000000   2.0000000   2.0000000   2.0000000   2.0000000
           37          38          39          40          41          42
    1   2.0000000   2.0000000   2.0000000   2.0000000   1.9996817   1.9994409
           43          44          45          46          47          48
    1   1.9993640   1.9992366   1.9977670   1.9971068   1.9967848   1.9929855
           49          50          51          52          53          54
    1   1.9898159   1.0139084   0.0046038   0.0025451   0.0024337   0.0011702
           55          56          57          58          59          60
    1   0.0005502   0.0005050   0.0004791   0.0003913   0.0002734   0.0002496
           61          62          63          64          65          66
    1   0.0001561   0.0001247   0.0001090   0.0000860   0.0000408   0.0000280
           67          68          69          70          71          72
    1   0.0000240   0.0000236   0.0000189   0.0000168   0.0000149   0.0000142
           73
    1   0.0000142
  
*** Unpaired Electrons
 Yamaguchi Nd:         1.08
 Head-Gordon Nu:       1.03
 Head-Gordon Nu_nl:    1.00
  
**************************************************
 RAS-CI total energy for state   8:  -3476.965407787705
  Excitation energy (eV) =  5.632162896380
  State symmetry: Ag    (D2h      )
  <S^2>      :  0.7500
  Dipole Moment:    0.0000 X    -0.0000 Y    -0.0000 Z
  Trans. Moment:   -0.0234 X    -0.7854 Y     0.0000 Z
  Strength   :  0.085199
  Natural transition orbitals ( 1 -> 8 ):
   e-/hole pair  1 alpha:  ampl =  0.019712 (  0.0%)   [9 : 10]
   e-/hole pair  2 alpha:  ampl =  0.018756 (  0.0%)   [8 : 11]
   e-/hole pair  1 beta :  ampl =  0.946730 ( 89.6%)   [9 : 10]
   e-/hole pair  2 beta :  ampl =  0.022521 (  0.1%)   [8 : 11]
   Sum of square amplitudes: 0.90

 NATURAL OCCUPATION NUMBERS (higher than 1.0E-05)
            1           2           3           4           5           6
    1   2.0000000   2.0000000   2.0000000   2.0000000   2.0000000   2.0000000
            7           8           9          10          11          12
    1   2.0000000   2.0000000   2.0000000   2.0000000   2.0000000   2.0000000
           13          14          15          16          17          18
    1   2.0000000   2.0000000   2.0000000   2.0000000   2.0000000   2.0000000
           19          20          21          22          23          24
    1   2.0000000   2.0000000   2.0000000   2.0000000   2.0000000   2.0000000
           25          26          27          28          29          30
    1   2.0000000   2.0000000   2.0000000   2.0000000   2.0000000   2.0000000
           31          32          33          34          35          36
    1   2.0000000   2.0000000   2.0000000   2.0000000   2.0000000   2.0000000
           37          38          39          40          41          42
    1   2.0000000   2.0000000   2.0000000   2.0000000   1.9996817   1.9994409
           43          44          45          46          47          48
    1   1.9993640   1.9992366   1.9977670   1.9971068   1.9967848   1.9929855
           49          50          51          52          53          54
    1   1.9898159   1.0139084   0.0046038   0.0025451   0.0024337   0.0011702
           55          56          57          58          59          60
    1   0.0005502   0.0005050   0.0004791   0.0003913   0.0002734   0.0002496
           61          62          63          64          65          66
    1   0.0001561   0.0001247   0.0001090   0.0000860   0.0000408   0.0000280
           67          68          69          70          71          72
    1   0.0000240   0.0000236   0.0000189   0.0000168   0.0000149   0.0000142
           73
    1   0.0000142
Natural Orbitals stored in FCHK

  Amplitudes : 
  
 | HOLE  | ALPHA     | BETA      | PART  |    AMPLITUDE 
--------------------------------------------------
 |  39   | 111111111 | 111111111 |       |     9.9082136732029E-01
--------------------------------------------------
*** Contributions RASCI wfn    Active:   0.00
                                 Hole:  98.61
                                 Part:   1.39

      Mulliken population analysis 
 ---------------------------------------------------
   Atom    Charge (a.u.)   Spin (a.u.)  
 ---------------------------------------------------
   1 Cu    0.655366        0.000676 
   2 Cl   -0.599465        0.314056 
   3 Cl   -0.728218        0.185605 
   4 Cl   -0.728218        0.185605 
   5 Cl   -0.599465        0.314056 
 ---------------------------------------------------
   Sum:   -2.000000        1.000000 
 ---------------------------------------------------
 
  
 NATURAL OCCUPATION NUMBERS (higher than 1.0E-05)
            1           2           3           4           5           6
    1   2.0000000   2.0000000   2.0000000   2.0000000   2.0000000   2.0000000
            7           8           9          10          11          12
    1   2.0000000   2.0000000   2.0000000   2.0000000   2.0000000   2.0000000
           13          14          15          16          17          18
    1   2.0000000   2.0000000   2.0000000   2.0000000   2.0000000   2.0000000
           19          20          21          22          23          24
    1   2.0000000   2.0000000   2.0000000   2.0000000   2.0000000   2.0000000
           25          26          27          28          29          30
    1   2.0000000   2.0000000   2.0000000   2.0000000   2.0000000   2.0000000
           31          32          33          34          35          36
    1   2.0000000   2.0000000   2.0000000   2.0000000   2.0000000   2.0000000
           37          38          39          40          41          42
    1   2.0000000   2.0000000   2.0000000   2.0000000   1.9996817   1.9994409
           43          44          45          46          47          48
    1   1.9993640   1.9992366   1.9977670   1.9971068   1.9967848   1.9929855
           49          50          51          52          53          54
    1   1.9898159   1.0139084   0.0046038   0.0025451   0.0024337   0.0011702
           55          56          57          58          59          60
    1   0.0005502   0.0005050   0.0004791   0.0003913   0.0002734   0.0002496
           61          62          63          64          65          66
    1   0.0001561   0.0001247   0.0001090   0.0000860   0.0000408   0.0000280
           67          68          69          70          71          72
    1   0.0000240   0.0000236   0.0000189   0.0000168   0.0000149   0.0000142
           73
    1   0.0000142
  
*** Unpaired Electrons
 Yamaguchi Nd:         1.08
 Head-Gordon Nu:       1.03
 Head-Gordon Nu_nl:    1.00
  
**************************************************
 RAS-CI total energy for state   9:  -3476.961938676731
  Excitation energy (eV) =  5.726562208888
  State symmetry: B2u   (D2h      )
  <S^2>      :  0.7500
  Dipole Moment:   -0.0000 X    -0.0000 Y    -0.0000 Z
  Trans. Moment:   -0.0000 X     0.0000 Y     0.0202 Z
  Strength   :  0.000057
  Natural transition orbitals ( 1 -> 9 ):
   e-/hole pair  1 alpha:  ampl =  0.005643 (  0.0%)   [9 : 10]
   e-/hole pair  2 alpha:  ampl =  0.005643 (  0.0%)   [8 : 11]
   e-/hole pair  1 beta :  ampl =  0.943121 ( 88.9%)   [9 : 10]
   e-/hole pair  2 beta :  ampl =  0.033146 (  0.1%)   [8 : 11]
   Sum of square amplitudes: 0.89

 NATURAL OCCUPATION NUMBERS (higher than 1.0E-05)
            1           2           3           4           5           6
    1   2.0000000   2.0000000   2.0000000   2.0000000   2.0000000   2.0000000
            7           8           9          10          11          12
    1   2.0000000   2.0000000   2.0000000   2.0000000   2.0000000   2.0000000
           13          14          15          16          17          18
    1   2.0000000   2.0000000   2.0000000   2.0000000   2.0000000   2.0000000
           19          20          21          22          23          24
    1   2.0000000   2.0000000   2.0000000   2.0000000   2.0000000   2.0000000
           25          26          27          28          29          30
    1   2.0000000   2.0000000   2.0000000   2.0000000   2.0000000   2.0000000
           31          32          33          34          35          36
    1   2.0000000   2.0000000   2.0000000   2.0000000   2.0000000   2.0000000
           37          38          39          40          41          42
    1   2.0000000   2.0000000   2.0000000   2.0000000   1.9991754   1.9991062
           43          44          45          46          47          48
    1   1.9988028   1.9988028   1.9987460   1.9981106   1.9919952   1.9862191
           49          50          51          52          53          54
    1   1.9862191   1.0214115   0.0058171   0.0045278   0.0045278   0.0014749
           55          56          57          58          59          60
    1   0.0008507   0.0008507   0.0008104   0.0006003   0.0006003   0.0004266
           61          62          63          64          65          66
    1   0.0002027   0.0002027   0.0001885   0.0000491   0.0000453   0.0000453
           67          68          69          70          71          72
    1   0.0000219   0.0000219   0.0000212   0.0000212   0.0000191   0.0000158
           73          74          75
    1   0.0000115   0.0000115   0.0000111
Natural Orbitals stored in FCHK

  Amplitudes : 
  
 | HOLE  | ALPHA     | BETA      | PART  |    AMPLITUDE 
--------------------------------------------------
 |  38   | 111111111 | 111111111 |       |     9.8923632159161E-01
--------------------------------------------------
*** Contributions RASCI wfn    Active:   0.00
                                 Hole:  97.86
                                 Part:   2.14

      Mulliken population analysis 
 ---------------------------------------------------
   Atom    Charge (a.u.)   Spin (a.u.)  
 ---------------------------------------------------
   1 Cu    0.654797        0.001210 
   2 Cl   -0.663699        0.249698 
   3 Cl   -0.663699        0.249698 
   4 Cl   -0.663699        0.249698 
   5 Cl   -0.663699        0.249698 
 ---------------------------------------------------
   Sum:   -2.000000        1.000000 
 ---------------------------------------------------
 
  
 NATURAL OCCUPATION NUMBERS (higher than 1.0E-05)
            1           2           3           4           5           6
    1   2.0000000   2.0000000   2.0000000   2.0000000   2.0000000   2.0000000
            7           8           9          10          11          12
    1   2.0000000   2.0000000   2.0000000   2.0000000   2.0000000   2.0000000
           13          14          15          16          17          18
    1   2.0000000   2.0000000   2.0000000   2.0000000   2.0000000   2.0000000
           19          20          21          22          23          24
    1   2.0000000   2.0000000   2.0000000   2.0000000   2.0000000   2.0000000
           25          26          27          28          29          30
    1   2.0000000   2.0000000   2.0000000   2.0000000   2.0000000   2.0000000
           31          32          33          34          35          36
    1   2.0000000   2.0000000   2.0000000   2.0000000   2.0000000   2.0000000
           37          38          39          40          41          42
    1   2.0000000   2.0000000   2.0000000   2.0000000   1.9991754   1.9991062
           43          44          45          46          47          48
    1   1.9988028   1.9988028   1.9987460   1.9981106   1.9919952   1.9862191
           49          50          51          52          53          54
    1   1.9862191   1.0214115   0.0058171   0.0045278   0.0045278   0.0014749
           55          56          57          58          59          60
    1   0.0008507   0.0008507   0.0008104   0.0006003   0.0006003   0.0004266
           61          62          63          64          65          66
    1   0.0002027   0.0002027   0.0001885   0.0000491   0.0000453   0.0000453
           67          68          69          70          71          72
    1   0.0000219   0.0000219   0.0000212   0.0000212   0.0000191   0.0000158
           73          74          75
    1   0.0000115   0.0000115   0.0000111
  
*** Unpaired Electrons
 Yamaguchi Nd:         1.13
 Head-Gordon Nu:       1.04
 Head-Gordon Nu_nl:    1.00
  
**************************************************
 RAS-CI total energy for state  10:  -3476.940928005623
  Excitation energy (eV) =  6.298291658411
  Warning: not all configurations have same symmetry
  State symmetry: *B2u   (D2h      )
  <S^2>      :  0.7500
  Dipole Moment:   -0.0000 X    -0.0000 Y    -0.0000 Z
  Trans. Moment:    0.0000 X     0.0000 Y     0.0000 Z
  Strength   :  0.000000
  Natural transition orbitals ( 1 -> 10 ):
   e-/hole pair  1 alpha:  ampl =  0.009583 (  0.0%)   [9 : 10]
   e-/hole pair  2 alpha:  ampl =  0.004590 (  0.0%)   [8 : 11]
   e-/hole pair  1 beta :  ampl =  0.954776 ( 91.2%)   [9 : 10]
   e-/hole pair  2 beta :  ampl =  0.020393 (  0.0%)   [8 : 11]
   Sum of square amplitudes: 0.91

 NATURAL OCCUPATION NUMBERS (higher than 1.0E-05)
            1           2           3           4           5           6
    1   2.0000000   2.0000000   2.0000000   2.0000000   2.0000000   2.0000000
            7           8           9          10          11          12
    1   2.0000000   2.0000000   2.0000000   2.0000000   2.0000000   2.0000000
           13          14          15          16          17          18
    1   2.0000000   2.0000000   2.0000000   2.0000000   2.0000000   2.0000000
           19          20          21          22          23          24
    1   2.0000000   2.0000000   2.0000000   2.0000000   2.0000000   2.0000000
           25          26          27          28          29          30
    1   2.0000000   2.0000000   2.0000000   2.0000000   2.0000000   2.0000000
           31          32          33          34          35          36
    1   2.0000000   2.0000000   2.0000000   2.0000000   2.0000000   2.0000000
           37          38          39          40          41          42
    1   2.0000000   2.0000000   2.0000000   2.0000000   2.0000000   1.9999279
           43          44          45          46          47          48
    1   1.9998786   1.9998306   1.9994456   1.9991971   1.9991684   1.9972198
           49          50          51          52          53          54
    1   1.9941161   1.0049773   0.0026754   0.0008993   0.0007425   0.0005626
           55          56          57          58          59          60
    1   0.0005499   0.0002068   0.0001125   0.0000940   0.0000844   0.0000465
           61          62          63          64          65          66
    1   0.0000379   0.0000337   0.0000299   0.0000288   0.0000253   0.0000208
           67          68          69
    1   0.0000196   0.0000179   0.0000165
Natural Orbitals stored in FCHK

  Amplitudes : 
  
 | HOLE  | ALPHA     | BETA      | PART  |    AMPLITUDE 
--------------------------------------------------
 |       | 111111111 | 111111101 |       |     7.5677696588434E-01
 |       | 111111111 | 111101111 |       |    -6.3305694383293E-01
--------------------------------------------------
*** Contributions RASCI wfn    Active:  97.38
                                 Hole:   0.00
                                 Part:   2.62

      Mulliken population analysis 
 ---------------------------------------------------
   Atom    Charge (a.u.)   Spin (a.u.)  
 ---------------------------------------------------
   1 Cu    0.596238        0.042959 
   2 Cl   -0.869848       -0.001331 
   3 Cl   -0.428271        0.479852 
   4 Cl   -0.428271        0.479852 
   5 Cl   -0.869848       -0.001331 
 ---------------------------------------------------
   Sum:   -2.000000        1.000000 
 ---------------------------------------------------
 
  
 NATURAL OCCUPATION NUMBERS (higher than 1.0E-05)
            1           2           3           4           5           6
    1   2.0000000   2.0000000   2.0000000   2.0000000   2.0000000   2.0000000
            7           8           9          10          11          12
    1   2.0000000   2.0000000   2.0000000   2.0000000   2.0000000   2.0000000
           13          14          15          16          17          18
    1   2.0000000   2.0000000   2.0000000   2.0000000   2.0000000   2.0000000
           19          20          21          22          23          24
    1   2.0000000   2.0000000   2.0000000   2.0000000   2.0000000   2.0000000
           25          26          27          28          29          30
    1   2.0000000   2.0000000   2.0000000   2.0000000   2.0000000   2.0000000
           31          32          33          34          35          36
    1   2.0000000   2.0000000   2.0000000   2.0000000   2.0000000   2.0000000
           37          38          39          40          41          42
    1   2.0000000   2.0000000   2.0000000   2.0000000   2.0000000   1.9999279
           43          44          45          46          47          48
    1   1.9998786   1.9998306   1.9994456   1.9991971   1.9991684   1.9972198
           49          50          51          52          53          54
    1   1.9941161   1.0049773   0.0026754   0.0008993   0.0007425   0.0005626
           55          56          57          58          59          60
    1   0.0005499   0.0002068   0.0001125   0.0000940   0.0000844   0.0000465
           61          62          63          64          65          66
    1   0.0000379   0.0000337   0.0000299   0.0000288   0.0000253   0.0000208
           67          68          69
    1   0.0000196   0.0000179   0.0000165
  
*** Unpaired Electrons
 Yamaguchi Nd:         1.03
 Head-Gordon Nu:       1.01
 Head-Gordon Nu_nl:    1.00
  
**************************************************
 RAS-CI total energy for state  11:  -3476.940928005597
  Excitation energy (eV) =  6.298291659117
  Warning: not all configurations have same symmetry
  State symmetry: *B3u   (D2h      )
  <S^2>      :  0.7500
  Dipole Moment:   -0.0000 X     0.0000 Y    -0.0000 Z
  Trans. Moment:   -0.0000 X    -0.0000 Y    -0.0000 Z
  Strength   :  0.000000
  Natural transition orbitals ( 1 -> 11 ):
   e-/hole pair  1 alpha:  ampl =  0.009583 (  0.0%)   [9 : 10]
   e-/hole pair  2 alpha:  ampl =  0.004590 (  0.0%)   [8 : 11]
   e-/hole pair  1 beta :  ampl =  0.954776 ( 91.2%)   [9 : 10]
   e-/hole pair  2 beta :  ampl =  0.020393 (  0.0%)   [8 : 11]
   Sum of square amplitudes: 0.91

 NATURAL OCCUPATION NUMBERS (higher than 1.0E-05)
            1           2           3           4           5           6
    1   2.0000000   2.0000000   2.0000000   2.0000000   2.0000000   2.0000000
            7           8           9          10          11          12
    1   2.0000000   2.0000000   2.0000000   2.0000000   2.0000000   2.0000000
           13          14          15          16          17          18
    1   2.0000000   2.0000000   2.0000000   2.0000000   2.0000000   2.0000000
           19          20          21          22          23          24
    1   2.0000000   2.0000000   2.0000000   2.0000000   2.0000000   2.0000000
           25          26          27          28          29          30
    1   2.0000000   2.0000000   2.0000000   2.0000000   2.0000000   2.0000000
           31          32          33          34          35          36
    1   2.0000000   2.0000000   2.0000000   2.0000000   2.0000000   2.0000000
           37          38          39          40          41          42
    1   2.0000000   2.0000000   2.0000000   2.0000000   2.0000000   1.9999279
           43          44          45          46          47          48
    1   1.9998786   1.9998306   1.9994456   1.9991971   1.9991684   1.9972198
           49          50          51          52          53          54
    1   1.9941161   1.0049773   0.0026754   0.0008993   0.0007425   0.0005626
           55          56          57          58          59          60
    1   0.0005499   0.0002068   0.0001125   0.0000940   0.0000844   0.0000465
           61          62          63          64          65          66
    1   0.0000379   0.0000337   0.0000299   0.0000288   0.0000253   0.0000208
           67          68          69
    1   0.0000196   0.0000179   0.0000165
Natural Orbitals stored in FCHK

  Amplitudes : 
  
 | HOLE  | ALPHA     | BETA      | PART  |    AMPLITUDE 
--------------------------------------------------
 |       | 111111111 | 111111011 |       |     7.5677696636023E-01
 |       | 111111111 | 111011111 |       |     6.3305694321224E-01
--------------------------------------------------
*** Contributions RASCI wfn    Active:  97.38
                                 Hole:   0.00
                                 Part:   2.62

      Mulliken population analysis 
 ---------------------------------------------------
   Atom    Charge (a.u.)   Spin (a.u.)  
 ---------------------------------------------------
   1 Cu    0.596238        0.042959 
   2 Cl   -0.428271        0.479852 
   3 Cl   -0.869848       -0.001331 
   4 Cl   -0.869848       -0.001331 
   5 Cl   -0.428271        0.479852 
 ---------------------------------------------------
   Sum:   -2.000000        1.000000 
 ---------------------------------------------------
 
  
 NATURAL OCCUPATION NUMBERS (higher than 1.0E-05)
            1           2           3           4           5           6
    1   2.0000000   2.0000000   2.0000000   2.0000000   2.0000000   2.0000000
            7           8           9          10          11          12
    1   2.0000000   2.0000000   2.0000000   2.0000000   2.0000000   2.0000000
           13          14          15          16          17          18
    1   2.0000000   2.0000000   2.0000000   2.0000000   2.0000000   2.0000000
           19          20          21          22          23          24
    1   2.0000000   2.0000000   2.0000000   2.0000000   2.0000000   2.0000000
[...]
   102    1.138638635378e+00
   103   -5.025668538253e-15
   104   -7.920970425673e-15
   105    5.989487835426e-02
   106   -1.586730931109e-15
   107    5.611322060861e-16
   108   -8.239490883912e-15
   109   -8.298224236122e-15
   110    2.096754141920e-01
   111    2.370105367923e-15
   112    8.893938673847e-16
   113    4.085601194987e-05
   114   -1.098109016628e-16
   115   -7.959161650050e-16
   116    5.546903011514e-04
   117   -1.813715121660e-16
   118    4.103295761073e-16
   119   -1.236710924473e-15
   120    6.202454067916e-16
   121    3.736947322810e-16
   122   -4.066523731668e-15
   123    8.256703518760e-15
   124    4.234308692851e-14
   125   -1.195222304459e-16
   126   -3.114933120746e-15
   127   -9.549049332809e-02
   128   -3.092693533893e-16
   129    6.926885253895e-17
   130   -9.159284979605e-03
   131    9.712449162583e-16
   132   -2.710287599632e-15
   133   -2.969104483877e-02
   134   -1.683452057614e-15
   135    3.405406597914e-14
   136    8.295890520784e-01
   137    2.055344551886e-15
   138   -3.531910623587e-14
   139   -1.138638635378e+00
   140   -3.608701399979e-15
   141   -8.820785820754e-15
   142    5.989487835426e-02
   143   -3.740875997063e-15
   144   -1.138514817787e-15
   145   -7.691876533293e-15
   146   -7.301612470163e-15
   147    2.096754141920e-01
   148   -5.216555237338e-15
   149   -5.100356762309e-15
   150   -4.085601194738e-05
   151    1.247759836048e-16
   152    5.047453115933e-16
   153   -5.546903011496e-04
   154   -3.086341493798e-16
   155    8.142509103960e-17
   156    3.394330010647e-16
   157   -1.306811722605e-16
   158   -1.067618685423e-16
   159    7.947129258562e-16
   160    1.568076106359e-15
   161   -4.926526438990e-14
   162    4.022589448124e-15
   163    1.904304802257e-15
   164   -2.772321895704e-15
   165    3.101681438209e-16
   166    8.705977139699e-16
   167    1.866518520317e-15
   168    1.626273016053e-15
   169   -1.511538791460e-15
   170   -1.190408330313e-14
   171   -3.947446541138e-14
   172   -1.194269393728e-14
   173    6.235860623444e-14
   174    4.087265025809e-14
   175    9.703479833646e-15
   176   -2.169151495793e-13
   177    3.963898683354e-15
   178    2.148728447233e-14
   179    1.181211349070e-03
   180   -1.521041558353e-15
   181   -1.103946113503e-15
   182    8.163612118637e-15
   183    4.635401356376e-14
   184    3.120109484309e-02
   185    1.071633439407e-15
   186   -4.860945321805e-15
   187    9.103811302093e-16
   188   -4.124529494838e-16
   189   -1.006744005911e-15
   190    1.221707813694e-15
   191    1.215376360238e-03
   192    6.288821787890e-16
   193   -6.088124631754e-16
Sym=X
Ene= 1.032618
Spin=Alpha
Occup=0
     1    6.229688335718e-15
     2   -1.512835812759e-14
     3    5.568988331607e-14
     4    4.437797779623e-15
     5    3.755689272027e-13
     6   -1.477709067637e-13
     7    3.861910091016e-02
     8    1.714868396414e-13
     9   -2.965793825133e-15
    10   -1.057875967148e-01
    11   -4.782067472008e-13
    12    8.372162956737e-15
    13   -3.953908829620e-02
    14   -1.089223743572e-13
    15    3.796638310435e-15
    16    1.180616412235e-01
    17    7.879573295611e-13
    18   -7.923737881879e-14
    19    2.875967866731e-14
    20   -2.744889261820e-16
    21   -6.022928327990e-15
    22    1.585518085391e-14
    23    2.717096469472e-15
    24    4.275944855634e-14
    25    3.804784390823e-15
    26   -4.190940810395e-16
    27    1.808341278359e-14
    28    3.163420628298e-14
    29   -1.707892146333e-13
    30   -2.450411124266e-14
    31   -1.223172934449e-14
    32   -7.882635492038e-14
    33   -1.530770695647e-13
    34    2.722565636542e-13
    35    1.514779519238e-13
    36    8.451540009299e-14
    37    3.041751438750e-13
    38   -1.881196605626e-13
    39    1.071215229965e-16
    40    1.822956286543e-03
    41    4.172677550013e-15
    42   -1.761204124747e-16
    43    2.653699641239e-17
    44   -4.950557749421e-03
    45    1.571820514824e-14
    46   -1.586063047899e-02
    47   -9.183261559802e-03
    48    1.030551812371e-01
    49   -2.934548537057e-01
    50    1.621043179751e-01
    51   -8.619872326357e-02
    52    2.692329410922e-13
    53    1.920154149327e-14
    54   -2.067443866466e-02
    55    7.786639547851e-14
    56    9.551436806777e-16
    57    2.506017521392e-02
    58   -1.379603507719e-13
    59    1.186894097830e-14
    60    6.010813449225e-01
    61   -1.696795795042e-12
    62   -1.647994679975e-13
    63   -5.922791905383e-01
    64    1.586145409304e-12
    65    1.203004897387e-13
    66   -1.994034522906e-02
    67    1.707357321967e-14
    68    9.776809533954e-15
    69   -9.553830533659e-03
    70   -2.424801809762e-13
    71   -8.450126032034e-02
    72    7.494752911366e-14
    73    4.317585237536e-14
    74   -7.001711955425e-02
    75   -1.014762864957e-12
    76    3.382266593301e-15
    77    6.181905516252e-05
    78   -2.874665536155e-15
    79   -3.197226928159e-15
    80    9.538672247003e-16
    81    6.046536810843e-03
    82    1.511651905840e-14
    83   -7.449815840786e-14
    84   -4.310837301747e-14
    85    4.844404974141e-13
    86   -1.384525571336e-12
    87    9.059685583435e-13
    88    5.631418466169e-02
    89   -2.327459798341e-13
    90    3.913880191631e-15
    91    1.675238066007e-02
    92   -6.786421867979e-14
    93    4.452969703062e-16
    94   -3.142743829813e-02
    95    1.212995567367e-13
    96    2.401426469290e-15
    97   -3.457701187245e-01
    98    1.455520181477e-12
    99   -2.644061339577e-14
   100    2.980872760165e-01
   101   -1.137462331980e-12
   102   -1.678838440806e-14
   103   -9.818825258442e-14
   104    5.276786602298e-15
   105   -1.750121341081e-15
   106   -5.812985609150e-14
   107   -6.052368478616e-02
   108   -3.476583913764e-13
   109    1.957178811297e-14
   110    1.275068657253e-15
   111   -7.990206824569e-14
   112   -2.511294883082e-01
   113    2.368835250108e-15
   114   -1.156722174798e-03
   115    3.458464227104e-16
   116    3.545451775526e-15
   117    9.421244722518e-16
   118   -5.035646087452e-03
   119   -2.002451523260e-14
   120    8.553988921086e-14
   121    4.966979869877e-14
   122   -5.557259111882e-13
   123    1.575443649446e-12
   124   -7.020167006441e-13
   125    5.631418466154e-02
   126   -3.317840515683e-13
   127   -2.274160759990e-15
   128    1.675238066003e-02
   129   -9.045716164936e-14
   130   -2.263992920699e-15
   131   -3.142743829809e-02
   132    1.410304676418e-13
   133    1.008404764748e-14
   134   -3.457701187234e-01
   135    2.206960439899e-12
   136   -7.483279042258e-15
   137    2.980872760153e-01
   138   -2.035050598608e-12
   139    3.476610537403e-14
   140    9.445203731029e-14
   141   -1.023098288110e-14
   142   -3.926498466166e-15
   143    2.634975129729e-15
   144    6.052368478619e-02
   145    4.273915243725e-13
   146   -4.845558898465e-14
   147    1.354780968886e-14
   148   -1.124449404007e-14
   149    2.511294883082e-01
   150   -2.915007467608e-15
   151   -1.156722174795e-03
   152    9.365914481111e-15
   153   -3.945624461119e-15
   154   -1.135748949466e-15
   155   -5.035646087450e-03
   156   -1.177324567083e-14
   157    1.586063047900e-02
   158    9.183261559808e-03
   159   -1.030551812372e-01
   160    2.934548537059e-01
   161   -1.621043179754e-01
   162   -8.619872326363e-02
   163    1.079331205900e-13
   164    2.886097490507e-14
   165   -2.067443866468e-02
   166    4.574535057063e-14
   167    5.327516419427e-16
   168    2.506017521395e-02
   169   -1.187635581969e-13
   170    2.215708343766e-14
   171    6.010813449229e-01
   172   -5.103361474899e-13
   173   -2.802117495617e-13
   174   -5.922791905388e-01
   175    2.479688900686e-13
   176    3.761214611693e-13
   177    1.994034522910e-02
   178   -9.892119953980e-15
   179    2.212372013135e-15
   180    9.553830533684e-03
   181    2.302581734812e-13
   182    8.450126032052e-02
   183   -2.528873509294e-14
   184   -2.897560110145e-15
   185    7.001711955431e-02
   186    1.028464288468e-12
   187   -1.482839908349e-15
   188    6.181905516441e-05
   189   -5.098179763353e-15
   190    3.256329592532e-15
   191   -1.766923766075e-15
   192    6.046536810842e-03
   193    2.541780963002e-14
Sym=X
Ene= 1.032618
Spin=Alpha
Occup=0
     1   -4.368601773000e-15
     2    1.102303042270e-14
     3   -3.909718082408e-14
     4   -6.779755832140e-15
     5   -2.617441199548e-13
     6    1.149701307461e-13
     7   -1.479406875209e-13
     8    3.861910093900e-02
     9   -1.322811667480e-16
    10    4.052796684532e-13
    11   -1.057875967941e-01
    12    3.733443001624e-16
    13    1.534348870179e-13
    14   -3.953908833131e-02
    15    1.267277302785e-16
    16   -5.674051390723e-13
    17    1.180616419138e-01
    18   -1.247964637611e-15
    19   -2.189005369043e-14
    20   -2.483884049591e-15
    21   -7.734657852435e-16
    22   -5.432177305683e-14
    23    3.071355798208e-15
    24   -3.097246416460e-14
    25   -2.873376407983e-15
    26   -6.369789154873e-16
    27   -5.376552938963e-14
    28    4.607205796509e-15
    29    1.201982821357e-13
    30    4.987229800605e-15
    31    1.334491073364e-15
    32    2.062118332780e-13
    33   -1.385163756867e-14
    34   -1.938543666199e-13
    35    2.710510822757e-14
    36   -1.451364370630e-15
    37   -7.115260949881e-13
    38   -1.133255757750e-14
    39    1.110444825859e-15
    40   -6.225690821888e-15
    41    1.822956286148e-03
    42   -3.482034931901e-16
    43   -6.668272555998e-16
    44    1.778530432359e-14
    45    4.950557746263e-03
    46    4.239913658197e-14
    47    2.516746559141e-14
    48   -2.742410587157e-13
    49    7.438895232685e-13
    50   -1.111367210056e-13
    51    3.059010593023e-13
    52    5.631418474323e-02
    53   -1.159229803903e-15
    54    6.889279211804e-14
    55    1.675238067393e-02
    56   -1.667758516458e-16
    57   -6.953833075379e-14
    58   -3.142743829609e-02
    59   -1.010901377816e-15
    60   -2.201830459812e-12
    61   -3.457701193316e-01
    62    1.341937174715e-14
    63    2.136599635706e-12
    64    2.980872766331e-01
    65   -2.498280860979e-14
    66    1.665845706276e-14
    67   -1.906247515690e-15
    68   -3.341566551421e-16
    69    7.183908171656e-15
    70   -6.052368471617e-02
    71    1.508829163588e-13
    72   -3.769621215850e-15
    73    7.718397778994e-16
    74    1.352407882348e-13
    75   -2.511294880321e-01
    76    5.767683574548e-17
    77   -7.055042769360e-15
    78   -1.156722176809e-03
    79    1.808897361299e-16
    80   -1.915031024408e-18
    81   -2.258110453438e-14
    82    5.035646091846e-03
    83   -1.586063050032e-02
    84   -9.183261576328e-03
    85    1.030551813743e-01
    86   -2.934548540254e-01
    87    1.621043179412e-01
    88   -1.702328193626e-13
    89   -8.619872323179e-02
    90   -3.674856206883e-15
    91   -5.216865135620e-14
    92   -2.067443866732e-02
    93   -2.966772295398e-16
    94    1.016127681326e-13
    95    2.506017525207e-02
    96   -5.595061430545e-16
    97    1.014795803331e-12
    98    6.010813445660e-01
    99    3.110759487399e-14
   100   -7.919757606363e-13
   101   -5.922791898157e-01
   102   -3.656343649267e-14
   103   -1.994034528631e-02
   104    6.733979752163e-16
   105   -1.960459487260e-15
   106    9.553830504185e-03
   107    2.192209119688e-13
   108   -8.450126042511e-02
   109    1.009860139275e-15
   110   -9.086415414331e-15
   111    7.001711957886e-02
   112    8.862200719594e-13
   113    1.277697840173e-16
   114   -1.207783098915e-14
   115    6.181904993644e-05
   116   -2.185591540945e-17
   117    1.935606444573e-16
   118    1.912948121357e-14
   119   -6.046536810103e-03
   120    1.586063050031e-02
   121    9.183261576322e-03
   122   -1.030551813742e-01
   123    2.934548540253e-01
   124   -1.621043179417e-01
   125   -1.856378707493e-13
   126   -8.619872323169e-02
   127   -2.909396583470e-15
   128   -5.355234004889e-14
   129   -2.067443866730e-02
   130   -3.931743432593e-16
   131    9.644810813969e-14
   132    2.506017525207e-02
   133   -1.144343298476e-15
   134    1.149220451593e-12
   135    6.010813445652e-01
   136    2.645509641937e-14
   137   -9.642033133731e-13
   138   -5.922791898148e-01
   139   -3.138916245499e-14
   140    1.994034528640e-02
   141   -7.401308793437e-16
   142    1.396426284914e-15
   143   -9.553830504111e-03
   144   -2.115417818828e-13
   145    8.450126042525e-02
   146   -4.636440124115e-15
   147    3.844479915198e-15
   148   -7.001711957875e-02
   149   -8.539813968778e-13
   150    9.591411527570e-17
   151   -1.224857900431e-14
   152    6.181904990880e-05
   153    2.227443118911e-16
   154   -1.992518561551e-16
   155    1.951087599296e-14
   156   -6.046536810101e-03
   157   -4.880685825999e-14
   158   -2.875606310540e-14
   159    3.169920017631e-13
   160   -8.988455356471e-13
   161    6.597145872005e-13
   162    3.206183466130e-13
   163    5.631418474323e-02
   164    7.892573407826e-15
   165    7.831911244988e-14
   166    1.675238067393e-02
   167    6.166676770618e-16
   168   -9.973183915733e-14
   169   -3.142743829608e-02
   170    3.377966591925e-15
   171   -2.201088586951e-12
   172   -3.457701193316e-01
   173   -6.970487770091e-14
   174    2.160769448045e-12
   175    2.980872766331e-01
   176    9.121765748830e-14
   177   -1.276960452672e-13
   178   -3.762848551903e-15
   179    2.040602688211e-16
   180   -7.464541155611e-16
   181    6.052368471617e-02
   182   -4.899585591820e-13
   183   -1.464245227052e-14
   184    1.082743803016e-15
   185   -1.479048887804e-13
   186    2.511294880321e-01
   187    1.913701272627e-16
   188    2.485070227385e-15
   189   -1.156722176811e-03
   190   -6.628017552580e-17
   191    2.943788126491e-16
   192   -2.413927247392e-14
   193    5.035646091846e-03
Sym=X
Ene= 1.039757
Spin=Alpha
Occup=0
     1   -1.041294908904e-15
     2    2.698263844088e-15
     3   -9.469345534619e-15
     4   -1.673985196111e-15
     5   -6.541075593710e-14
     6    2.291333658168e-14
     7    6.691907082871e-15
     8    1.514697789984e-15
     9    2.775766266391e-11
    10   -1.811369563470e-14
    11   -4.007043069831e-15
    12   -7.201846271637e-11
    13   -7.844291640920e-15
    14   -2.125742897539e-15
    15   -7.444461550108e-11
    16    2.691144182410e-14
    17    4.675561432616e-15
    18    7.929270572967e-10
    19   -4.974012405126e-15
    20    1.363542162943e-15
    21   -7.044847197652e-15
    22    8.687406681063e-15
    23   -4.589749025310e-16
    24   -7.224570824012e-15
    25    2.461992786907e-15
    26   -7.666289828714e-15
    27    7.911099031515e-15
    28   -7.366122324414e-17
    29    2.832472193441e-14
    30   -7.379151517612e-15
    31    1.701972206136e-14
    32   -2.578645761713e-14
    33   -9.816671230468e-16
    34   -4.660704546329e-14
    35   -7.648087719441e-15
    36    2.987689203511e-14
    37    7.152879738572e-14
    38    1.650639809775e-14
    39    4.710174573658e-13
    40    3.275519849031e-16
    41    9.121583691821e-17
    42    8.529625528197e-04
    43   -6.209721872298e-17
    44   -7.162184689691e-16
    45    3.296996943864e-16
    46   -3.781464842523e-15
    47   -2.053376840348e-15
    48    2.445307889327e-14
    49   -6.861093140925e-14
    50    5.738971298823e-15
    51   -2.449148913314e-14
    52    3.859554449903e-15
    53   -7.336634406330e-02
    54   -5.738579498193e-15
    55    6.546873136792e-16
    56   -8.980316303639e-03
    57    6.986517888176e-15
    58    4.819765589421e-17
    59   -1.381055592330e-02
    60    1.754778644704e-13
    61   -3.057833073923e-14
    62    6.084970799199e-01
    63   -1.881477870084e-13
    64    2.909061791394e-14
    65   -7.219266361661e-01
    66    2.270926837202e-15
    67   -2.828577052021e-02
    68    8.137964197057e-15
    69   -6.883927690696e-15
    70   -2.243018013001e-15
    71   -6.471525165821e-15
    72   -1.504808000092e-01
    73    5.139867800117e-14
    74   -2.397517156511e-14
    75   -7.475606690803e-15
    76   -2.830184854598e-03
    77    1.663449909819e-15
    78    2.391880397991e-17
    79    5.480678801816e-04
    80   -2.658898388753e-16
    81    1.189286044570e-15
    82    1.924244188279e-16
    83   -1.913845857932e-15
    84   -1.026532506750e-15
    85    1.253580293870e-14
    86   -3.916799653106e-14
    87    4.391164647431e-14
    88    6.728698267293e-15
    89   -8.331125036086e-15
    90    7.336634385132e-02
    91    2.568629984094e-15
    92   -2.168452789528e-15
    93    8.980316278024e-03
    94   -6.065351119433e-15
    95    3.385236114778e-15
    96    1.381055588087e-02
    97   -3.334886868824e-14
    98    5.521466440627e-14
    99   -6.084970781892e-01
   100    1.134129752237e-14
   101   -6.128288532917e-14
   102    7.219266341325e-01
   103   -9.599714639080e-15
   104   -4.171871382433e-15
   105    2.828577046785e-02
   106    1.919512342327e-15
   107   -1.310294333673e-14
   108   -3.476396665084e-14
   109   -2.176822515191e-14
   110    1.504807998697e-01
   111    1.041902116650e-14
   112   -4.889873851312e-14
   113    2.830184852796e-03
   114    3.117248476199e-15
   115   -1.644261308020e-15
   116    5.480678660440e-04
   117    1.000521171314e-16
   118   -1.306986826136e-15
   119    1.091919394753e-15
   120   -2.675895355172e-16
   121   -1.704786211697e-16
   122    1.751701141385e-15
   123   -6.638198485705e-15
   124    2.248285140854e-14
   125    1.080907552048e-14
   126    1.053593828187e-15
   127    7.336634385133e-02
   128    2.554438423231e-15
   129    6.460587122056e-16
   130    8.980316278026e-03
   131   -3.430188575888e-15
   132   -2.079161594626e-15
   133    1.381055588087e-02
   134   -7.445626228797e-14
   135   -2.222015171567e-15
   136   -6.084970781893e-01
   137    7.813352413779e-14
   138    8.672978206758e-15
   139    7.219266341327e-01
   140   -9.410354329618e-15
   141    3.256459760505e-15
   142   -2.828577046786e-02
   143   -5.334172944942e-16
   144    9.141720496858e-15
   145   -3.031478170035e-14
   146    2.275634287220e-14
   147   -1.504807998698e-01
   148   -1.061820396367e-15
   149    3.835557981931e-14
   150    2.830184852795e-03
   151    3.258407633621e-15
   152    1.770491351643e-15
   153    5.480678660429e-04
   154    5.356031515793e-17
   155   -1.768808862041e-15
   156   -9.282754574325e-16
   157    1.275189995794e-15
   158    9.295097231824e-16
   159   -8.305315902146e-15
   160    2.244175843722e-14
   161   -3.899608673990e-14
   162   -4.753059050434e-15
   163    3.863490919274e-16
   164   -7.336634406331e-02
   165   -1.523404875588e-15
   166    9.212456829937e-16
   167   -8.980316303641e-03
   168    2.410463169161e-15
   169   -3.447322456519e-15
   170   -1.381055592330e-02
   171    2.683874554707e-14
   172    5.882462768828e-15
   173    6.084970799200e-01
   174   -6.479499727927e-15
   175   -9.273078161602e-15
   176   -7.219266361661e-01
   177    9.762331553317e-15
   178    2.828577052021e-02
   179   -8.975709109632e-15
   180   -6.878516582421e-15
   181    5.178688361023e-15
   182    2.481391795298e-14
   183    1.504808000092e-01
   184   -5.415329802117e-14
   185   -3.714535804284e-15
   186    2.118421820680e-14
   187   -2.830184854599e-03
   188   -1.188079032615e-15
   189    6.107430138034e-16
   190    5.480678801815e-04
   191   -1.676437984671e-16
   192    1.910347703659e-15
   193    3.162873317517e-16
[5D7F]

======= END OF MOLDEN-FORMATTED INPUT FILE =======


        *************************************************************
        *                                                           *
        *  Thank you very much for using Q-Chem.  Have a nice day.  *
        *                                                           *
        *************************************************************


