                  Welcome to Q-Chem
     A Quantum Leap Into The Future Of Chemistry


 Q-Chem 6.0 (devel), Q-Chem, Inc., Pleasanton, CA (2022)

 E. Epifanovsky,  A. T. B. Gilbert,  Xintian Feng,  Joonho Lee,  Yuezhi Mao,  
 N. Mardirossian,  P. Pokhilko,  A. White,  M. Wormit,  M. P. Coons,  
 A. L. Dempwolff,  Zhengting Gan,  D. Hait,  P. R. Horn,  L. D. Jacobson,  
 I. Kaliman,  J. Kussmann,  A. W. Lange,  Ka Un Lao,  D. S. Levine,  Jie Liu,  
 S. C. McKenzie,  A. F. Morrison,  K. Nanda,  F. Plasser,  D. R. Rehn,  
 M. L. Vidal,  Zhi-Qiang You,  Ying Zhu,  B. Alam,  B. Albrecht,  
 A. Aldossary,  E. Alguire,  J. H. Andersen,  V. Athavale,  D. Barton,  
 K. Begam,  A. Behn,  N. Bellonzi,  Y. A. Bernard,  E. J. Berquist,  
 H. Burton,  A. Carreras,  K. Carter-Fenk,  Romit Chakraborty,  
 Chandrima Chakravarty,  Junhan Chen,  A. D. Chien,  K. D. Closser,  
 V. Cofer-Shabica,  L. Cunha,  S. Dasgupta,  Jia Deng,  M. de Wergifosse,  
 M. Diedenhofen,  Hainam Do,  S. Ehlert,  Po-Tung Fang,  S. Fatehi,  
 Qingguo Feng,  T. Friedhoff,  B. Ganoe,  J. Gayvert,  Qinghui Ge,  
 G. Gidofalvi,  M. Goldey,  J. Gomes,  C. Gonzalez-Espinoza,  S. Gulania,  
 A. Gunina,  J. A. Gyamfi,  M. W. D. Hanson-Heine,  P. H. P. Harbach,  
 A. W. Hauser,  M. F. Herbst,  M. Hernandez Vera,  M. Hodecker,  
 Z. C. Holden,  S. Houck,  Xunkun Huang,  Kerwin Hui,  B. C. Huynh,  
 K. Ikeda,  M. Ivanov,  Hyunjun Ji,  Zuxin Jin,  Hanjie Jiang,  B. Kaduk,  
 S. Kaehler,  R. Kang,  K. Khistyaev,  Jaehoon Kim,  Yongbin Kim,  
 P. Klunzinger,  Z. Koczor-Benda,  Joong Hoon Koh,  D. Kosenkov,  
 Saikiran Kotaru,  L. Koulias,  T. Kowalczyk,  C. M. Krauter,  K. Kue,  
 A. Kunitsa,  T. Kus,  A. Landau,  K. V. Lawler,  D. Lefrancois,  S. Lehtola,  
 Rain Li,  Shaozhi Li,  Yi-Pei Li,  Jiashu Liang,  M. Liebenthal,  
 Hung-Hsuan Lin,  You-Sheng Lin,  Fenglai Liu,  Kuan-Yu Liu,  
 M. Loipersberger,  A. Luenser,  C. Malbon,  A. Manjanath,  P. Manohar,  
 E. Mansoor,  S. F. Manzer,  Shan-Ping Mao,  A. V. Marenich,  T. Markovich,  
 S. Mason,  F. Matz,  S. A. Maurer,  P. F. McLaughlin,  M. F. S. J. Menger,  
 J.-M. Mewes,  S. A. Mewes,  P. Morgante,  Mohammad Mostafanejad,  
 J. W. Mullinax,  K. J. Oosterbaan,  G. Paran,  V. Parravicini,  
 Alexander C. Paul,  Suranjan K. Paul,  F. Pavosevic,  Zheng Pei,  S. Prager,  
 E. I. Proynov,  E. Ramos,  B. Rana,  A. E. Rask,  A. Rettig,  R. M. Richard,  
 F. Rob,  E. Rossomme,  T. Scheele,  M. Scheurer,  M. Schneider,  
 P. E. Schneider,  N. Sergueev,  S. M. Sharada,  Hengyuan Shen,  
 W. Skomorowski,  D. W. Small,  C. J. Stein,  Yingli Su,  Yu-Chuan Su,  
 E. J. Sundstrom,  Zhen Tao,  J. Thirman,  Hung-Yi Tsai,  T. Tsuchimochi,  
 N. M. Tubman,  C. Utku,  S. P. Veccham,  O. Vydrov,  J. Wenzel,  
 Jonathan Wong,  J. Witte,  A. Yamada,  Chou-Hsun Yang,  Kun Yao,  
 S. Yeganeh,  S. R. Yost,  A. Zech,  F. Zeller,  Igor Ying Zhang,  
 Xing Zhang,  Yu Zhang,  D. Zuev,  A. Aspuru-Guzik,  A. T. Bell,  
 N. A. Besley,  K. B. Bravaya,  B. R. Brooks,  D. Casanova,  Jeng-Da Chai,  
 Hsing-Ta Chen,  S. Coriani,  C. J. Cramer,  A. E. DePrince, III,  
 R. A. DiStasio Jr.,  A. Dreuw,  B. D. Dunietz,  T. R. Furlani,  
 W. A. Goddard III,  S. Grimme,  S. Hammes-Schiffer,  T. Head-Gordon,  
 W. J. Hehre,  Chao-Ping Hsu,  T.-C. Jagau,  Yousung Jung,  A. Klamt,  
 Jing Kong,  D. S. Lambrecht,  Xiangyuan Li,  WanZhen Liang,  N. J. Mayhall,  
 C. W. McCurdy,  J. B. Neaton,  T. Neudecker,  C. Ochsenfeld,  
 J. A. Parkhill,  R. Peverati,  V. A. Rassolov,  Haisheng Ren,  Yihan Shao,  
 L. V. Slipchenko,  R. P. Steele,  J. E. Subotnik,  A. J. W. Thom,  
 A. Tkatchenko,  D. G. Truhlar,  T. Van Voorhis,  Fan Wang,  
 T. A. Wesolowski,  K. B. Whaley,  H. L. Woodcock III,  P. M. Zimmerman,  
 S. Faraji,  P. M. W. Gill,  M. Head-Gordon,  J. M. Herbert,  A. I. Krylov

 Contributors to earlier versions of Q-Chem not listed above: 
 R. D. Adamson,  B. Austin,  R. Baer,  J. Baker,  G. J. O. Beran,  
 K. Brandhorst,  S. T. Brown,  E. F. C. Byrd,  Arup K. Chakraborty,  
 G. K. L. Chan,  Chun-Min Chang,  Yunqing Chen,  C.-L. Cheng,  
 Siu Hung Chien,  D. M. Chipman,  D. L. Crittenden,  H. Dachsel,  
 R. J. Doerksen,  A. D. Dutoi,  R. G. Edgar,  J. Fosso-Tande,  
 L. Fusti-Molnar,  D. Ghosh,  A. Ghysels,  A. Golubeva-Zadorozhnaya,  
 J. Gonthier,  M. S. Gordon,  S. R. Gwaltney,  G. Hawkins,  J. E. Herr,  
 A. Heyden,  S. Hirata,  E. G. Hohenstein,  G. Kedziora,  F. J. Keil,  
 C. Kelley,  Jihan Kim,  R. A. King,  R. Z. Khaliullin,  P. P. Korambath,  
 W. Kurlancheek,  A. Laurent,  A. M. Lee,  M. S. Lee,  S. V. Levchenko,  
 Ching Yeh Lin,  D. Liotard,  E. Livshits,  R. C. Lochan,  I. Lotan,  
 L. A. Martinez-Martinez,  P. E. Maslen,  N. Nair,  D. P. O'Neill,  
 D. Neuhauser,  E. Neuscamman,  C. M. Oana,  R. Olivares-Amaya,  R. Olson,  
 T. M. Perrine,  B. Peters,  P. A. Pieniazek,  A. Prociuk,  Y. M. Rhee,  
 J. Ritchie,  M. A. Rohrdanz,  E. Rosta,  N. J. Russ,  H. F. Schaefer III,  
 M. W. Schmidt,  N. E. Schultz,  S. Sharma,  N. Shenvi,  C. D. Sherrill,  
 A. C. Simmonett,  A. Sodt,  T. Stein,  D. Stuck,  K. S. Thanthiriwatte,  
 V. Vanovschi,  L. Vogt,  Tao Wang,  A. Warshel,  M. A. Watson,  
 C. F. Williams,  Q. Wu,  X. Xu,  Jun Yang,  W. Zhang,  Yan Zhao

   Please cite Q-Chem as follows:
  "Software for the frontiers of quantum chemistry:
   An overview of developments in the Q-Chem 5 package"
   J. Chem. Phys. 155, 084801 (2021)
   https://doi.org/10.1063/5.0055522 (open access)

 Q-Chem 6.0.1 for Intel X86 EM64T Linux

 Parts of Q-Chem use Armadillo 9.900.5 (Nocturnal Misbehaviour).
 http://arma.sourceforge.net/

 Q-Chem begins on Tue Feb 14 18:46:21 2023  

 Host: atlas-182
0

     Scratch files written to ./qchem64962//
 Processing $rem in /scratch/abel/SOFTWARE/qchem/config/preferences:
 Processing $rem in /dipc/acebg/.qchemrc:

 Checking the input file for inconsistencies... 	...done.

--------------------------------------------------------------
User input:
--------------------------------------------------------------
$comment
 RAS-SF CALCULATION
$end

$molecule
 READ cucl4_2-_d10.molecule
$end

$rem
!**CALCULATION TYPE***     
JOBTYPE            sp    
EXCHANGE           HF
CORRELATION        RASCI    !RASCI=Casanova; RASCI2=Zimmerman
BASIS              def2-TZVP
!BASIS2             STO-3G

!***SCF REFERENCE***
SKIP_SCFMAN        FALSE
UNRESTRICTED       FALSE
!SCF_GUESS          core
!SCF_GUESS_MIX      FALSE
!SCF_GUESS_ALWAYS   FALSE
MAX_SCF_CYCLES     500
SCF_CONVERGENCE    8
!SCF_ALGORITHM      DIIS !DIIS,DM,DIIS_DM,GDM,DIIS_GDM,GD

SYMMETRY           TRUE !use of symmetry for calculating integrals
SYM_IGNORE         FALSE !turn off using symmetry
SYM_TOL            5 !tolerance for determining point group

!THRESH             14
SCF_FINAL_PRINT     1 !0,1,2,3

!****RAS-SF****
RAS_ROOTS          15       !number of RAS-CI roots to be computed
SET_ITER           100     !number of iterations in RASCI
RAS_ELEC           11       !number of electrons in RAS2
!RAS_ELEC_ALPHA            !spin-α electrons in RAS2 
!RAS_ELEC_BETA             !spin-β electrons in RAS2

RAS_ACT            6       !number of orbitals in RAS2 
RAS_ACT_ORB    [34,35,36,37,38,50] !user-selected RAS2 orbitals
RAS_OCC            44       !number of orbitals in RAS1
N_FROZEN_CORE      FC     !Number of frozen core orbitals
N_FROZEN_VIRTUAL   0      !Number of frozen virtual orbitals
RAS_NATORB         TRUE    !computation of the natural orbital occupancies
!RAS_NATORB_STATE  0      !Saves NO of i RAS computed state in .fchk ﬁle

RAS_DO_HOLE        TRUE   !presence of hole excitations in RAS-CI wave function
RAS_DO_PART        TRUE   !presence of particle excitations
RAS_AMPL_PRINT     10     !threshold (×10 2 ) for the CI amplitudes

RAS_GUESS_CS       0      !number of closed shell guess conﬁgurations
RAS_SPIN_MULT      0      !spin multiplicity: 0=any, 2n+1=defined 
RAS_SRDFT          FALSE  !short-range density functional RAS-CI
RAS_NFRAG          0     !fragments of excitation analysis in RASCI

RAS_PRINT          2      !level of information
RAS_NATORB         TRUE   !computation of the natural orbital occupancies
!RAS_NATORB_STATE  0      !Saves NO of i RAS computed state in .fchk ﬁle
RAS_FOD            TRUE

!****RAS-SOC****
CALC_SOC           TRUE   !calculate SOC for EOM-CC, RAS-CI, ADC, TDDFT/TDA and TDDFT
!RAS_SOC_2E        TRUE   !two-electron mean-ﬁeld contribution, default=true
RAS_SOC_SYM_DENS   TRUE   !averaging of α and β densities

!****MEMORY****
MEM_TOTAL          10000 !Default 2000 MB
MEM_STATIC         2000  !Default 64 MB

!**Molecular Properties and Analysis **                                                                                          
GUI                2
STATE_ANALYSIS     TRUE
MOLDEN_FORMAT      TRUE
PRINT_ORBITALS     20
$end                                           

--------------------------------------------------------------
 ----------------------------------------------------------------
             Standard Nuclear Orientation (Angstroms)
    I     Atom           X                Y                Z
 ----------------------------------------------------------------
    1      Cu     -0.0000000000     0.0000000000    -0.0000000000
    2      Cl      2.3112385002    -0.0000000000    -0.0000000000
    3      Cl      0.0000000000     2.3112385002    -0.0000000000
    4      Cl     -0.0000000000    -2.3112385002     0.0000000000
    5      Cl     -2.3112385002     0.0000000000     0.0000000000
 ----------------------------------------------------------------
 Molecular Point Group                 D2h   NOp =  8
 Largest Abelian Subgroup              D2h   NOp =  8
 Nuclear Repulsion Energy =         704.82872953 hartrees
 There are       50 alpha and       50 beta electrons
 Requested basis set is def2-TZVP
 There are 67 shells and 193 basis functions

 Total QAlloc Memory Limit  10000 MB
 Mega-Array Size      1956 MB
 MEM_STATIC part      2000 MB


                       Distance Matrix (Angstroms)
             Cu(  1)   Cl(  2)   Cl(  3)   Cl(  4)
   Cl(  2)  2.311239
   Cl(  3)  2.311239  3.268585
   Cl(  4)  2.311239  3.268585  4.622477
   Cl(  5)  2.311239  4.622477  3.268585  3.268585
 
 A cutoff of  1.0D-12 yielded   1874 shell pairs
 There are     16710 function pairs (     21943 Cartesian)
 Smallest overlap matrix eigenvalue = 9.49E-03

 Scale SEOQF with 1.000000e-01/1.000000e-01/1.000000e-01

 Standard Electronic Orientation quadrupole field applied
 Nucleus-field energy     =     0.0000000195 hartrees
 Guess from superposition of atomic densities
 Warning:  Energy on first SCF cycle will be non-variational
 SAD guess density has 97.000000 electrons

 -----------------------------------------------------------------------
  General SCF calculation program by
  Eric Jon Sundstrom, Paul Horn, Yuezhi Mao, Dmitri Zuev, Alec White,
  David Stuck, Shaama M.S., Shane Yost, Joonho Lee, David Small,
  Daniel Levine, Susi Lehtola, Hugh Burton, Evgeny Epifanovsky,
  Bang C. Huynh
 -----------------------------------------------------------------------
 Hartree-Fock
 A restricted SCF calculation will be
 performed using DIIS
 SCF converges when DIIS error is below 1.0e-08
 ---------------------------------------
  Cycle       Energy         DIIS error
 ---------------------------------------
    1   -3476.6934826312      2.23e-02  
    2   -3476.7267802228      4.35e-03  
    3   -3476.8410644554      1.91e-03  
    4   -3476.8520041212      2.79e-04  
    5   -3476.8523511136      2.54e-04  
    6   -3476.8524851303      7.30e-05  
    7   -3476.8525273337      2.19e-05  
    8   -3476.8525341592      1.08e-05  
    9   -3476.8525355757      3.27e-06  
   10   -3476.8525357122      3.26e-07  
   11   -3476.8525357138      7.02e-08  
   12   -3476.8525357138      1.51e-08  
   13   -3476.8525357139      1.55e-09  Convergence criterion met
 ---------------------------------------
 DFT Correlation    Energy =   0.00000000000000
 DFT Exchange       Energy =   0.00000000000000
 HF Exchange        Energy = -176.91470970372544
 Kinetic            Energy =   0.00000000000000
 Nuclear Attraction Energy =   0.00000000000000
 One-Electron       Energy = -6295.50476505298957
 Total Coulomb      Energy = 2290.73820949295168
 Final Alpha MO Eigenvalues
            1           2           3           4           5           6
    1-328.2526880-104.2563787-104.2563747-104.2563726-104.2563726 -40.2821337
            7           8           9          10          11          12
    1 -35.0854217 -35.0791333 -35.0791333  -9.9853569  -9.9853513  -9.9853513
           13          14          15          16          17          18
    1  -9.9853475  -7.4519553  -7.4519543  -7.4519514  -7.4519514  -7.4516502
           19          20          21          22          23          24
    1  -7.4516490  -7.4516490  -7.4516461  -7.4516219  -7.4516205  -7.4516205
           25          26          27          28          29          30
    1  -7.4516202  -4.4792870  -2.7943978  -2.7932823  -2.7932823  -0.5208555
           31          32          33          34          35          36
    1  -0.5061055  -0.5061055  -0.4970716  -0.0205584  -0.0027431   0.0050176
           37          38          39          40          41          42
    1   0.0210534   0.0210534   0.0466990   0.0466990   0.0621517   0.0690382
           43          44          45          46          47          48
    1   0.0911038   0.0926183   0.0986302   0.0986302   0.1016668   0.1016668
           49          50          51          52          53          54
    1   0.1235028   0.1715809   0.5481729   0.7294426   0.7685366   0.7917636
           55          56          57          58          59          60
    1   0.7963456   0.7970110   0.7970110   0.8669463   0.8669463   0.8873983
           61          62          63          64          65          66
    1   0.9783104   0.9811655   0.9811655   1.0047210   1.0155879   1.0182896
           67          68          69          70          71          72
    1   1.0182896   1.0326180   1.0326180   1.0397569   1.0413603   1.0589295
           73          74          75          76          77          78
    1   1.1502152   1.1728335   1.1728335   1.1869368   1.1869368   1.2013374
           79          80          81          82          83          84
    1   1.2018508   1.2018508   1.2047875   1.2122699   1.2301253   1.2838251
           85          86          87          88          89          90
    1   1.3277483   1.3277483   1.3404934   1.3639313   1.3907938   1.4038245
           91          92          93          94          95          96
    1   1.4038245   1.4079482   1.6542816   1.6993003   1.6993003   1.7632838
           97          98          99         100         101         102
    1   1.7632838   1.7762061   1.8103443   1.9105157   2.2083616   2.6019552
          103         104         105         106         107         108
    1   2.6019552   2.6056087   2.6322840   2.6647521   2.6647521   2.6690897
          109         110         111         112         113         114
    1   2.6754366   2.6841253   2.7241609   2.7326887   2.7326887   2.7752308
          115         116         117         118         119         120
    1   2.7764452   2.7764452   2.7926907   2.7945818   2.8014102   2.8014102
          121         122         123         124         125         126
    1   2.8196103   2.8832699   2.8832699   2.9445441   2.9525696   2.9548264
          127         128         129         130         131         132
    1   2.9548264   2.9587492   2.9600007   2.9600007   2.9603876   2.9607705
          133         134         135         136         137         138
    1   2.9619675   2.9628112   2.9658159   2.9658159   2.9721825   2.9721825
          139         140         141         142         143         144
    1   2.9766428   2.9809479   2.9831379   2.9833770   3.0162647   3.0162647
          145         146         147         148         149         150
    1   3.0578387   3.0998549   3.0998549   3.1229140   3.1298064   3.1322353
          151         152         153         154         155         156
    1   3.1440176   3.1440176   3.1476350   3.1476350   3.1489322   3.1749870
          157         158         159         160         161         162
    1   3.1871187   3.2628845   3.2628845   3.2706487   3.4383735   3.5352329
          163         164         165         166         167         168
    1   3.5352329   3.8468307   4.5942864   4.8505777   4.8505777   5.0099398
          169         170         171         172         173         174
    1   5.2302019   5.5198005   6.8747169   6.8771836   6.8787843   6.8787843
          175         176         177         178         179         180
    1   6.8792960   6.9224463   6.9224463  12.0084787  12.0253834  12.0253834
          181         182         183         184         185         186
    1  12.0484890  12.0684403  12.0684403  12.0708402  12.0860505  12.1165240
          187         188         189         190         191         192
    1  12.1165240  12.2919054  12.2922253  25.7615927  25.7615927  26.1169800
          193
    1  26.6477221
 SCF time:   CPU 43.23s  wall 44.00s 
 SCF   energy in the final basis set =    -3476.8525357139
 Total energy in the final basis set =    -3476.8525357139
Setting RAS_srDFT_COR/EXC
  
     ##========================================##
     ||                                        ||
     ||              R A S M A N 2             ||
     ||________________________________________||
     ||                                        ||
     ||  Author:                               ||
     ||                                        ||
     ||        David Casanova (2010)           ||
     ||                                        ||
     ##========================================##
  
  ***************************************************
  *  RAS-CI Dimensions:                             *
  *                                                 *
  *  Active Elec.:  11 ( 6, 5)   Active Orb.:   6   *
  *  Doubly Occ. :  44           Doubly Vir.: 143   *
  *  Frozen Occ. :  29           Frozen Vir.:   0   *
  *                                                 *
  *  Total CI configurations:      7314             * 
  *    Active configurations:         6             * 
  *      Hole configurations:        15             * 
  *  Particle configurations:      7293             * 
  *                                                 *
  *   Requested states:       15                    *
  *  Spin multiplicity: Any multiplicity            *
  *                                                 *
  ***************************************************
-----------------------------------------
    Memory requirements of RASCI

 Each CI-vector requires      0.06 MiB 
 Max. subspace vectors           1500      

 Reduced Lists                0.00 MiB 
 Excitation Lists             0.00 MiB 
 Excitation Lists Sign        0.00 MiB 
 CI-space (Max)             101.72 MiB 
 Integrals                   22.78 MiB 
 Memory required (Max)      101.72 MiB 
 Memory available          1907.35 MiB 

    Disk requirements of RASCI

 Fock matrix                  0.57 MiB 
 2-electron integrals        24.43 MiB 
 CI-space                   167.40 MiB 
 Disk required              192.40 MiB 
-----------------------------------------
  
RAS1 HF-like energy:          -3448.8320675257
 Computing integrals
 Computing J and K matrices
 Computing addressing
 Making amplitude guesses
 
Direct CI diagonalization
 ---------------------------------------------------
 Iter    Rts Conv    Rts Left    Ttl Dev     Max Dev
 ---------------------------------------------------
   1         0          15      0.038270    0.005491
   2         0          15      0.020800    0.002823
   3         0          15      0.012308    0.001767
   4         0          15      0.013353    0.002729
   5         0          15      0.006595    0.001670
   6         0          15      0.004884    0.001616
   7         0          15      0.003332    0.001224
   8         0          15      0.003909    0.001675
   9         0          15      0.004309    0.002499
  10         0          15      0.003589    0.002123
  11         0          15      0.002137    0.001165
  12         0          15      0.002787    0.001655
  13         0          15      0.000923    0.000533
  14         0          15      0.000779    0.000427
  15         0          15      0.000567    0.000302
  16         0          15      0.000567    0.000322
  17         1          14      0.000314    0.000183
  18         7           8      0.000211    0.000100
  19         7           8      0.000210    0.000095
  20        12           3      0.000150    0.000072
  21        12           3      0.000096    0.000042
  22        12           3      0.000070    0.000030
  23        13           2      0.000055    0.000026
  24        13           2      0.000041    0.000016
  25        13           2      0.000039    0.000015
  26        13           2      0.000026    0.000010
  27        13           2      0.000026    0.000012
  28        13           2      0.000018    0.000005
  29        13           2      0.000016    0.000005
  30        13           2      0.000015    0.000004
  31        14           1      0.000013    0.000003
  32        14           1      0.000011    0.000002
  33        15           0      0.000011    0.000001    Roots Converged
 ---------------------------------------------------
   
**************************************************
 RAS-CI total energy for state   1:  -3477.128174509732
  Excitation energy (eV) =  0.000000000000
  Warning: not all configurations have same symmetry
  State symmetry: *B3u   (D2h      )
  <S^2>      :  0.7500
  Dipole Moment:   -0.0000 X     0.0000 Y     0.0000 Z
 NATURAL OCCUPATION NUMBERS (higher than 1.0E-05)
            1           2           3           4           5           6
    1   2.0000000   2.0000000   2.0000000   2.0000000   2.0000000   2.0000000
            7           8           9          10          11          12
    1   2.0000000   2.0000000   2.0000000   2.0000000   2.0000000   2.0000000
           13          14          15          16          17          18
    1   2.0000000   2.0000000   2.0000000   2.0000000   2.0000000   2.0000000
           19          20          21          22          23          24
    1   2.0000000   2.0000000   2.0000000   2.0000000   2.0000000   2.0000000
           25          26          27          28          29          30
    1   2.0000000   2.0000000   2.0000000   2.0000000   2.0000000   2.0000000
           31          32          33          34          35          36
    1   2.0000000   2.0000000   2.0000000   2.0000000   2.0000000   2.0000000
           37          38          39          40          41          42
    1   2.0000000   2.0000000   2.0000000   2.0000000   2.0000000   2.0000000
           43          44          45          46          47          48
    1   2.0000000   1.9999966   1.9980786   1.9972727   1.9972727   1.9940307
           49          50          51          52          53          54
    1   1.9885024   1.0077548   0.0054755   0.0037203   0.0025963   0.0025963
           55          56          57          58          59          60
    1   0.0018813   0.0002458   0.0002212   0.0000956   0.0000841   0.0000489
           61          62          63
    1   0.0000489   0.0000413   0.0000167
Natural Orbitals stored in FCHK

  Amplitudes : 
  
 | HOLE  | ALPHA  | BETA   | PART  |    AMPLITUDE 
--------------------------------------------------
 |       | 111111 | 111110 |       |     8.7939725034509E-01
 |       | 111111 | 011111 |       |     3.8579365213691E-01
--------------------------------------------------
*** Contributions RASCI wfn    Active:  92.22
                                 Hole:   0.02
                                 Part:   7.76

      Mulliken population analysis 
 ---------------------------------------------------
   Atom    Charge (a.u.)   Spin (a.u.)  
 ---------------------------------------------------
   1 Cu    1.228283        0.721848 
   2 Cl   -0.807071        0.069538 
   3 Cl   -0.807071        0.069538 
   4 Cl   -0.807071        0.069538 
   5 Cl   -0.807071        0.069538 
 ---------------------------------------------------
   Sum:   -2.000000        1.000000 
 ---------------------------------------------------
 
  
 NATURAL OCCUPATION NUMBERS (higher than 1.0E-05)
            1           2           3           4           5           6
    1   2.0000000   2.0000000   2.0000000   2.0000000   2.0000000   2.0000000
            7           8           9          10          11          12
    1   2.0000000   2.0000000   2.0000000   2.0000000   2.0000000   2.0000000
           13          14          15          16          17          18
    1   2.0000000   2.0000000   2.0000000   2.0000000   2.0000000   2.0000000
           19          20          21          22          23          24
    1   2.0000000   2.0000000   2.0000000   2.0000000   2.0000000   2.0000000
           25          26          27          28          29          30
    1   2.0000000   2.0000000   2.0000000   2.0000000   2.0000000   2.0000000
           31          32          33          34          35          36
    1   2.0000000   2.0000000   2.0000000   2.0000000   2.0000000   2.0000000
           37          38          39          40          41          42
    1   2.0000000   2.0000000   2.0000000   2.0000000   2.0000000   2.0000000
           43          44          45          46          47          48
    1   2.0000000   1.9999966   1.9980786   1.9972727   1.9972727   1.9940307
           49          50          51          52          53          54
    1   1.9885024   1.0077548   0.0054755   0.0037203   0.0025963   0.0025963
           55          56          57          58          59          60
    1   0.0018813   0.0002458   0.0002212   0.0000956   0.0000841   0.0000489
           61          62          63
    1   0.0000489   0.0000413   0.0000167
  
*** Unpaired Electrons
 Yamaguchi Nd:         1.08
 Head-Gordon Nu:       1.03
 Head-Gordon Nu_nl:    1.00
  
**************************************************
 RAS-CI total energy for state   2:  -3477.036995890951
  Excitation energy (eV) =  2.481096451268
  Warning: not all configurations have same symmetry
  State symmetry: *B3u   (D2h      )
  <S^2>      :  0.7500
  Dipole Moment:   -0.0000 X     0.0000 Y     0.0000 Z
  Trans. Moment:   -0.0000 X    -0.0000 Y     0.0000 Z
  Strength   :  0.000000
  Natural transition orbitals ( 1 -> 2 ):
   e-/hole pair  1 alpha:  ampl =  0.008713 (  0.0%)   [6 : 7]
   e-/hole pair  2 alpha:  ampl =  0.006092 (  0.0%)   [5 : 8]
   e-/hole pair  1 beta :  ampl =  0.970330 ( 94.2%)   [6 : 7]
   e-/hole pair  2 beta :  ampl =  0.065928 (  0.4%)   [5 : 8]
   Sum of square amplitudes: 0.95

 NATURAL OCCUPATION NUMBERS (higher than 1.0E-05)
            1           2           3           4           5           6
    1   2.0000000   2.0000000   2.0000000   2.0000000   2.0000000   2.0000000
            7           8           9          10          11          12
    1   2.0000000   2.0000000   2.0000000   2.0000000   2.0000000   2.0000000
           13          14          15          16          17          18
    1   2.0000000   2.0000000   2.0000000   2.0000000   2.0000000   2.0000000
           19          20          21          22          23          24
    1   2.0000000   2.0000000   2.0000000   2.0000000   2.0000000   2.0000000
           25          26          27          28          29          30
    1   2.0000000   2.0000000   2.0000000   2.0000000   2.0000000   2.0000000
           31          32          33          34          35          36
    1   2.0000000   2.0000000   2.0000000   2.0000000   2.0000000   2.0000000
           37          38          39          40          41          42
    1   2.0000000   2.0000000   2.0000000   2.0000000   2.0000000   2.0000000
           43          44          45          46          47          48
    1   2.0000000   1.9994605   1.9968491   1.9937830   1.9894259   1.9820916
           49          50          51          52          53          54
    1   1.9585676   1.0365877   0.0178530   0.0103476   0.0061285   0.0053290
           55          56          57          58
    1   0.0030437   0.0004651   0.0000267   0.0000174
Natural Orbitals stored in FCHK

  Amplitudes : 
  
 | HOLE  | ALPHA  | BETA   | PART  |    AMPLITUDE 
--------------------------------------------------
 |       | 111111 | 111011 |       |     6.5194200648478E-01
 |  40   | 111111 | 111111 |       |     7.0766390834920E-01
--------------------------------------------------
*** Contributions RASCI wfn    Active:  42.50
                                 Hole:  50.08
                                 Part:   7.42

      Mulliken population analysis 
 ---------------------------------------------------
   Atom    Charge (a.u.)   Spin (a.u.)  
 ---------------------------------------------------
   1 Cu    1.422456        0.880630 
   2 Cl   -0.824324        0.059924 
   3 Cl   -0.886904       -0.000239 
   4 Cl   -0.886904       -0.000239 
   5 Cl   -0.824324        0.059924 
 ---------------------------------------------------
   Sum:   -2.000000        1.000000 
 ---------------------------------------------------
 
  
 NATURAL OCCUPATION NUMBERS (higher than 1.0E-05)
            1           2           3           4           5           6
    1   2.0000000   2.0000000   2.0000000   2.0000000   2.0000000   2.0000000
            7           8           9          10          11          12
    1   2.0000000   2.0000000   2.0000000   2.0000000   2.0000000   2.0000000
           13          14          15          16          17          18
    1   2.0000000   2.0000000   2.0000000   2.0000000   2.0000000   2.0000000
           19          20          21          22          23          24
    1   2.0000000   2.0000000   2.0000000   2.0000000   2.0000000   2.0000000
           25          26          27          28          29          30
    1   2.0000000   2.0000000   2.0000000   2.0000000   2.0000000   2.0000000
           31          32          33          34          35          36
    1   2.0000000   2.0000000   2.0000000   2.0000000   2.0000000   2.0000000
           37          38          39          40          41          42
    1   2.0000000   2.0000000   2.0000000   2.0000000   2.0000000   2.0000000
           43          44          45          46          47          48
    1   2.0000000   1.9994605   1.9968491   1.9937830   1.9894259   1.9820916
           49          50          51          52          53          54
    1   1.9585676   1.0365877   0.0178530   0.0103476   0.0061285   0.0053290
           55          56          57          58
    1   0.0030437   0.0004651   0.0000267   0.0000174
  
*** Unpaired Electrons
 Yamaguchi Nd:         1.24
 Head-Gordon Nu:       1.09
 Head-Gordon Nu_nl:    1.01
  
**************************************************
 RAS-CI total energy for state   3:  -3477.036995890858
  Excitation energy (eV) =  2.481096453811
  Warning: not all configurations have same symmetry
  State symmetry: *B2u   (D2h      )
  <S^2>      :  0.7500
  Dipole Moment:   -0.0000 X     0.0000 Y     0.0000 Z
  Trans. Moment:   -0.0000 X    -0.0000 Y    -0.0000 Z
  Strength   :  0.000000
  Natural transition orbitals ( 1 -> 3 ):
   e-/hole pair  1 alpha:  ampl =  0.008713 (  0.0%)   [6 : 7]
   e-/hole pair  2 alpha:  ampl =  0.006092 (  0.0%)   [5 : 8]
   e-/hole pair  1 beta :  ampl =  0.970330 ( 94.2%)   [6 : 7]
   e-/hole pair  2 beta :  ampl =  0.065928 (  0.4%)   [5 : 8]
   Sum of square amplitudes: 0.95

 NATURAL OCCUPATION NUMBERS (higher than 1.0E-05)
            1           2           3           4           5           6
    1   2.0000000   2.0000000   2.0000000   2.0000000   2.0000000   2.0000000
            7           8           9          10          11          12
    1   2.0000000   2.0000000   2.0000000   2.0000000   2.0000000   2.0000000
           13          14          15          16          17          18
    1   2.0000000   2.0000000   2.0000000   2.0000000   2.0000000   2.0000000
           19          20          21          22          23          24
    1   2.0000000   2.0000000   2.0000000   2.0000000   2.0000000   2.0000000
           25          26          27          28          29          30
    1   2.0000000   2.0000000   2.0000000   2.0000000   2.0000000   2.0000000
           31          32          33          34          35          36
    1   2.0000000   2.0000000   2.0000000   2.0000000   2.0000000   2.0000000
           37          38          39          40          41          42
    1   2.0000000   2.0000000   2.0000000   2.0000000   2.0000000   2.0000000
           43          44          45          46          47          48
    1   2.0000000   1.9994605   1.9968491   1.9937830   1.9894259   1.9820916
           49          50          51          52          53          54
    1   1.9585676   1.0365877   0.0178530   0.0103476   0.0061285   0.0053290
           55          56          57          58
    1   0.0030437   0.0004651   0.0000267   0.0000174
Natural Orbitals stored in FCHK

  Amplitudes : 
  
 | HOLE  | ALPHA  | BETA   | PART  |    AMPLITUDE 
--------------------------------------------------
 |       | 111111 | 111101 |       |    -6.5194200569868E-01
 |  41   | 111111 | 111111 |       |     7.0766390911958E-01
--------------------------------------------------
*** Contributions RASCI wfn    Active:  42.50
                                 Hole:  50.08
                                 Part:   7.42

      Mulliken population analysis 
 ---------------------------------------------------
   Atom    Charge (a.u.)   Spin (a.u.)  
 ---------------------------------------------------
   1 Cu    1.422456        0.880630 
   2 Cl   -0.886904       -0.000239 
   3 Cl   -0.824324        0.059924 
   4 Cl   -0.824324        0.059924 
   5 Cl   -0.886904       -0.000239 
 ---------------------------------------------------
   Sum:   -2.000000        1.000000 
 ---------------------------------------------------
 
  
 NATURAL OCCUPATION NUMBERS (higher than 1.0E-05)
            1           2           3           4           5           6
    1   2.0000000   2.0000000   2.0000000   2.0000000   2.0000000   2.0000000
            7           8           9          10          11          12
    1   2.0000000   2.0000000   2.0000000   2.0000000   2.0000000   2.0000000
           13          14          15          16          17          18
    1   2.0000000   2.0000000   2.0000000   2.0000000   2.0000000   2.0000000
           19          20          21          22          23          24
    1   2.0000000   2.0000000   2.0000000   2.0000000   2.0000000   2.0000000
           25          26          27          28          29          30
    1   2.0000000   2.0000000   2.0000000   2.0000000   2.0000000   2.0000000
           31          32          33          34          35          36
    1   2.0000000   2.0000000   2.0000000   2.0000000   2.0000000   2.0000000
           37          38          39          40          41          42
    1   2.0000000   2.0000000   2.0000000   2.0000000   2.0000000   2.0000000
           43          44          45          46          47          48
    1   2.0000000   1.9994605   1.9968491   1.9937830   1.9894259   1.9820916
           49          50          51          52          53          54
    1   1.9585676   1.0365877   0.0178530   0.0103476   0.0061285   0.0053290
           55          56          57          58
    1   0.0030437   0.0004651   0.0000267   0.0000174
  
*** Unpaired Electrons
 Yamaguchi Nd:         1.24
 Head-Gordon Nu:       1.09
 Head-Gordon Nu_nl:    1.01
  
**************************************************
 RAS-CI total energy for state   4:  -3477.008706282750
  Excitation energy (eV) =  3.250895856611
  Warning: not all configurations have same symmetry
  State symmetry: *B2u   (D2h      )
  <S^2>      :  0.7500
  Dipole Moment:   -0.0000 X     0.0000 Y     0.0000 Z
  Trans. Moment:    0.0000 X    -0.0000 Y    -0.0000 Z
  Strength   :  0.000000
  Natural transition orbitals ( 1 -> 4 ):
   e-/hole pair  1 alpha:  ampl =  0.004681 (  0.0%)   [6 : 7]
   e-/hole pair  2 alpha:  ampl =  0.002928 (  0.0%)   [5 : 8]
   e-/hole pair  1 beta :  ampl =  0.958503 ( 91.9%)   [6 : 7]
   e-/hole pair  2 beta :  ampl =  0.073841 (  0.5%)   [5 : 8]
   Sum of square amplitudes: 0.92

 NATURAL OCCUPATION NUMBERS (higher than 1.0E-05)
            1           2           3           4           5           6
    1   2.0000000   2.0000000   2.0000000   2.0000000   2.0000000   2.0000000
            7           8           9          10          11          12
    1   2.0000000   2.0000000   2.0000000   2.0000000   2.0000000   2.0000000
           13          14          15          16          17          18
    1   2.0000000   2.0000000   2.0000000   2.0000000   2.0000000   2.0000000
           19          20          21          22          23          24
    1   2.0000000   2.0000000   2.0000000   2.0000000   2.0000000   2.0000000
           25          26          27          28          29          30
    1   2.0000000   2.0000000   2.0000000   2.0000000   2.0000000   2.0000000
           31          32          33          34          35          36
    1   2.0000000   2.0000000   2.0000000   2.0000000   2.0000000   2.0000000
           37          38          39          40          41          42
    1   2.0000000   2.0000000   2.0000000   2.0000000   2.0000000   2.0000000
           43          44          45          46          47          48
    1   2.0000000   1.9996089   1.9938680   1.9938680   1.9881361   1.9847367
           49          50          51          52          53          54
    1   1.9574125   1.0405863   0.0151396   0.0117727   0.0060182   0.0060182
           55          56          57          58
    1   0.0024213   0.0003540   0.0000181   0.0000132
Natural Orbitals stored in FCHK

  Amplitudes : 
  
 | HOLE  | ALPHA  | BETA   | PART  |    AMPLITUDE 
--------------------------------------------------
 |       | 111111 | 110111 |       |    -3.8850704360512E-01
 |  38   | 111111 | 111111 |       |     8.9443800944106E-01
--------------------------------------------------
*** Contributions RASCI wfn    Active:  15.09
                                 Hole:  80.00
                                 Part:   4.90

      Mulliken population analysis 
 ---------------------------------------------------
   Atom    Charge (a.u.)   Spin (a.u.)  
 ---------------------------------------------------
   1 Cu    1.425619        0.822928 
   2 Cl   -0.856405        0.044268 
   3 Cl   -0.856405        0.044268 
   4 Cl   -0.856405        0.044268 
   5 Cl   -0.856405        0.044268 
 ---------------------------------------------------
   Sum:   -2.000000        1.000000 
 ---------------------------------------------------
 
  
 NATURAL OCCUPATION NUMBERS (higher than 1.0E-05)
            1           2           3           4           5           6
    1   2.0000000   2.0000000   2.0000000   2.0000000   2.0000000   2.0000000
            7           8           9          10          11          12
    1   2.0000000   2.0000000   2.0000000   2.0000000   2.0000000   2.0000000
           13          14          15          16          17          18
    1   2.0000000   2.0000000   2.0000000   2.0000000   2.0000000   2.0000000
           19          20          21          22          23          24
    1   2.0000000   2.0000000   2.0000000   2.0000000   2.0000000   2.0000000
           25          26          27          28          29          30
    1   2.0000000   2.0000000   2.0000000   2.0000000   2.0000000   2.0000000
           31          32          33          34          35          36
    1   2.0000000   2.0000000   2.0000000   2.0000000   2.0000000   2.0000000
           37          38          39          40          41          42
    1   2.0000000   2.0000000   2.0000000   2.0000000   2.0000000   2.0000000
           43          44          45          46          47          48
    1   2.0000000   1.9996089   1.9938680   1.9938680   1.9881361   1.9847367
           49          50          51          52          53          54
    1   1.9574125   1.0405863   0.0151396   0.0117727   0.0060182   0.0060182
           55          56          57          58
    1   0.0024213   0.0003540   0.0000181   0.0000132
  
*** Unpaired Electrons
 Yamaguchi Nd:         1.24
 Head-Gordon Nu:       1.08
 Head-Gordon Nu_nl:    1.01
  
**************************************************
 RAS-CI total energy for state   5:  -3476.978308664431
  Excitation energy (eV) =  4.078057135709
  State symmetry: Ag    (D2h      )
  <S^2>      :  0.7500
  Dipole Moment:   -0.0000 X    -0.0000 Y     0.0000 Z
  Trans. Moment:   -0.0000 X    -0.0000 Y    -0.0000 Z
  Strength   :  0.000000
  Natural transition orbitals ( 1 -> 5 ):
   e-/hole pair  1 alpha:  ampl =  0.003364 (  0.0%)   [6 : 7]
   e-/hole pair  2 alpha:  ampl =  0.003103 (  0.0%)   [5 : 8]
   e-/hole pair  1 beta :  ampl =  0.958786 ( 91.9%)   [6 : 7]
   e-/hole pair  2 beta :  ampl =  0.025066 (  0.1%)   [5 : 8]
   Sum of square amplitudes: 0.92

 NATURAL OCCUPATION NUMBERS (higher than 1.0E-05)
            1           2           3           4           5           6
    1   2.0000000   2.0000000   2.0000000   2.0000000   2.0000000   2.0000000
            7           8           9          10          11          12
    1   2.0000000   2.0000000   2.0000000   2.0000000   2.0000000   2.0000000
           13          14          15          16          17          18
    1   2.0000000   2.0000000   2.0000000   2.0000000   2.0000000   2.0000000
           19          20          21          22          23          24
    1   2.0000000   2.0000000   2.0000000   2.0000000   2.0000000   2.0000000
           25          26          27          28          29          30
    1   2.0000000   2.0000000   2.0000000   2.0000000   2.0000000   2.0000000
           31          32          33          34          35          36
    1   2.0000000   2.0000000   2.0000000   2.0000000   2.0000000   2.0000000
           37          38          39          40          41          42
    1   2.0000000   2.0000000   2.0000000   2.0000000   2.0000000   2.0000000
           43          44          45          46          47          48
    1   2.0000000   1.9999420   1.9999275   1.9999275   1.9997344   1.9970696
           49          50          51          52          53          54
    1   1.9967192   1.0033400   0.0028220   0.0001775   0.0000621   0.0000621
           55          56          57          58          59
    1   0.0000613   0.0000422   0.0000316   0.0000189   0.0000152
Natural Orbitals stored in FCHK

  Amplitudes : 
  
 | HOLE  | ALPHA  | BETA   | PART  |    AMPLITUDE 
--------------------------------------------------
 |  44   | 111111 | 111111 |       |     9.9832861766715E-01
--------------------------------------------------
*** Contributions RASCI wfn    Active:   0.00
                                 Hole:  99.67
                                 Part:   0.33

      Mulliken population analysis 
 ---------------------------------------------------
   Atom    Charge (a.u.)   Spin (a.u.)  
 ---------------------------------------------------
   1 Cu    0.656952        0.001783 
   2 Cl   -0.664238        0.249554 
   3 Cl   -0.664238        0.249554 
   4 Cl   -0.664238        0.249554 
   5 Cl   -0.664238        0.249554 
 ---------------------------------------------------
   Sum:   -2.000000        1.000000 
 ---------------------------------------------------
 
  
 NATURAL OCCUPATION NUMBERS (higher than 1.0E-05)
            1           2           3           4           5           6
    1   2.0000000   2.0000000   2.0000000   2.0000000   2.0000000   2.0000000
            7           8           9          10          11          12
    1   2.0000000   2.0000000   2.0000000   2.0000000   2.0000000   2.0000000
           13          14          15          16          17          18
    1   2.0000000   2.0000000   2.0000000   2.0000000   2.0000000   2.0000000
           19          20          21          22          23          24
    1   2.0000000   2.0000000   2.0000000   2.0000000   2.0000000   2.0000000
           25          26          27          28          29          30
    1   2.0000000   2.0000000   2.0000000   2.0000000   2.0000000   2.0000000
           31          32          33          34          35          36
    1   2.0000000   2.0000000   2.0000000   2.0000000   2.0000000   2.0000000
           37          38          39          40          41          42
    1   2.0000000   2.0000000   2.0000000   2.0000000   2.0000000   2.0000000
           43          44          45          46          47          48
    1   2.0000000   1.9999420   1.9999275   1.9999275   1.9997344   1.9970696
           49          50          51          52          53          54
    1   1.9967192   1.0033400   0.0028220   0.0001775   0.0000621   0.0000621
           55          56          57          58          59
    1   0.0000613   0.0000422   0.0000316   0.0000189   0.0000152
  
*** Unpaired Electrons
 Yamaguchi Nd:         1.02
 Head-Gordon Nu:       1.01
 Head-Gordon Nu_nl:    1.00
  
**************************************************
 RAS-CI total energy for state   6:  -3476.958806403450
  Excitation energy (eV) =  4.608740657342
  State symmetry: Ag    (D2h      )
  <S^2>      :  0.7500
  Dipole Moment:    0.0000 X     0.0000 Y     0.0000 Z
  Trans. Moment:    0.9436 X    -0.0842 Y     0.0000 Z
  Strength   :  0.101342
  Natural transition orbitals ( 1 -> 6 ):
   e-/hole pair  1 alpha:  ampl =  0.023502 (  0.1%)   [6 : 7]
   e-/hole pair  2 alpha:  ampl =  0.008060 (  0.0%)   [5 : 8]
   e-/hole pair  1 beta :  ampl =  0.957710 ( 91.7%)   [6 : 7]
   e-/hole pair  2 beta :  ampl =  0.021702 (  0.0%)   [5 : 8]
   Sum of square amplitudes: 0.92

 NATURAL OCCUPATION NUMBERS (higher than 1.0E-05)
            1           2           3           4           5           6
    1   2.0000000   2.0000000   2.0000000   2.0000000   2.0000000   2.0000000
            7           8           9          10          11          12
    1   2.0000000   2.0000000   2.0000000   2.0000000   2.0000000   2.0000000
           13          14          15          16          17          18
    1   2.0000000   2.0000000   2.0000000   2.0000000   2.0000000   2.0000000
           19          20          21          22          23          24
    1   2.0000000   2.0000000   2.0000000   2.0000000   2.0000000   2.0000000
           25          26          27          28          29          30
    1   2.0000000   2.0000000   2.0000000   2.0000000   2.0000000   2.0000000
           31          32          33          34          35          36
    1   2.0000000   2.0000000   2.0000000   2.0000000   2.0000000   2.0000000
           37          38          39          40          41          42
    1   2.0000000   2.0000000   2.0000000   2.0000000   2.0000000   2.0000000
           43          44          45          46          47          48
    1   2.0000000   1.9998594   1.9995993   1.9995784   1.9984648   1.9979730
           49          50          51          52          53          54
    1   1.9933737   1.0055757   0.0024949   0.0013587   0.0005966   0.0003751
           55          56          57          58          59          60
    1   0.0002489   0.0001410   0.0000959   0.0000769   0.0000578   0.0000470
           61          62
    1   0.0000226   0.0000162
Natural Orbitals stored in FCHK

  Amplitudes : 
  
 | HOLE  | ALPHA  | BETA   | PART  |    AMPLITUDE 
--------------------------------------------------
 |  43   | 111111 | 111111 |       |     9.9179971919931E-01
--------------------------------------------------
*** Contributions RASCI wfn    Active:   0.00
                                 Hole:  99.44
                                 Part:   0.56

      Mulliken population analysis 
 ---------------------------------------------------
   Atom    Charge (a.u.)   Spin (a.u.)  
 ---------------------------------------------------
   1 Cu    0.657004        0.000838 
   2 Cl   -0.731418        0.182948 
   3 Cl   -0.597084        0.316633 
   4 Cl   -0.597084        0.316633 
   5 Cl   -0.731418        0.182948 
 ---------------------------------------------------
   Sum:   -2.000000        1.000000 
 ---------------------------------------------------
 
  
 NATURAL OCCUPATION NUMBERS (higher than 1.0E-05)
            1           2           3           4           5           6
    1   2.0000000   2.0000000   2.0000000   2.0000000   2.0000000   2.0000000
            7           8           9          10          11          12
    1   2.0000000   2.0000000   2.0000000   2.0000000   2.0000000   2.0000000
           13          14          15          16          17          18
    1   2.0000000   2.0000000   2.0000000   2.0000000   2.0000000   2.0000000
           19          20          21          22          23          24
    1   2.0000000   2.0000000   2.0000000   2.0000000   2.0000000   2.0000000
           25          26          27          28          29          30
    1   2.0000000   2.0000000   2.0000000   2.0000000   2.0000000   2.0000000
           31          32          33          34          35          36
    1   2.0000000   2.0000000   2.0000000   2.0000000   2.0000000   2.0000000
           37          38          39          40          41          42
    1   2.0000000   2.0000000   2.0000000   2.0000000   2.0000000   2.0000000
           43          44          45          46          47          48
    1   2.0000000   1.9998594   1.9995993   1.9995784   1.9984648   1.9979730
           49          50          51          52          53          54
    1   1.9933737   1.0055757   0.0024949   0.0013587   0.0005966   0.0003751
           55          56          57          58          59          60
    1   0.0002489   0.0001410   0.0000959   0.0000769   0.0000578   0.0000470
           61          62
    1   0.0000226   0.0000162
  
*** Unpaired Electrons
 Yamaguchi Nd:         1.03
 Head-Gordon Nu:       1.01
 Head-Gordon Nu_nl:    1.00
  
**************************************************
 RAS-CI total energy for state   7:  -3476.958806403436
  Excitation energy (eV) =  4.608740657731
  State symmetry: Ag    (D2h      )
  <S^2>      :  0.7500
  Dipole Moment:   -0.0000 X     0.0000 Y     0.0000 Z
  Trans. Moment:    0.0842 X     0.9436 Y    -0.0000 Z
  Strength   :  0.101342
  Natural transition orbitals ( 1 -> 7 ):
   e-/hole pair  1 alpha:  ampl =  0.023502 (  0.1%)   [6 : 7]
   e-/hole pair  2 alpha:  ampl =  0.008060 (  0.0%)   [5 : 8]
   e-/hole pair  1 beta :  ampl =  0.957710 ( 91.7%)   [6 : 7]
   e-/hole pair  2 beta :  ampl =  0.021702 (  0.0%)   [5 : 8]
   Sum of square amplitudes: 0.92

 NATURAL OCCUPATION NUMBERS (higher than 1.0E-05)
            1           2           3           4           5           6
    1   2.0000000   2.0000000   2.0000000   2.0000000   2.0000000   2.0000000
            7           8           9          10          11          12
    1   2.0000000   2.0000000   2.0000000   2.0000000   2.0000000   2.0000000
           13          14          15          16          17          18
    1   2.0000000   2.0000000   2.0000000   2.0000000   2.0000000   2.0000000
           19          20          21          22          23          24
    1   2.0000000   2.0000000   2.0000000   2.0000000   2.0000000   2.0000000
           25          26          27          28          29          30
    1   2.0000000   2.0000000   2.0000000   2.0000000   2.0000000   2.0000000
           31          32          33          34          35          36
    1   2.0000000   2.0000000   2.0000000   2.0000000   2.0000000   2.0000000
           37          38          39          40          41          42
    1   2.0000000   2.0000000   2.0000000   2.0000000   2.0000000   2.0000000
           43          44          45          46          47          48
    1   2.0000000   1.9998594   1.9995993   1.9995784   1.9984648   1.9979730
           49          50          51          52          53          54
    1   1.9933737   1.0055757   0.0024949   0.0013587   0.0005966   0.0003751
           55          56          57          58          59          60
    1   0.0002489   0.0001410   0.0000959   0.0000769   0.0000578   0.0000470
           61          62
    1   0.0000226   0.0000162
Natural Orbitals stored in FCHK

  Amplitudes : 
  
 | HOLE  | ALPHA  | BETA   | PART  |    AMPLITUDE 
--------------------------------------------------
 |  42   | 111111 | 111111 |       |     9.9179971901631E-01
--------------------------------------------------
*** Contributions RASCI wfn    Active:   0.00
                                 Hole:  99.44
                                 Part:   0.56

      Mulliken population analysis 
 ---------------------------------------------------
   Atom    Charge (a.u.)   Spin (a.u.)  
 ---------------------------------------------------
   1 Cu    0.657004        0.000838 
   2 Cl   -0.597084        0.316633 
   3 Cl   -0.731418        0.182948 
   4 Cl   -0.731418        0.182948 
   5 Cl   -0.597084        0.316633 
 ---------------------------------------------------
   Sum:   -2.000000        1.000000 
 ---------------------------------------------------
 
  
 NATURAL OCCUPATION NUMBERS (higher than 1.0E-05)
            1           2           3           4           5           6
    1   2.0000000   2.0000000   2.0000000   2.0000000   2.0000000   2.0000000
            7           8           9          10          11          12
    1   2.0000000   2.0000000   2.0000000   2.0000000   2.0000000   2.0000000
           13          14          15          16          17          18
    1   2.0000000   2.0000000   2.0000000   2.0000000   2.0000000   2.0000000
           19          20          21          22          23          24
    1   2.0000000   2.0000000   2.0000000   2.0000000   2.0000000   2.0000000
           25          26          27          28          29          30
    1   2.0000000   2.0000000   2.0000000   2.0000000   2.0000000   2.0000000
           31          32          33          34          35          36
    1   2.0000000   2.0000000   2.0000000   2.0000000   2.0000000   2.0000000
           37          38          39          40          41          42
    1   2.0000000   2.0000000   2.0000000   2.0000000   2.0000000   2.0000000
           43          44          45          46          47          48
    1   2.0000000   1.9998594   1.9995993   1.9995784   1.9984648   1.9979730
           49          50          51          52          53          54
    1   1.9933737   1.0055757   0.0024949   0.0013587   0.0005966   0.0003751
           55          56          57          58          59          60
    1   0.0002489   0.0001410   0.0000959   0.0000769   0.0000578   0.0000470
           61          62
    1   0.0000226   0.0000162
  
*** Unpaired Electrons
 Yamaguchi Nd:         1.03
 Head-Gordon Nu:       1.01
 Head-Gordon Nu_nl:    1.00
  
**************************************************
 RAS-CI total energy for state   8:  -3476.957089713119
  Excitation energy (eV) =  4.655454177939
  Warning: not all configurations have same symmetry
  State symmetry: *B3u   (D2h      )
  <S^2>      :  0.7500
  Dipole Moment:    0.0000 X    -0.0000 Y     0.0000 Z
  Trans. Moment:   -0.0000 X    -0.0000 Y     0.0000 Z
  Strength   :  0.000000
  Natural transition orbitals ( 1 -> 8 ):
   e-/hole pair  1 alpha:  ampl =  0.020607 (  0.0%)   [6 : 7]
   e-/hole pair  2 alpha:  ampl =  0.006105 (  0.0%)   [5 : 8]
   e-/hole pair  1 beta :  ampl =  0.955415 ( 91.3%)   [6 : 7]
   e-/hole pair  2 beta :  ampl =  0.056994 (  0.3%)   [5 : 8]
   Sum of square amplitudes: 0.92

 NATURAL OCCUPATION NUMBERS (higher than 1.0E-05)
            1           2           3           4           5           6
    1   2.0000000   2.0000000   2.0000000   2.0000000   2.0000000   2.0000000
            7           8           9          10          11          12
    1   2.0000000   2.0000000   2.0000000   2.0000000   2.0000000   2.0000000
           13          14          15          16          17          18
    1   2.0000000   2.0000000   2.0000000   2.0000000   2.0000000   2.0000000
           19          20          21          22          23          24
    1   2.0000000   2.0000000   2.0000000   2.0000000   2.0000000   2.0000000
           25          26          27          28          29          30
    1   2.0000000   2.0000000   2.0000000   2.0000000   2.0000000   2.0000000
           31          32          33          34          35          36
    1   2.0000000   2.0000000   2.0000000   2.0000000   2.0000000   2.0000000
           37          38          39          40          41          42
    1   2.0000000   2.0000000   2.0000000   2.0000000   2.0000000   2.0000000
           43          44          45          46          47          48
    1   2.0000000   1.9992972   1.9982150   1.9955030   1.9955030   1.9918875
           49          50          51          52          53          54
    1   1.9712701   1.0239478   0.0066511   0.0066170   0.0044225   0.0044225
           55          56          57          58          59          60
    1   0.0016102   0.0002749   0.0001818   0.0000492   0.0000491   0.0000201
           61          62          63
    1   0.0000201   0.0000168   0.0000123
Natural Orbitals stored in FCHK

  Amplitudes : 
  
 | HOLE  | ALPHA  | BETA   | PART  |    AMPLITUDE 
--------------------------------------------------
 |       | 111111 | 101111 |       |    -2.0121410967237E-01
 |  37   | 111111 | 111111 |       |     9.6657113404371E-01
--------------------------------------------------
*** Contributions RASCI wfn    Active:   4.05
                                 Hole:  93.43
                                 Part:   2.52

      Mulliken population analysis 
 ---------------------------------------------------
   Atom    Charge (a.u.)   Spin (a.u.)  
 ---------------------------------------------------
   1 Cu    1.536982        0.903598 
   2 Cl   -0.884245        0.024100 
   3 Cl   -0.884245        0.024100 
   4 Cl   -0.884245        0.024100 
   5 Cl   -0.884245        0.024100 
 ---------------------------------------------------
   Sum:   -2.000000        1.000000 
 ---------------------------------------------------
 
  
 NATURAL OCCUPATION NUMBERS (higher than 1.0E-05)
            1           2           3           4           5           6
    1   2.0000000   2.0000000   2.0000000   2.0000000   2.0000000   2.0000000
            7           8           9          10          11          12
    1   2.0000000   2.0000000   2.0000000   2.0000000   2.0000000   2.0000000
           13          14          15          16          17          18
    1   2.0000000   2.0000000   2.0000000   2.0000000   2.0000000   2.0000000
           19          20          21          22          23          24
    1   2.0000000   2.0000000   2.0000000   2.0000000   2.0000000   2.0000000
           25          26          27          28          29          30
    1   2.0000000   2.0000000   2.0000000   2.0000000   2.0000000   2.0000000
           31          32          33          34          35          36
    1   2.0000000   2.0000000   2.0000000   2.0000000   2.0000000   2.0000000
           37          38          39          40          41          42
    1   2.0000000   2.0000000   2.0000000   2.0000000   2.0000000   2.0000000
           43          44          45          46          47          48
    1   2.0000000   1.9992972   1.9982150   1.9955030   1.9955030   1.9918875
           49          50          51          52          53          54
    1   1.9712701   1.0239478   0.0066511   0.0066170   0.0044225   0.0044225
           55          56          57          58          59          60
    1   0.0016102   0.0002749   0.0001818   0.0000492   0.0000491   0.0000201
           61          62          63
    1   0.0000201   0.0000168   0.0000123
  
*** Unpaired Electrons
 Yamaguchi Nd:         1.14
 Head-Gordon Nu:       1.05
 Head-Gordon Nu_nl:    1.00
  
**************************************************
 RAS-CI total energy for state   9:  -3476.947444878642
  Excitation energy (eV) =  4.917903477084
  State symmetry: Ag    (D2h      )
  <S^2>      :  0.7500
  Dipole Moment:    0.0000 X    -0.0000 Y     0.0000 Z
  Trans. Moment:    0.0000 X    -0.0000 Y    -0.0191 Z
  Strength   :  0.000044
  Natural transition orbitals ( 1 -> 9 ):
   e-/hole pair  1 alpha:  ampl =  0.004182 (  0.0%)   [6 : 7]
   e-/hole pair  2 alpha:  ampl =  0.002355 (  0.0%)   [5 : 8]
   e-/hole pair  1 beta :  ampl =  0.959173 ( 92.0%)   [6 : 7]
   e-/hole pair  2 beta :  ampl =  0.015537 (  0.0%)   [5 : 8]
   Sum of square amplitudes: 0.92

 NATURAL OCCUPATION NUMBERS (higher than 1.0E-05)
            1           2           3           4           5           6
    1   2.0000000   2.0000000   2.0000000   2.0000000   2.0000000   2.0000000
            7           8           9          10          11          12
    1   2.0000000   2.0000000   2.0000000   2.0000000   2.0000000   2.0000000
           13          14          15          16          17          18
    1   2.0000000   2.0000000   2.0000000   2.0000000   2.0000000   2.0000000
           19          20          21          22          23          24
    1   2.0000000   2.0000000   2.0000000   2.0000000   2.0000000   2.0000000
           25          26          27          28          29          30
    1   2.0000000   2.0000000   2.0000000   2.0000000   2.0000000   2.0000000
           31          32          33          34          35          36
    1   2.0000000   2.0000000   2.0000000   2.0000000   2.0000000   2.0000000
           37          38          39          40          41          42
    1   2.0000000   2.0000000   2.0000000   2.0000000   2.0000000   2.0000000
           43          44          45          46          47          48
    1   2.0000000   1.9998891   1.9998578   1.9997144   1.9987402   1.9987402
           49          50          51          52          53          54
    1   1.9979849   1.0025368   0.0009827   0.0009827   0.0001008   0.0001008
           55          56          57          58          59          60
    1   0.0000574   0.0000530   0.0000490   0.0000490   0.0000379   0.0000273
           61          62          63
    1   0.0000184   0.0000159   0.0000159
Natural Orbitals stored in FCHK

  Amplitudes : 
  
 | HOLE  | ALPHA  | BETA   | PART  |    AMPLITUDE 
--------------------------------------------------
 |  39   | 111111 | 111111 |       |     9.9873081333166E-01
--------------------------------------------------
*** Contributions RASCI wfn    Active:   0.00
                                 Hole:  99.75
                                 Part:   0.25

      Mulliken population analysis 
 ---------------------------------------------------
   Atom    Charge (a.u.)   Spin (a.u.)  
 ---------------------------------------------------
   1 Cu    0.657950        0.001724 
   2 Cl   -0.664487        0.249569 
   3 Cl   -0.664487        0.249569 
   4 Cl   -0.664487        0.249569 
   5 Cl   -0.664487        0.249569 
 ---------------------------------------------------
   Sum:   -2.000000        1.000000 
 ---------------------------------------------------
 
  
 NATURAL OCCUPATION NUMBERS (higher than 1.0E-05)
            1           2           3           4           5           6
    1   2.0000000   2.0000000   2.0000000   2.0000000   2.0000000   2.0000000
            7           8           9          10          11          12
    1   2.0000000   2.0000000   2.0000000   2.0000000   2.0000000   2.0000000
           13          14          15          16          17          18
    1   2.0000000   2.0000000   2.0000000   2.0000000   2.0000000   2.0000000
           19          20          21          22          23          24
    1   2.0000000   2.0000000   2.0000000   2.0000000   2.0000000   2.0000000
           25          26          27          28          29          30
    1   2.0000000   2.0000000   2.0000000   2.0000000   2.0000000   2.0000000
           31          32          33          34          35          36
    1   2.0000000   2.0000000   2.0000000   2.0000000   2.0000000   2.0000000
           37          38          39          40          41          42
    1   2.0000000   2.0000000   2.0000000   2.0000000   2.0000000   2.0000000
           43          44          45          46          47          48
    1   2.0000000   1.9998891   1.9998578   1.9997144   1.9987402   1.9987402
           49          50          51          52          53          54
    1   1.9979849   1.0025368   0.0009827   0.0009827   0.0001008   0.0001008
           55          56          57          58          59          60
    1   0.0000574   0.0000530   0.0000490   0.0000490   0.0000379   0.0000273
           61          62          63
    1   0.0000184   0.0000159   0.0000159
  
*** Unpaired Electrons
 Yamaguchi Nd:         1.02
 Head-Gordon Nu:       1.01
 Head-Gordon Nu_nl:    1.00
  
**************************************************
 RAS-CI total energy for state  10:  -3476.925225293125
  Excitation energy (eV) =  5.522529161379
  Warning: not all configurations have same symmetry
  State symmetry: *B2u   (D2h      )
  <S^2>      :  0.7500
  Dipole Moment:   -0.0000 X     0.0000 Y    -0.0000 Z
  Trans. Moment:   -0.0000 X    -0.0000 Y    -0.0000 Z
  Strength   :  0.000000
  Natural transition orbitals ( 1 -> 10 ):
   e-/hole pair  1 alpha:  ampl =  0.005682 (  0.0%)   [6 : 7]
   e-/hole pair  2 alpha:  ampl =  0.004289 (  0.0%)   [5 : 8]
   e-/hole pair  1 beta :  ampl =  0.972249 ( 94.5%)   [6 : 7]
   e-/hole pair  2 beta :  ampl =  0.030683 (  0.1%)   [5 : 8]
   Sum of square amplitudes: 0.95

 NATURAL OCCUPATION NUMBERS (higher than 1.0E-05)
            1           2           3           4           5           6
    1   2.0000000   2.0000000   2.0000000   2.0000000   2.0000000   2.0000000
            7           8           9          10          11          12
    1   2.0000000   2.0000000   2.0000000   2.0000000   2.0000000   2.0000000
           13          14          15          16          17          18
    1   2.0000000   2.0000000   2.0000000   2.0000000   2.0000000   2.0000000
           19          20          21          22          23          24
    1   2.0000000   2.0000000   2.0000000   2.0000000   2.0000000   2.0000000
           25          26          27          28          29          30
    1   2.0000000   2.0000000   2.0000000   2.0000000   2.0000000   2.0000000
           31          32          33          34          35          36
    1   2.0000000   2.0000000   2.0000000   2.0000000   2.0000000   2.0000000
           37          38          39          40          41          42
    1   2.0000000   2.0000000   2.0000000   2.0000000   2.0000000   2.0000000
           43          44          45          46          47          48
    1   2.0000000   1.9997479   1.9996922   1.9994974   1.9984534   1.9961145
           49          50          51          52          53          54
    1   1.9931873   1.0064211   0.0038372   0.0014095   0.0005424   0.0004948
           55          56          57          58          59
    1   0.0002709   0.0002140   0.0000520   0.0000181   0.0000111
Natural Orbitals stored in FCHK

  Amplitudes : 
  
 | HOLE  | ALPHA  | BETA   | PART  |    AMPLITUDE 
--------------------------------------------------
 |       | 111111 | 111101 |       |     7.1151190790400E-01
 |  41   | 111111 | 111111 |       |     6.9276105812452E-01
--------------------------------------------------
*** Contributions RASCI wfn    Active:  50.64
                                 Hole:  48.00
                                 Part:   1.36

      Mulliken population analysis 
 ---------------------------------------------------
   Atom    Charge (a.u.)   Spin (a.u.)  
 ---------------------------------------------------
   1 Cu    0.698396        0.100083 
   2 Cl   -0.891786       -0.000449 
   3 Cl   -0.457412        0.450408 
   4 Cl   -0.457412        0.450408 
   5 Cl   -0.891786       -0.000449 
 ---------------------------------------------------
   Sum:   -2.000000        1.000000 
 ---------------------------------------------------
 
  
 NATURAL OCCUPATION NUMBERS (higher than 1.0E-05)
            1           2           3           4           5           6
    1   2.0000000   2.0000000   2.0000000   2.0000000   2.0000000   2.0000000
            7           8           9          10          11          12
    1   2.0000000   2.0000000   2.0000000   2.0000000   2.0000000   2.0000000
           13          14          15          16          17          18
    1   2.0000000   2.0000000   2.0000000   2.0000000   2.0000000   2.0000000
           19          20          21          22          23          24
    1   2.0000000   2.0000000   2.0000000   2.0000000   2.0000000   2.0000000
           25          26          27          28          29          30
    1   2.0000000   2.0000000   2.0000000   2.0000000   2.0000000   2.0000000
           31          32          33          34          35          36
    1   2.0000000   2.0000000   2.0000000   2.0000000   2.0000000   2.0000000
           37          38          39          40          41          42
    1   2.0000000   2.0000000   2.0000000   2.0000000   2.0000000   2.0000000
           43          44          45          46          47          48
    1   2.0000000   1.9997479   1.9996922   1.9994974   1.9984534   1.9961145
           49          50          51          52          53          54
    1   1.9931873   1.0064211   0.0038372   0.0014095   0.0005424   0.0004948
           55          56          57          58          59
    1   0.0002709   0.0002140   0.0000520   0.0000181   0.0000111
  
*** Unpaired Electrons
 Yamaguchi Nd:         1.04
 Head-Gordon Nu:       1.01
 Head-Gordon Nu_nl:    1.00
  
**************************************************
 RAS-CI total energy for state  11:  -3476.925225293095
  Excitation energy (eV) =  5.522529162207
  Warning: not all configurations have same symmetry
  State symmetry: *B3u   (D2h      )
  <S^2>      :  0.7500
  Dipole Moment:    0.0000 X     0.0000 Y     0.0000 Z
  Trans. Moment:    0.0000 X     0.0000 Y     0.0000 Z
  Strength   :  0.000000
  Natural transition orbitals ( 1 -> 11 ):
   e-/hole pair  1 alpha:  ampl =  0.005682 (  0.0%)   [6 : 7]
   e-/hole pair  2 alpha:  ampl =  0.004289 (  0.0%)   [5 : 8]
   e-/hole pair  1 beta :  ampl =  0.972249 ( 94.5%)   [6 : 7]
   e-/hole pair  2 beta :  ampl =  0.030683 (  0.1%)   [5 : 8]
   Sum of square amplitudes: 0.95

 NATURAL OCCUPATION NUMBERS (higher than 1.0E-05)
            1           2           3           4           5           6
    1   2.0000000   2.0000000   2.0000000   2.0000000   2.0000000   2.0000000
            7           8           9          10          11          12
    1   2.0000000   2.0000000   2.0000000   2.0000000   2.0000000   2.0000000
           13          14          15          16          17          18
    1   2.0000000   2.0000000   2.0000000   2.0000000   2.0000000   2.0000000
           19          20          21          22          23          24
    1   2.0000000   2.0000000   2.0000000   2.0000000   2.0000000   2.0000000
           25          26          27          28          29          30
    1   2.0000000   2.0000000   2.0000000   2.0000000   2.0000000   2.0000000
           31          32          33          34          35          36
    1   2.0000000   2.0000000   2.0000000   2.0000000   2.0000000   2.0000000
           37          38          39          40          41          42
    1   2.0000000   2.0000000   2.0000000   2.0000000   2.0000000   2.0000000
           43          44          45          46          47          48
    1   2.0000000   1.9997479   1.9996922   1.9994974   1.9984534   1.9961145
           49          50          51          52          53          54
    1   1.9931873   1.0064211   0.0038372   0.0014095   0.0005424   0.0004948
           55          56          57          58          59
    1   0.0002709   0.0002140   0.0000520   0.0000181   0.0000111
Natural Orbitals stored in FCHK

  Amplitudes : 
  
 | HOLE  | ALPHA  | BETA   | PART  |    AMPLITUDE 
--------------------------------------------------
 |       | 111111 | 111011 |       |     7.1151190711431E-01
 |  40   | 111111 | 111111 |       |    -6.9276105893589E-01
--------------------------------------------------
*** Contributions RASCI wfn    Active:  50.64
                                 Hole:  48.00
                                 Part:   1.36

      Mulliken population analysis 
 ---------------------------------------------------
   Atom    Charge (a.u.)   Spin (a.u.)  
 ---------------------------------------------------
   1 Cu    0.698396        0.100083 
   2 Cl   -0.457412        0.450408 
   3 Cl   -0.891786       -0.000449 
   4 Cl   -0.891786       -0.000449 
   5 Cl   -0.457412        0.450408 
 ---------------------------------------------------
   Sum:   -2.000000        1.000000 
 ---------------------------------------------------
 
  
 NATURAL OCCUPATION NUMBERS (higher than 1.0E-05)
            1           2           3           4           5           6
    1   2.0000000   2.0000000   2.0000000   2.0000000   2.0000000   2.0000000
            7           8           9          10          11          12
    1   2.0000000   2.0000000   2.0000000   2.0000000   2.0000000   2.0000000
           13          14          15          16          17          18
    1   2.0000000   2.0000000   2.0000000   2.0000000   2.0000000   2.0000000
           19          20          21          22          23          24
    1   2.0000000   2.0000000   2.0000000   2.0000000   2.0000000   2.0000000
           25          26          27          28          29          30
    1   2.0000000   2.0000000   2.0000000   2.0000000   2.0000000   2.0000000
           31          32          33          34          35          36
    1   2.0000000   2.0000000   2.0000000   2.0000000   2.0000000   2.0000000
           37          38          39          40          41          42
    1   2.0000000   2.0000000   2.0000000   2.0000000   2.0000000   2.0000000
           43          44          45          46          47          48
    1   2.0000000   1.9997479   1.9996922   1.9994974   1.9984534   1.9961145
           49          50          51          52          53          54
    1   1.9931873   1.0064211   0.0038372   0.0014095   0.0005424   0.0004948
           55          56          57          58          59
    1   0.0002709   0.0002140   0.0000520   0.0000181   0.0000111
  
*** Unpaired Electrons
 Yamaguchi Nd:         1.04
 Head-Gordon Nu:       1.01
 Head-Gordon Nu_nl:    1.00
  
**************************************************
 RAS-CI total energy for state  12:  -3476.917087513455
  Excitation energy (eV) =  5.743969412749
  State symmetry: B1u   (D2h      )
  <S^2>      :  0.7500
  Dipole Moment:   -0.0000 X    -0.0000 Y     0.0000 Z
  Trans. Moment:    0.0000 X    -0.0000 Y    -0.0000 Z
  Strength   :  0.000000
  Natural transition orbitals ( 1 -> 12 ):
   e-/hole pair  1 alpha:  ampl =  0.004184 (  0.0%)   [6 : 7]
   e-/hole pair  2 alpha:  ampl =  0.002058 (  0.0%)   [5 : 8]
   e-/hole pair  1 beta :  ampl =  0.959089 ( 92.0%)   [6 : 7]
   e-/hole pair  2 beta :  ampl =  0.015683 (  0.0%)   [5 : 8]
   Sum of square amplitudes: 0.92

 NATURAL OCCUPATION NUMBERS (higher than 1.0E-05)
            1           2           3           4           5           6
    1   2.0000000   2.0000000   2.0000000   2.0000000   2.0000000   2.0000000
            7           8           9          10          11          12
    1   2.0000000   2.0000000   2.0000000   2.0000000   2.0000000   2.0000000
           13          14          15          16          17          18
    1   2.0000000   2.0000000   2.0000000   2.0000000   2.0000000   2.0000000
           19          20          21          22          23          24
    1   2.0000000   2.0000000   2.0000000   2.0000000   2.0000000   2.0000000
           25          26          27          28          29          30
    1   2.0000000   2.0000000   2.0000000   2.0000000   2.0000000   2.0000000
           31          32          33          34          35          36
    1   2.0000000   2.0000000   2.0000000   2.0000000   2.0000000   2.0000000
           37          38          39          40          41          42
    1   2.0000000   2.0000000   2.0000000   2.0000000   2.0000000   2.0000000
           43          44          45          46          47          48
    1   2.0000000   1.9998489   1.9998199   1.9997154   1.9986352   1.9986352
           49          50          51          52          53          54
    1   1.9979231   1.0027111   0.0010293   0.0010293   0.0001288   0.0001288
           55          56          57          58          59          60
    1   0.0000861   0.0000568   0.0000568   0.0000430   0.0000315   0.0000221
           61          62          63
    1   0.0000221   0.0000155   0.0000108
Natural Orbitals stored in FCHK

  Amplitudes : 
  
 | HOLE  | ALPHA  | BETA   | PART  |    AMPLITUDE 
--------------------------------------------------
 |  36   | 111111 | 111111 |       |     9.9864351729451E-01
--------------------------------------------------
*** Contributions RASCI wfn    Active:   0.00
                                 Hole:  99.73
                                 Part:   0.27

      Mulliken population analysis 
 ---------------------------------------------------
   Atom    Charge (a.u.)   Spin (a.u.)  
 ---------------------------------------------------
   1 Cu    0.669798        0.013656 
   2 Cl   -0.667450        0.246586 
   3 Cl   -0.667450        0.246586 
   4 Cl   -0.667450        0.246586 
   5 Cl   -0.667450        0.246586 
 ---------------------------------------------------
   Sum:   -2.000000        1.000000 
 ---------------------------------------------------
 
  
 NATURAL OCCUPATION NUMBERS (higher than 1.0E-05)
            1           2           3           4           5           6
    1   2.0000000   2.0000000   2.0000000   2.0000000   2.0000000   2.0000000
            7           8           9          10          11          12
    1   2.0000000   2.0000000   2.0000000   2.0000000   2.0000000   2.0000000
           13          14          15          16          17          18
    1   2.0000000   2.0000000   2.0000000   2.0000000   2.0000000   2.0000000
           19          20          21          22          23          24
    1   2.0000000   2.0000000   2.0000000   2.0000000   2.0000000   2.0000000
           25          26          27          28          29          30
    1   2.0000000   2.0000000   2.0000000   2.0000000   2.0000000   2.0000000
           31          32          33          34          35          36
    1   2.0000000   2.0000000   2.0000000   2.0000000   2.0000000   2.0000000
           37          38          39          40          41          42
    1   2.0000000   2.0000000   2.0000000   2.0000000   2.0000000   2.0000000
           43          44          45          46          47          48
[...]
   102   -1.138638635379e+00
   103    4.836942546819e-16
   104    1.078249594493e-14
   105   -5.989487835423e-02
   106    4.471205235521e-16
   107   -1.517991181756e-15
   108   -6.942465690083e-16
   109    1.478332793445e-14
   110   -2.096754141919e-01
   111    2.195833956456e-15
   112   -5.589776404777e-15
   113   -4.085601195020e-05
   114   -8.218554718801e-16
   115    4.187487552094e-16
   116   -5.546903011497e-04
   117   -3.929992125178e-16
   118   -2.019393114550e-16
   119   -1.731904215789e-16
   120   -5.365994485838e-16
   121   -1.954720436506e-16
   122    3.432353614580e-15
   123   -9.844514903246e-15
   124    1.864341863645e-15
   125   -1.303057911572e-15
   126    2.267718055143e-15
   127    9.549049332809e-02
   128   -3.840540320720e-16
   129    4.008206882494e-16
   130    9.159284979605e-03
   131    3.402948673707e-16
   132    1.074728546997e-19
   133    2.969104483880e-02
   134    9.743085156099e-15
   135   -1.828286185985e-14
   136   -8.295890520786e-01
   137   -1.279214147199e-14
   138    2.209751394106e-14
   139    1.138638635379e+00
   140    1.221970208414e-15
   141    1.087326281340e-14
   142   -5.989487835423e-02
   143    2.920485944715e-15
   144    1.362895977667e-15
   145    5.593612032281e-15
   146    1.210338381575e-14
   147   -2.096754141919e-01
   148    5.591659071730e-15
   149    5.811461403948e-15
   150    4.085601194748e-05
   151   -9.329514446973e-16
   152   -8.594365913722e-16
   153    5.546903011488e-04
   154    3.694761995417e-16
   155    2.513428991513e-16
   156    4.024102544219e-16
   157    1.693995103295e-16
   158    9.871843788795e-17
   159   -1.121561794423e-15
   160    2.881075909509e-15
   161    1.717860889351e-15
   162   -1.345223438747e-15
   163   -5.681389400691e-15
   164    2.382203329986e-14
   165   -4.088676853603e-16
   166   -1.294551427798e-15
   167    2.013522955082e-16
   168    6.892983429741e-16
   169    1.188741987912e-15
   170    1.524089179014e-14
   171    9.405813968276e-15
   172    4.247249335464e-14
   173   -2.296327830959e-13
   174   -9.073674693371e-15
   175   -4.920673126054e-14
   176    4.097647134124e-13
   177   -1.740907631687e-15
   178   -2.531283894379e-14
   179   -1.181211349072e-03
   180    6.845978173456e-16
   181   -5.131086453313e-17
   182   -5.906353629634e-15
   183   -6.998609006077e-14
   184   -3.120109484310e-02
   185    2.111554136159e-15
   186    4.375970799072e-15
   187   -2.797616059320e-16
   188    1.147986585391e-17
   189    3.886004476956e-16
   190   -1.220009763623e-15
   191   -1.215376360239e-03
   192    8.464945941321e-17
   193   -3.442714883941e-17
Sym=X
Ene= 1.032618
Spin=Alpha
Occup=0
     1    1.915920656603e-16
     2   -3.687960076667e-16
     3    1.553353482456e-15
     4   -1.219836483306e-15
     5   -1.171676826355e-14
     6    9.601684477769e-15
     7    3.861910091017e-02
     8    1.715380514427e-13
     9    6.516261141230e-15
    10   -1.057875967148e-01
    11   -4.780063347720e-13
    12   -1.601976177552e-14
    13   -3.953908829624e-02
    14   -1.112035908237e-13
    15   -2.579771533662e-14
    16    1.180616412237e-01
    17    7.902277318773e-13
    18    2.352180907170e-13
    19   -1.548314227078e-15
    20   -6.773992512317e-15
    21   -5.839728790460e-15
    22    5.130373242216e-15
    23    2.934553899431e-15
    24    2.527375453519e-16
    25   -3.254524875978e-15
    26   -1.376716245994e-15
    27    4.229572973799e-15
    28    3.869649346537e-14
    29   -2.859147273592e-15
    30    1.460773233292e-15
    31   -4.977354621895e-15
    32   -1.588641041783e-14
    33   -1.888681826878e-13
    34    1.524884319599e-15
    35    3.580586140945e-14
    36    3.910466318098e-14
    37    6.810975323928e-14
    38   -2.434053177370e-13
    39   -7.773084210775e-16
    40    1.822956286544e-03
    41    4.240291195678e-15
    42    8.432559055463e-16
    43    5.628768051451e-17
    44   -4.950557749421e-03
    45    1.580271715140e-14
    46   -1.586063047899e-02
    47   -9.183261559804e-03
    48    1.030551812372e-01
    49   -2.934548537057e-01
    50    1.621043179751e-01
    51   -8.619872326362e-02
    52    2.824993564767e-13
    53   -2.940669721399e-14
    54   -2.067443866467e-02
    55    8.172334950240e-14
    56   -4.795577173731e-15
    57    2.506017521392e-02
    58   -1.450111688856e-13
    59    1.634191431112e-15
    60    6.010813449229e-01
    61   -1.776848232446e-12
    62    2.240795275481e-13
    63   -5.922791905387e-01
    64    1.660005276145e-12
    65   -2.817751892362e-13
    66   -1.994034522907e-02
    67   -1.604098125688e-14
    68   -1.521539872610e-14
    69   -9.553830533663e-03
    70   -2.474440467673e-13
    71   -8.450126032036e-02
    72   -2.999644252243e-14
    73   -9.531186004489e-15
    74   -7.001711955425e-02
    75   -1.021099862384e-12
    76   -4.152059846934e-18
    77    6.181905516123e-05
    78   -2.635526161813e-15
    79    5.253888951194e-16
    80    2.015204498965e-15
    81    6.046536810842e-03
    82    1.667426566316e-14
    83   -7.969653544737e-14
    84   -4.611098345317e-14
    85    5.178353271225e-13
    86   -1.474458017311e-12
    87    8.242551910440e-13
    88    5.631418466171e-02
    89   -2.802385492319e-13
    90   -3.331709475368e-14
    91    1.675238066007e-02
    92   -7.860819175855e-14
    93   -5.680809513537e-15
    94   -3.142743829812e-02
    95    1.309585288545e-13
    96    3.147329979335e-15
    97   -3.457701187247e-01
    98    1.819673111159e-12
    99    2.519632423212e-13
   100    2.980872760167e-01
   101   -1.573217947522e-12
   102   -3.186296837802e-13
   103   -9.900990734214e-14
   104   -9.767829306423e-15
   105   -1.282958866741e-14
   106   -3.089033149493e-14
   107   -6.052368478613e-02
   108   -3.959054388578e-13
   109   -2.525230136465e-14
   110   -3.457183224513e-14
   111   -3.601561686364e-14
   112   -2.511294883080e-01
   113    2.765441603739e-15
   114   -1.156722174797e-03
   115    2.813674310981e-15
   116    7.273523388089e-16
   117    7.434509616901e-18
   118   -5.035646087451e-03
   119   -1.723975397026e-14
   120    8.019982406087e-14
   121    4.652848301998e-14
   122   -5.213801677678e-13
   123    1.481172577453e-12
   124   -7.783357334650e-13
   125    5.631418466151e-02
   126   -2.847816354617e-13
   127   -4.374127154581e-14
   128    1.675238066003e-02
   129   -7.957823721546e-14
   130   -9.699138710125e-15
   131   -3.142743829809e-02
   132    1.298972702765e-13
   133    1.204610386581e-14
   134   -3.457701187232e-01
   135    1.850016098417e-12
   136    3.114419843618e-13
   137    2.980872760151e-01
   138   -1.604966176160e-12
   139   -3.557294793243e-13
   140    9.298705628713e-14
   141   -1.518971246656e-14
   142    2.650296881022e-15
   143    3.113775840235e-14
   144    6.052368478617e-02
   145    3.806630044948e-13
   146    2.494196936371e-14
   147    3.071622536439e-14
   148    4.495361848183e-14
   149    2.511294883081e-01
   150   -2.055488968735e-15
   151   -1.156722174793e-03
   152    3.192175348984e-15
   153   -6.730619717064e-15
   154   -9.516807379751e-16
   155   -5.035646087451e-03
   156   -1.629927748588e-14
   157    1.586063047899e-02
   158    9.183261559804e-03
   159   -1.030551812372e-01
   160    2.934548537057e-01
   161   -1.621043179752e-01
   162   -8.619872326361e-02
   163    9.484664786753e-14
   164   -3.086673947884e-14
   165   -2.067443866467e-02
   166    4.306374195965e-14
   167   -2.805450523858e-15
   168    2.506017521392e-02
   169   -1.143904939897e-13
   170   -1.177864604756e-14
   171    6.010813449228e-01
   172   -4.301830753778e-13
   173    2.594448896164e-13
   174   -5.922791905386e-01
   175    1.754948068964e-13
   176   -2.772927621017e-13
   177    1.994034522908e-02
   178   -3.052809378469e-15
   179    3.091034597737e-15
   180    9.553830533655e-03
   181    2.257778519377e-13
   182    8.450126032038e-02
   183    1.276013406525e-14
   184    7.844575171178e-15
   185    7.001711955423e-02
   186    1.016301175540e-12
   187    1.043705027315e-15
   188    6.181905516143e-05
   189   -6.020421086713e-15
   190    7.272856270405e-16
   191   -3.738483520728e-16
   192    6.046536810843e-03
   193    2.656668510240e-14
Sym=X
Ene= 1.032618
Spin=Alpha
Occup=0
     1   -2.483188525490e-15
     2    6.141166202036e-15
     3   -2.247566455536e-14
     4   -1.951479777660e-15
     5   -1.771651873576e-13
     6    6.659120712025e-14
     7   -1.481134850725e-13
     8    3.861910093901e-02
     9    2.201600026927e-16
    10    4.057155103558e-13
    11   -1.057875967941e-01
    12   -4.251842565189e-16
    13    1.537635107804e-13
    14   -3.953908833133e-02
    15   -7.416180071991e-16
    16   -5.707006996009e-13
    17    1.180616419140e-01
    18    3.802658076572e-15
    19   -1.391921649826e-14
    20    7.843396194931e-16
    21   -5.989930073833e-16
    22   -5.865992682457e-14
    23    1.968254997388e-15
    24   -1.955778815179e-14
    25    5.147858163097e-16
    26   -7.443352963543e-16
    27   -5.971657968789e-14
    28    4.301448691252e-15
    29    7.583027698606e-14
    30   -8.179165203743e-16
    31    1.682245213136e-15
    32    2.378785052629e-13
    33   -1.586308159371e-14
    34   -1.132458209846e-13
    35   -5.634659450541e-15
    36    5.434402855523e-15
    37   -8.360735029236e-13
    38   -1.932218683904e-14
    39   -2.025143184298e-15
    40   -6.215523789623e-15
    41    1.822956286148e-03
    42    1.936433347022e-15
    43    1.595318483646e-16
    44    1.798839397278e-14
    45    4.950557746262e-03
    46    4.366854494729e-14
    47    2.599638936557e-14
    48   -2.825114100321e-13
    49    7.626808365805e-13
    50   -5.544985801162e-14
    51    3.208681152925e-13
    52    5.631418474323e-02
    53    2.089835464840e-15
    54    7.137290417256e-14
    55    1.675238067394e-02
    56    4.428736285599e-16
    57   -7.046594810479e-14
    58   -3.142743829610e-02
    59   -1.714924446180e-16
    60   -2.319750227670e-12
    61   -3.457701193316e-01
    62   -1.655768983735e-14
    63    2.269993821152e-12
    64    2.980872766331e-01
    65    2.154776617724e-14
    66    1.505086722293e-14
    67    3.611287957917e-17
    68   -6.597632829203e-16
    69    1.413425901347e-14
    70   -6.052368471617e-02
    71    1.573140211060e-13
    72    2.004060578140e-15
    73   -3.698823701302e-15
    74    1.434327541271e-13
    75   -2.511294880321e-01
    76   -5.377351772042e-17
    77   -8.451676674303e-15
    78   -1.156722176809e-03
    79   -8.013613672090e-17
    80   -1.273341458441e-16
    81   -2.077903652454e-14
    82    5.035646091847e-03
    83   -1.586063050033e-02
    84   -9.183261576329e-03
    85    1.030551813743e-01
    86   -2.934548540255e-01
    87    1.621043179412e-01
    88   -1.657217379656e-13
    89   -8.619872323178e-02
    90   -2.541675124559e-15
    91   -5.107726206674e-14
    92   -2.067443866731e-02
    93   -1.132467190507e-16
    94    1.006862939231e-13
    95    2.506017525203e-02
    96   -9.930840710531e-16
    97    9.794324794642e-13
    98    6.010813445661e-01
    99    2.171498113378e-14
   100   -7.495304044480e-13
   101   -5.922791898157e-01
   102   -2.776814279413e-14
   103   -1.994034528630e-02
   104    5.778212671439e-16
   105   -1.587285514451e-15
   106    9.553830504158e-03
   107    2.209514476175e-13
   108   -8.450126042505e-02
   109    1.306562603197e-15
   110   -6.602795981986e-15
   111    7.001711957877e-02
   112    8.892570556999e-13
   113    4.785311237184e-17
   114   -1.157272033366e-14
   115    6.181904993432e-05
   116    1.779625433770e-16
   117   -1.822282991753e-16
   118    1.932985920206e-14
   119   -6.046536810103e-03
   120    1.586063050032e-02
   121    9.183261576325e-03
   122   -1.030551813742e-01
   123    2.934548540253e-01
   124   -1.621043179418e-01
   125   -1.885067130843e-13
   126   -8.619872323170e-02
   127   -3.526340578580e-16
   128   -5.440145687227e-14
   129   -2.067443866730e-02
   130   -1.541749850941e-17
   131    9.792499045003e-14
   132    2.506017525204e-02
   133   -3.098835714767e-17
   134    1.169600885499e-12
   135    6.010813445653e-01
   136    1.612585125146e-15
   137   -9.897804389881e-13
   138   -5.922791898148e-01
   139   -5.101034935259e-16
   140    1.994034528640e-02
   141   -4.184120491943e-18
   142   -8.374090591850e-16
   143   -9.553830504089e-03
   144   -2.116258058305e-13
   145    8.450126042525e-02
   146   -2.372841565008e-15
   147   -1.057131615657e-15
   148   -7.001711957867e-02
   149   -8.555475585131e-13
   150   -7.970227821400e-18
   151   -1.171980661967e-14
   152    6.181904990770e-05
   153   -1.381468344591e-16
   154   -1.038733726263e-16
   155    1.918563639043e-14
   156   -6.046536810102e-03
   157   -4.717085190859e-14
   158   -2.758488396329e-14
   159    3.060851479643e-13
   160   -8.706760547295e-13
   161    7.065424898008e-13
   162    3.065580246271e-13
   163    5.631418474322e-02
   164   -7.582338795005e-17
   165    7.549387188722e-14
   166    1.675238067393e-02
   167    1.236443747270e-16
   168   -9.846889588167e-14
   169   -3.142743829608e-02
   170   -9.226756543340e-17
   171   -2.088610683019e-12
   172   -3.457701193316e-01
   173    2.781577408770e-16
   174    2.032245152241e-12
   175    2.980872766331e-01
   176   -2.522016650545e-15
   177   -1.281978143946e-13
   178   -2.945074100745e-16
   179    2.243474441356e-16
   180    7.236195266063e-15
   181    6.052368471616e-02
   182   -4.819656072324e-13
   183   -4.651917461380e-16
   184    3.207412085939e-16
   185   -1.402006716783e-13
   186    2.511294880321e-01
   187    6.407927307978e-16
   188    3.432577124542e-15
   189   -1.156722176809e-03
   190    1.099183300372e-16
   191   -5.344279926084e-16
   192   -2.555998580823e-14
   193    5.035646091848e-03
Sym=X
Ene= 1.039757
Spin=Alpha
Occup=0
     1   -4.492228984791e-16
     2    1.079443766669e-15
     3   -3.339787254150e-15
     4   -1.462247491084e-15
     5   -1.822474728225e-14
     6    7.382530901538e-15
     7    1.513783658644e-15
     8    7.660563931955e-16
     9    2.775441547632e-11
    10   -4.237840837380e-15
    11   -2.290783905506e-15
    12   -7.200993521220e-11
    13   -1.112539025486e-15
    14    2.027781849585e-16
    15   -7.443535093228e-11
    16   -7.560940383755e-16
    17    1.519332753517e-15
    18    7.928197084837e-10
    19   -2.018188057438e-15
    20    4.380744423891e-15
    21   -1.804349346459e-14
    22    1.900840434221e-15
    23   -4.683457540954e-16
    24   -2.614107311678e-15
    25    5.465560998405e-15
    26   -1.885675183354e-14
    27    2.021474824682e-15
    28    8.781711468073e-17
    29    9.702944813732e-15
    30   -1.421859940442e-14
    31    4.407603235080e-14
    32   -7.734889457861e-15
    33   -2.562638231390e-15
    34   -1.672098677460e-14
    35   -1.968156980525e-14
    36    9.245562477189e-14
    37    2.307403108901e-14
    38   -8.682579955880e-16
    39    4.712408562204e-13
    40    7.376094128457e-17
    41    1.697647676839e-18
    42    8.529625528188e-04
    43   -1.243622199244e-16
    44   -1.627006239006e-16
    45    2.740033175157e-17
    46   -1.082481364041e-15
    47   -6.400764381835e-16
    48    6.888553170459e-15
    49   -2.056116433093e-14
    50    3.126686503242e-15
    51   -7.361259345812e-15
    52    5.908319090730e-15
    53   -7.336634406328e-02
    54   -1.675297918136e-15
    55    5.938571800602e-16
    56   -8.980316303637e-03
    57    2.098195187549e-15
    58    1.785242528593e-15
    59   -1.381055592330e-02
    60    5.328082043292e-14
    61   -5.067300436569e-14
    62    6.084970799198e-01
    63   -6.069876605415e-14
    64    6.170372179091e-14
    65   -7.219266361659e-01
    66    7.486872520083e-16
    67   -2.828577052019e-02
    68    8.628720068263e-15
    69   -2.591398906133e-15
    70    1.705417202605e-15
    71   -9.849061285560e-16
    72   -1.504808000091e-01
    73    4.791450678356e-14
    74   -5.716001565343e-15
    75    5.650276173340e-15
    76   -2.830184854597e-03
    77    4.725290605743e-16
    78   -1.390572046070e-16
    79    5.480678801809e-04
    80    4.928150062393e-16
    81    1.070174086115e-16
    82   -3.061495016862e-18
    83   -6.875068616517e-16
    84   -3.038019780526e-16
    85    4.350758802040e-15
    86   -1.278321075750e-14
    87    1.308166948213e-14
    88    5.500469441517e-16
    89   -3.131508936310e-15
    90    7.336634385132e-02
    91    1.095729320220e-15
    92   -1.050701857609e-15
    93    8.980316278024e-03
    94   -3.816607596318e-15
    95    2.071222690911e-15
    96    1.381055588088e-02
    97    7.462797047962e-15
    98    1.778900768398e-14
    99   -6.084970781893e-01
   100   -2.193328979194e-14
   101   -1.787397043952e-14
   102    7.219266341326e-01
   103   -3.125061531503e-15
   104   -4.478912805699e-15
   105    2.828577046782e-02
   106    5.418952039416e-16
   107   -6.195872285072e-15
   108   -1.239686641099e-14
   109   -2.310420232226e-14
   110    1.504807998696e-01
   111    3.261203688894e-15
   112   -2.151201733395e-14
   113    2.830184852796e-03
   114    3.611022466434e-16
   115   -3.647403690447e-16
   116    5.480678660439e-04
   117    3.387149851411e-16
   118    1.683233364496e-16
   119   -7.865630940796e-17
   120   -1.096454453957e-16
   121   -9.626243642645e-17
   122    7.619677760815e-16
   123   -2.350745662680e-15
   124    6.034322350185e-15
   125    4.936904989078e-15
   126    1.257901888103e-16
   127    7.336634385137e-02
   128    3.954822667214e-16
   129    6.133876898086e-17
   130    8.980316278031e-03
   131    1.324535663852e-15
   132   -3.529159174447e-16
   133    1.381055588089e-02
   134   -4.173005189392e-14
   135    3.714618022590e-16
   136   -6.084970781896e-01
   137    5.267565106281e-14
   138    1.025225887757e-15
   139    7.219266341331e-01
   140   -1.573920863813e-15
   141    5.102788650652e-15
   142   -2.828577046786e-02
   143    3.975219963623e-16
   144   -1.154644192175e-15
   145   -2.968162077483e-15
   146    2.981879320295e-14
   147   -1.504807998698e-01
   148    1.045772354108e-16
   149   -2.051097519842e-15
   150    2.830184852795e-03
   151    2.676570305414e-16
   152    4.527863633220e-16
   153    5.480678660430e-04
   154    2.632856615294e-16
   155   -6.986604349573e-16
   156    5.518505388252e-17
   157   -5.416983106710e-18
   158    6.514336161633e-17
   159    1.330077311877e-16
   160   -3.668835791408e-16
   161   -1.020612644229e-14
   162   -7.042868412826e-16
   163   -4.730312338633e-15
   164   -7.336634406329e-02
   165   -4.710860801297e-16
   166   -2.176837487214e-16
   167   -8.980316303639e-03
   168    1.259318349082e-15
   169   -2.356253165936e-15
   170   -1.381055592330e-02
   171    9.831296426753e-16
   172    4.340100223322e-14
   173    6.084970799199e-01
   174    1.663445934260e-15
   175   -5.681340779226e-14
   176   -7.219266361661e-01
   177    2.034361355452e-15
   178    2.828577052020e-02
   179   -8.528066546461e-15
   180   -2.044498048374e-15
   181    3.280298879145e-15
   182    4.448647519711e-15
   183    1.504808000091e-01
   184   -5.865731947415e-14
   185   -2.599140067657e-15
   186    1.570290187465e-14
   187   -2.830184854598e-03
   188   -3.592884818103e-16
   189   -7.183022249536e-17
   190    5.480678801804e-04
   191   -6.753665417049e-18
   192    4.830625499211e-16
   193   -5.524542330037e-16
[5D7F]

======= END OF MOLDEN-FORMATTED INPUT FILE =======


        *************************************************************
        *                                                           *
        *  Thank you very much for using Q-Chem.  Have a nice day.  *
        *                                                           *
        *************************************************************


