
                                 *****************
                                 * O   R   C   A *
                                 *****************

                                            #,                                       
                                            ###                                      
                                            ####                                     
                                            #####                                    
                                            ######                                   
                                           ########,                                 
                                     ,,################,,,,,                         
                               ,,#################################,,                 
                          ,,##########################################,,             
                       ,#########################################, ''#####,          
                    ,#############################################,,   '####,        
                  ,##################################################,,,,####,       
                ,###########''''           ''''###############################       
              ,#####''   ,,,,##########,,,,          '''####'''          '####       
            ,##' ,,,,###########################,,,                        '##       
           ' ,,###''''                  '''############,,,                           
         ,,##''                                '''############,,,,        ,,,,,,###''
      ,#''                                            '''#######################'''  
     '                                                          ''''####''''         
             ,#######,   #######,   ,#######,      ##                                
            ,#'     '#,  ##    ##  ,#'     '#,    #''#        ######   ,####,        
            ##       ##  ##   ,#'  ##            #'  '#       #        #'  '#        
            ##       ##  #######   ##           ,######,      #####,   #    #        
            '#,     ,#'  ##    ##  '#,     ,#' ,#      #,         ##   #,  ,#        
             '#######'   ##     ##  '#######'  #'      '#     #####' # '####'        



                  #######################################################
                  #                        -***-                        #
                  #          Department of theory and spectroscopy      #
                  #    Directorship and core code : Frank Neese         #
                  #        Max Planck Institute fuer Kohlenforschung    #
                  #                Kaiser Wilhelm Platz 1               #
                  #                 D-45470 Muelheim/Ruhr               #
                  #                      Germany                        #
                  #                                                     #
                  #                  All rights reserved                #
                  #                        -***-                        #
                  #######################################################


                         Program Version 5.0.3 -  RELEASE  -


 With contributions from (in alphabetic order):
   Daniel Aravena         : Magnetic Suceptibility
   Michael Atanasov       : Ab Initio Ligand Field Theory (pilot matlab implementation)
   Alexander A. Auer      : GIAO ZORA, VPT2 properties, NMR spectrum
   Ute Becker             : Parallelization
   Giovanni Bistoni       : ED, misc. LED, open-shell LED, HFLD
   Martin Brehm           : Molecular dynamics
   Dmytro Bykov           : SCF Hessian
   Vijay G. Chilkuri      : MRCI spin determinant printing, contributions to CSF-ICE
   Dipayan Datta          : RHF DLPNO-CCSD density
   Achintya Kumar Dutta   : EOM-CC, STEOM-CC
   Dmitry Ganyushin       : Spin-Orbit,Spin-Spin,Magnetic field MRCI
   Miquel Garcia          : C-PCM and meta-GGA Hessian, CC/C-PCM, Gaussian charge scheme
   Yang Guo               : DLPNO-NEVPT2, F12-NEVPT2, CIM, IAO-localization
   Andreas Hansen         : Spin unrestricted coupled pair/coupled cluster methods
   Benjamin Helmich-Paris : MC-RPA, TRAH-SCF, COSX integrals
   Lee Huntington         : MR-EOM, pCC
   Robert Izsak           : Overlap fitted RIJCOSX, COSX-SCS-MP3, EOM
   Marcus Kettner         : VPT2
   Christian Kollmar      : KDIIS, OOCD, Brueckner-CCSD(T), CCSD density, CASPT2, CASPT2-K
   Simone Kossmann        : Meta GGA functionals, TD-DFT gradient, OOMP2, MP2 Hessian
   Martin Krupicka        : Initial AUTO-CI
   Lucas Lang             : DCDCAS
   Marvin Lechner         : AUTO-CI (C++ implementation), FIC-MRCC
   Dagmar Lenk            : GEPOL surface, SMD
   Dimitrios Liakos       : Extrapolation schemes; Compound Job, initial MDCI parallelization
   Dimitrios Manganas     : Further ROCIS development; embedding schemes
   Dimitrios Pantazis     : SARC Basis sets
   Anastasios Papadopoulos: AUTO-CI, single reference methods and gradients
   Taras Petrenko         : DFT Hessian,TD-DFT gradient, ASA, ECA, R-Raman, ABS, FL, XAS/XES, NRVS
   Peter Pinski           : DLPNO-MP2, DLPNO-MP2 Gradient
   Christoph Reimann      : Effective Core Potentials
   Marius Retegan         : Local ZFS, SOC
   Christoph Riplinger    : Optimizer, TS searches, QM/MM, DLPNO-CCSD(T), (RO)-DLPNO pert. Triples
   Tobias Risthaus        : Range-separated hybrids, TD-DFT gradient, RPA, STAB
   Michael Roemelt        : Original ROCIS implementation
   Masaaki Saitow         : Open-shell DLPNO-CCSD energy and density
   Barbara Sandhoefer     : DKH picture change effects
   Avijit Sen             : IP-ROCIS
   Kantharuban Sivalingam : CASSCF convergence, NEVPT2, FIC-MRCI
   Bernardo de Souza      : ESD, SOC TD-DFT
   Georgi Stoychev        : AutoAux, RI-MP2 NMR, DLPNO-MP2 response
   Willem Van den Heuvel  : Paramagnetic NMR
   Boris Wezisla          : Elementary symmetry handling
   Frank Wennmohs         : Technical directorship


 We gratefully acknowledge several colleagues who have allowed us to
 interface, adapt or use parts of their codes:
   Stefan Grimme, W. Hujo, H. Kruse, P. Pracht,  : VdW corrections, initial TS optimization,
                  C. Bannwarth, S. Ehlert          DFT functionals, gCP, sTDA/sTD-DF
   Ed Valeev, F. Pavosevic, A. Kumar             : LibInt (2-el integral package), F12 methods
   Garnet Chan, S. Sharma, J. Yang, R. Olivares  : DMRG
   Ulf Ekstrom                                   : XCFun DFT Library
   Mihaly Kallay                                 : mrcc  (arbitrary order and MRCC methods)
   Jiri Pittner, Ondrej Demel                    : Mk-CCSD
   Frank Weinhold                                : gennbo (NPA and NBO analysis)
   Christopher J. Cramer and Donald G. Truhlar   : smd solvation model
   Lars Goerigk                                  : TD-DFT with DH, B97 family of functionals
   V. Asgeirsson, H. Jonsson                     : NEB implementation
   FAccTs GmbH                                   : IRC, NEB, NEB-TS, DLPNO-Multilevel, CI-OPT
                                                   MM, QMMM, 2- and 3-layer-ONIOM, Crystal-QMMM,
                                                   LR-CPCM, SF, NACMEs, symmetry and pop. for TD-DFT,
                                                   nearIR, NL-DFT gradient (VV10), updates on ESD,
                                                   ML-optimized integration grids
   S Lehtola, MJT Oliveira, MAL Marques          : LibXC Library
   Liviu Ungur et al                             : ANISO software


 Your calculation uses the libint2 library for the computation of 2-el integrals
 For citations please refer to: http://libint.valeyev.net

 Your ORCA version has been built with support for libXC version: 5.1.0
 For citations please refer to: https://tddft.org/programs/libxc/

 This ORCA versions uses:
   CBLAS   interface :  Fast vector & matrix operations
   LAPACKE interface :  Fast linear algebra routines
   SCALAPACK package :  Parallel linear algebra routines
   Shared memory     :  Shared parallel matrices
   BLAS/LAPACK       :  OpenBLAS 0.3.15  USE64BITINT DYNAMIC_ARCH NO_AFFINITY Haswell SINGLE_THREADED
        Core in use  :  Haswell
   Copyright (c) 2011-2014, The OpenBLAS Project




***************************************
The coordinates will be read from file: anthracene_opt.xyz
***************************************


================================================================================

----- Orbital basis set information -----
Your calculation utilizes the basis: def2-TZVP
   F. Weigend and R. Ahlrichs, Phys. Chem. Chem. Phys. 7, 3297 (2005).

----- AuxJ basis set information -----
Your calculation utilizes the auxiliary basis: def2/J
   F. Weigend, Phys. Chem. Chem. Phys. 8, 1057 (2006).

================================================================================
                                        WARNINGS
                       Please study these warnings very carefully!
================================================================================


WARNING: your system is open-shell and RHF/RKS was chosen
  ===> : WILL SWITCH to UHF/UKS


INFO   : the flag for use of the SHARK integral package has been found!

================================================================================
                                       INPUT FILE
================================================================================
NAME = anthracene_opt_orca_dft.inp
|  1> # List of keywords
|  2> !B3LYP def2-TZVP SOMF(1X) SMALLPRINT #DKH
|  3> 
|  4> %METHOD 			# DFT input block
|  5> END	
|  6> 
|  7> %SCF                            # Control of the SCF procedure
|  8>  maxiter 500                    # max. number of SCF iterations
|  9>  TolE 1e-8                      # energy change between two cycles
| 10>  TolErr 5e-7                    # DIIS error convergence
| 11>  ConvForced 1                   # 0: converg. not mandatory; 1: break if not meet convergence
| 12> END
| 13> 
| 14> %EPRNMR 			# Control of EPR and NMR calculations
| 15>  gtensor 1			# Calculate the g-tensor 
| 16>  maxiter 300			# max. number of iterations
| 17>  Tol 1e-8			# g-tensor convergence
| 18>  ori CenterOfElCharge		# origin for magnetic properties
| 19>  printlevel 2			# detailed information
| 20> END
| 21> 
| 22> * XYZFILE 0 3 anthracene_opt.xyz 		# Coordinates
| 23> 
| 24> 
| 25>                          ****END OF INPUT****
================================================================================

                       ****************************
                       * Single Point Calculation *
                       ****************************

---------------------------------
CARTESIAN COORDINATES (ANGSTROEM)
---------------------------------
  C      1.252870   -0.714462    0.000061
  C      2.466119   -1.387393    0.000089
  H      2.467032   -2.471268   -0.000306
  C      3.684101   -0.687664    0.000002
  H      4.617256   -1.235125   -0.000064
  C      3.684101    0.687665    0.000135
  H      4.617256    1.235126    0.000149
  C      2.466118    1.387393    0.000040
  H      2.467031    2.471269    0.000343
  C      1.252870    0.714462   -0.000085
  C      0.000001   -1.402307   -0.000184
  H      0.000001   -2.485708   -0.000457
  C     -0.000001    1.402307   -0.000184
  H     -0.000001    2.485708   -0.000459
  C     -1.252870    0.714462    0.000059
  C     -2.466119    1.387393    0.000088
  H     -2.467031    2.471268   -0.000309
  C     -3.684101    0.687664    0.000002
  H     -4.617256    1.235125   -0.000060
  C     -3.684101   -0.687665    0.000137
  H     -4.617256   -1.235126    0.000155
  C     -2.466118   -1.387393    0.000038
  H     -2.467031   -2.471269    0.000341
  C     -1.252870   -0.714461   -0.000087

----------------------------
CARTESIAN COORDINATES (A.U.)
----------------------------
  NO LB      ZA    FRAG     MASS         X           Y           Z
   0 C     6.0000    0    12.011    2.367580   -1.350137    0.000116
   1 C     6.0000    0    12.011    4.660289   -2.621793    0.000168
   2 H     1.0000    0     1.008    4.662014   -4.670021   -0.000578
   3 C     6.0000    0    12.011    6.961941   -1.299497    0.000003
   4 H     1.0000    0     1.008    8.725349   -2.334049   -0.000120
   5 C     6.0000    0    12.011    6.961941    1.299498    0.000256
   6 H     1.0000    0     1.008    8.725349    2.334050    0.000282
   7 C     6.0000    0    12.011    4.660288    2.621793    0.000075
   8 H     1.0000    0     1.008    4.662013    4.670021    0.000649
   9 C     6.0000    0    12.011    2.367580    1.350137   -0.000160
  10 C     6.0000    0    12.011    0.000001   -2.649977   -0.000347
  11 H     1.0000    0     1.008    0.000001   -4.697308   -0.000864
  12 C     6.0000    0    12.011   -0.000001    2.649977   -0.000347
  13 H     1.0000    0     1.008   -0.000001    4.697308   -0.000867
  14 C     6.0000    0    12.011   -2.367580    1.350137    0.000112
  15 C     6.0000    0    12.011   -4.660289    2.621793    0.000166
  16 H     1.0000    0     1.008   -4.662014    4.670021   -0.000583
  17 C     6.0000    0    12.011   -6.961941    1.299497    0.000005
  18 H     1.0000    0     1.008   -8.725349    2.334049   -0.000113
  19 C     6.0000    0    12.011   -6.961941   -1.299498    0.000259
  20 H     1.0000    0     1.008   -8.725349   -2.334050    0.000292
  21 C     6.0000    0    12.011   -4.660288   -2.621793    0.000071
  22 H     1.0000    0     1.008   -4.662013   -4.670021    0.000643
  23 C     6.0000    0    12.011   -2.367580   -1.350137   -0.000165

--------------------------------
INTERNAL COORDINATES (ANGSTROEM)
--------------------------------
 C      0   0   0     0.000000000000     0.00000000     0.00000000
 C      1   0   0     1.387375000033     0.00000000     0.00000000
 H      2   1   0     1.083875999970   119.06331300     0.00000000
 C      2   1   3     1.404670999919   121.10767000   179.97064699
 H      4   2   1     1.081893000033   119.72353300   180.00541800
 C      4   2   1     1.375329000017   119.87728400     0.00000000
 H      6   4   2     1.081893000013   120.39918700   179.99512100
 C      6   4   2     1.404671000033   119.87728600     0.00000000
 H      8   6   4     1.083875999924   119.82903600   179.98793900
 C      8   6   4     1.387375000016   121.10766600     0.00000000
 C      1   2   3     1.429269999992   122.21744900     0.00000000
 H     11   1   2     1.083400999958   118.76750601     0.00000000
 C     10   8   6     1.429270999967   122.21744900   180.00000000
 H     13  10   8     1.083401000027   118.76750500     0.00000000
 C     13  10   8     1.429269999988   122.46498800   180.01764700
 C     15  13  10     1.387375000040   122.21744900   179.99384700
 H     16  15  13     1.083876000045   119.06329300     0.00000000
 C     16  15  13     1.404670999941   121.10766700   179.98444800
 H     18  16  15     1.081892999995   119.72351500   180.00528101
 C     18  16  15     1.375328999989   119.87729000     0.00000000
 H     20  18  16     1.081893000052   120.39917900   179.99497500
 C     20  18  16     1.404671000027   119.87728000     0.00000000
 H     22  20  18     1.083875999963   119.82901200   179.98801200
 C     22  20  18     1.387374999957   121.10767000     0.00000000

---------------------------
INTERNAL COORDINATES (A.U.)
---------------------------
 C      0   0   0     0.000000000000     0.00000000     0.00000000
 C      1   0   0     2.621758795111     0.00000000     0.00000000
 H      2   1   0     2.048228803073   119.06331300     0.00000000
 C      2   1   3     2.654443498108   121.10767000   179.97064699
 H      4   2   1     2.044481476269   119.72353300   180.00541800
 C      4   2   1     2.598995154073   119.87728400     0.00000000
 H      6   4   2     2.044481476230   120.39918700   179.99512100
 C      6   4   2     2.654443498323   119.87728600     0.00000000
 H      8   6   4     2.048228802987   119.82903600   179.98793900
 C      8   6   4     2.621758795079   121.10766600     0.00000000
 C      1   2   3     2.700928871414   122.21744900     0.00000000
 H     11   1   2     2.047331183137   118.76750601     0.00000000
 C     10   8   6     2.700930761093   122.21744900   180.00000000
 H     13  10   8     2.047331183267   118.76750500     0.00000000
 C     13  10   8     2.700928871408   122.46498800   180.01764700
 C     15  13  10     2.621758795124   122.21744900   179.99384700
 H     16  15  13     2.048228803215   119.06329300     0.00000000
 C     16  15  13     2.654443498150   121.10766700   179.98444800
 H     18  16  15     2.044481476197   119.72351500   180.00528101
 C     18  16  15     2.598995154019   119.87729000     0.00000000
 H     20  18  16     2.044481476304   120.39917900   179.99497500
 C     20  18  16     2.654443498313   119.87728000     0.00000000
 H     22  20  18     2.048228803060   119.82901200   179.98801200
 C     22  20  18     2.621758794968   121.10767000     0.00000000

---------------------
BASIS SET INFORMATION
---------------------
There are 2 groups of distinct atoms

 Group   1 Type C   : 11s6p2d1f contracted to 5s3p2d1f pattern {62111/411/11/1}
 Group   2 Type H   : 5s1p contracted to 3s1p pattern {311/1}

Atom   0C    basis set group =>   1
Atom   1C    basis set group =>   1
Atom   2H    basis set group =>   2
Atom   3C    basis set group =>   1
Atom   4H    basis set group =>   2
Atom   5C    basis set group =>   1
Atom   6H    basis set group =>   2
Atom   7C    basis set group =>   1
Atom   8H    basis set group =>   2
Atom   9C    basis set group =>   1
Atom  10C    basis set group =>   1
Atom  11H    basis set group =>   2
Atom  12C    basis set group =>   1
Atom  13H    basis set group =>   2
Atom  14C    basis set group =>   1
Atom  15C    basis set group =>   1
Atom  16H    basis set group =>   2
Atom  17C    basis set group =>   1
Atom  18H    basis set group =>   2
Atom  19C    basis set group =>   1
Atom  20H    basis set group =>   2
Atom  21C    basis set group =>   1
Atom  22H    basis set group =>   2
Atom  23C    basis set group =>   1
---------------------------------
AUXILIARY/J BASIS SET INFORMATION
---------------------------------
There are 2 groups of distinct atoms

 Group   1 Type C   : 12s5p4d2f1g contracted to 6s4p3d1f1g pattern {711111/2111/211/2/1}
 Group   2 Type H   : 5s2p1d contracted to 3s1p1d pattern {311/2/1}

Atom   0C    basis set group =>   1
Atom   1C    basis set group =>   1
Atom   2H    basis set group =>   2
Atom   3C    basis set group =>   1
Atom   4H    basis set group =>   2
Atom   5C    basis set group =>   1
Atom   6H    basis set group =>   2
Atom   7C    basis set group =>   1
Atom   8H    basis set group =>   2
Atom   9C    basis set group =>   1
Atom  10C    basis set group =>   1
Atom  11H    basis set group =>   2
Atom  12C    basis set group =>   1
Atom  13H    basis set group =>   2
Atom  14C    basis set group =>   1
Atom  15C    basis set group =>   1
Atom  16H    basis set group =>   2
Atom  17C    basis set group =>   1
Atom  18H    basis set group =>   2
Atom  19C    basis set group =>   1
Atom  20H    basis set group =>   2
Atom  21C    basis set group =>   1
Atom  22H    basis set group =>   2
Atom  23C    basis set group =>   1
------------------------------------------------------------------------------
                           ORCA GTO INTEGRAL CALCULATION
                           -- RI-GTO INTEGRALS CHOSEN --
------------------------------------------------------------------------------
------------------------------------------------------------------------------
                   ___                                                        
                  /   \      - P O W E R E D   B Y -                         
                 /     \                                                     
                 |  |  |   _    _      __       _____    __    __             
                 |  |  |  | |  | |    /  \     |  _  \  |  |  /  |          
                  \  \/   | |  | |   /    \    | | | |  |  | /  /          
                 / \  \   | |__| |  /  /\  \   | |_| |  |  |/  /          
                |  |  |   |  __  | /  /__\  \  |    /   |      \           
                |  |  |   | |  | | |   __   |  |    \   |  |\   \          
                \     /   | |  | | |  |  |  |  | |\  \  |  | \   \       
                 \___/    |_|  |_| |__|  |__|  |_| \__\ |__|  \__/        
                                                                              
                      - O R C A' S   B I G   F R I E N D -                    
                                      &                                       
                       - I N T E G R A L  F E E D E R -                       
                                                                              
 v1 FN, 2020, v2 2021                                                         
------------------------------------------------------------------------------


Reading SHARK input file anthracene_opt_orca_dft.SHARKINP.tmp ... ok
----------------------
SHARK INTEGRAL PACKAGE
----------------------

Number of atoms                             ...     24
Number of basis functions                   ...    494
Number of shells                            ...    194
Maximum angular momentum                    ...      3
Integral batch strategy                     ... SHARK/LIBINT Hybrid
RI-J (if used) integral strategy            ... SPLIT-RIJ (Revised 2003 algorithm where possible)
Printlevel                                  ...      1
Contraction scheme used                     ... SEGMENTED contraction
Coulomb Range Separation                    ... NOT USED
Exchange Range Separation                   ... NOT USED
Finite Nucleus Model                        ... NOT USED
Auxiliary Coulomb fitting basis             ... AVAILABLE
   # of basis functions in Aux-J            ...    796
   # of shells in Aux-J                     ...    260
   Maximum angular momentum in Aux-J        ...      4
Auxiliary J/K fitting basis                 ... NOT available
Auxiliary Correlation fitting basis         ... NOT available
Auxiliary 'external' fitting basis          ... NOT available
Integral threshold                          ...     1.000000e-10
Primitive cut-off                           ...     1.000000e-11
Primitive pair pre-selection threshold      ...     1.000000e-11

Calculating pre-screening integrals         ... done (  0.2 sec) Dimension = 194
Organizing shell pair data                  ... done (  0.1 sec)
Shell pair information
Total number of shell pairs                 ...     18915
Shell pairs after pre-screening             ...     15479
Total number of primitive shell pairs       ...     58308
Primitive shell pairs kept                  ...     33745
          la=0 lb=0:   3907 shell pairs
          la=1 lb=0:   4350 shell pairs
          la=1 lb=1:   1203 shell pairs
          la=2 lb=0:   2296 shell pairs
          la=2 lb=1:   1256 shell pairs
          la=2 lb=2:    348 shell pairs
          la=3 lb=0:   1092 shell pairs
          la=3 lb=1:    612 shell pairs
          la=3 lb=2:    328 shell pairs
          la=3 lb=3:     87 shell pairs

Calculating one electron integrals          ... done (  0.1 sec)
Calculating RI/J V-Matrix + Cholesky decomp.... done (  0.1 sec)
Calculating Nuclear repulsion               ... done (  0.0 sec) ENN=    766.542961674116 Eh

SHARK setup successfully completed in   1.8 seconds

Maximum memory used throughout the entire GTOINT-calculation: 226.6 MB
-------------------------------------------------------------------------------
                                 ORCA SCF
-------------------------------------------------------------------------------

------------
SCF SETTINGS
------------
Hamiltonian:
 Density Functional     Method          .... DFT(GTOs)
 Exchange Functional    Exchange        .... B88
   X-Alpha parameter    XAlpha          ....  0.666667
   Becke's b parameter  XBeta           ....  0.004200
 Correlation Functional Correlation     .... LYP
 LDA part of GGA corr.  LDAOpt          .... VWN-5
 Gradients option       PostSCFGGA      .... off
 Hybrid DFT is turned on
   Fraction HF Exchange ScalHFX         ....  0.200000
   Scaling of DF-GGA-X  ScalDFX         ....  0.720000
   Scaling of DF-GGA-C  ScalDFC         ....  0.810000
   Scaling of DF-LDA-C  ScalLDAC        ....  1.000000
   Perturbative correction              ....  0.000000
   Density functional embedding theory  .... OFF
   NL short-range parameter             ....  4.800000
 RI-approximation to the Coulomb term is turned on
   Number of AuxJ basis functions       .... 796
   RIJ-COSX (HFX calculated with COS-X)).... on


General Settings:
 Integral files         IntName         .... anthracene_opt_orca_dft
 Hartree-Fock type      HFTyp           .... UHF
 Total Charge           Charge          ....    0
 Multiplicity           Mult            ....    3
 Number of Electrons    NEL             ....   94
 Basis Dimension        Dim             ....  494
 Nuclear Repulsion      ENuc            ....    766.5429616741 Eh

Convergence Acceleration:
 DIIS                   CNVDIIS         .... on
   Start iteration      DIISMaxIt       ....    12
   Startup error        DIISStart       ....  0.200000
   # of expansion vecs  DIISMaxEq       ....     5
   Bias factor          DIISBfac        ....   1.050
   Max. coefficient     DIISMaxC        ....  10.000
 Trust-Rad. Augm. Hess. CNVTRAH         .... auto
   Auto Start mean grad. ratio tolernc. ....  1.125000
   Auto Start start iteration           ....    20
   Auto Start num. interpolation iter.  ....    10
   Max. Number of Micro iterations      ....    16
   Max. Number of Macro iterations      .... Maxiter - #DIIS iter
   Number of Davidson start vectors     ....     2
   Converg. threshold I  (grad. norm)   ....   5.000e-05
   Converg. threshold II (energy diff.) ....   1.000e-08
   Grad. Scal. Fac. for Micro threshold ....   0.100
   Minimum threshold for Micro iter.    ....   0.010
   NR start threshold (gradient norm)   ....   0.001
   Initial trust radius                 ....   0.400
   Minimum AH scaling param. (alpha)    ....   1.000
   Maximum AH scaling param. (alpha)    .... 1000.000
   Orbital update algorithm             .... Taylor
   White noise on init. David. guess    .... on
   Maximum white noise                  ....   0.010
   Quad. conv. algorithm                .... NR
 SOSCF                  CNVSOSCF        .... off
 Level Shifting         CNVShift        .... on
   Level shift para.    LevelShift      ....    0.2500
   Turn off err/grad.   ShiftErr        ....    0.0010
 Zerner damping         CNVZerner       .... off
 Static damping         CNVDamp         .... on
   Fraction old density DampFac         ....    0.7000
   Max. Damping (<1)    DampMax         ....    0.9800
   Min. Damping (>=0)   DampMin         ....    0.0000
   Turn off err/grad.   DampErr         ....    0.1000
 Fernandez-Rico         CNVRico         .... off

SCF Procedure:
 Maximum # iterations   MaxIter         ....   500
 SCF integral mode      SCFMode         .... Direct
   Integral package                     .... SHARK and LIBINT hybrid scheme
 Reset frequency        DirectResetFreq ....    20
 Integral Threshold     Thresh          ....  1.000e-10 Eh
 Primitive CutOff       TCut            ....  1.000e-11 Eh

Convergence Tolerance:
 Convergence Check Mode ConvCheckMode   .... Total+1el-Energy
 Convergence forced     ConvForced      .... 1
 Energy Change          TolE            ....  1.000e-08 Eh
 1-El. energy change                    ....  1.000e-05 Eh
 DIIS Error             TolErr          ....  5.000e-07


Diagonalization of the overlap matrix:
Smallest eigenvalue                        ... 5.530e-06
Time for diagonalization                   ...    0.051 sec
Threshold for overlap eigenvalues          ... 1.000e-08
Number of eigenvalues below threshold      ... 0
Time for construction of square roots      ...    0.088 sec
Total time needed                          ...    0.139 sec

Time for model grid setup =    0.753 sec

------------------------------
INITIAL GUESS: MODEL POTENTIAL
------------------------------
Loading Hartree-Fock densities                     ... done
Calculating cut-offs                               ... done
Initializing the effective Hamiltonian             ... done
Setting up the integral package (SHARK)            ... done
Starting the Coulomb interaction                   ... done (   1.5 sec)
Reading the grid                                   ... done
Mapping shells                                     ... done
Starting the XC term evaluation                    ... done (   1.2 sec)
  promolecular density results
     # of electrons  =     93.988489766
     EX              =    -74.975537214
     EC              =     -3.151511218
     EX+EC           =    -78.127048432
Transforming the Hamiltonian                       ... done (   0.0 sec)
Diagonalizing the Hamiltonian                      ... done (   0.0 sec)
Back transforming the eigenvectors                 ... done (   0.0 sec)
Now organizing SCF variables                       ... done
                      ------------------
                      INITIAL GUESS DONE (   3.5 sec)
                      ------------------
-------------------
DFT GRID GENERATION
-------------------

General Integration Accuracy     IntAcc      ... 4.388
Radial Grid Type                 RadialGrid  ... OptM3 with GC (2021)
Angular Grid (max. ang.)         AngularGrid ... 4 (Lebedev-302)
Angular grid pruning method      GridPruning ... 4 (adaptive)
Weight generation scheme         WeightScheme... Becke
Basis function cutoff            BFCut       ... 1.0000e-10
Integration weight cutoff        WCut        ... 1.0000e-14
Angular grids for H and He will be reduced by one unit
Partially contracted basis set               ... off
Rotationally invariant grid construction     ... off

Total number of grid points                  ...   115595
Total number of batches                      ...     1822
Average number of points per batch           ...       63
Average number of grid points per atom       ...     4816
Time for grid setup =    2.343 sec

--------------------
COSX GRID GENERATION
--------------------

GRIDX 1
-------
General Integration Accuracy     IntAcc      ... 3.816
Radial Grid Type                 RadialGrid  ... OptM3 with GC (2021)
Angular Grid (max. ang.)         AngularGrid ... 1 (Lebedev-50)
Angular grid pruning method      GridPruning ... 4 (adaptive)
Weight generation scheme         WeightScheme... Becke
Basis function cutoff            BFCut       ... 1.0000e-10
Integration weight cutoff        WCut        ... 1.0000e-14
Angular grids for H and He will be reduced by one unit
Partially contracted basis set               ... on
Rotationally invariant grid construction     ... off

Total number of grid points                  ...    14768
Total number of batches                      ...      244
Average number of points per batch           ...       60
Average number of grid points per atom       ...      615
UseSFitting                                  ... on

GRIDX 2
-------
General Integration Accuracy     IntAcc      ... 4.020
Radial Grid Type                 RadialGrid  ... OptM3 with GC (2021)
Angular Grid (max. ang.)         AngularGrid ... 2 (Lebedev-110)
Angular grid pruning method      GridPruning ... 4 (adaptive)
Weight generation scheme         WeightScheme... Becke
Basis function cutoff            BFCut       ... 1.0000e-10
Integration weight cutoff        WCut        ... 1.0000e-14
Angular grids for H and He will be reduced by one unit
Partially contracted basis set               ... on
Rotationally invariant grid construction     ... off

Total number of grid points                  ...    32276
Total number of batches                      ...      516
Average number of points per batch           ...       62
Average number of grid points per atom       ...     1345
UseSFitting                                  ... on

GRIDX 3
-------
General Integration Accuracy     IntAcc      ... 4.338
Radial Grid Type                 RadialGrid  ... OptM3 with GC (2021)
Angular Grid (max. ang.)         AngularGrid ... 3 (Lebedev-194)
Angular grid pruning method      GridPruning ... 4 (adaptive)
Weight generation scheme         WeightScheme... Becke
Basis function cutoff            BFCut       ... 1.0000e-10
Integration weight cutoff        WCut        ... 1.0000e-14
Angular grids for H and He will be reduced by one unit
Partially contracted basis set               ... on
Rotationally invariant grid construction     ... off

Total number of grid points                  ...    70822
Total number of batches                      ...     1114
Average number of points per batch           ...       63
Average number of grid points per atom       ...     2951
UseSFitting                                  ... on

Time for X-Grid setup             =    3.979 sec

--------------
SCF ITERATIONS
--------------
ITER       Energy         Delta-E        Max-DP      RMS-DP      [F,P]     Damp
               ***  Starting incremental Fock matrix formation  ***
  0   -538.9995430612   0.000000000000 0.01789483  0.00047267  0.0748698 0.7000
  1   -539.1343179409  -0.134774879634 0.01552881  0.00035350  0.0404195 0.7000
                               ***Turning on DIIS***
  2   -539.1961181789  -0.061800238027 0.03556024  0.00066169  0.0180502 0.0000
  3   -539.2860487126  -0.089930533645 0.00998407  0.00022015  0.0217492 0.0000
  4   -539.3083759616  -0.022327249023 0.00409752  0.00007400  0.0064233 0.0000
  5   -539.3095352190  -0.001159257438 0.00151270  0.00003520  0.0021025 0.0000
  6   -539.3097396272  -0.000204408149 0.00160267  0.00002279  0.0014897 0.0000
  7   -539.3098338407  -0.000094213574 0.00169765  0.00002304  0.0007402 0.0000
               *** Restarting incremental Fock matrix formation ***
                                   *** Resetting DIIS ***
  8   -539.3097901380   0.000043702757 0.00346840  0.00004858  0.0004424 0.0000
  9   -539.3097769410   0.000013197019 0.00027177  0.00000570  0.0009185 0.0000
 10   -539.3098042622  -0.000027321238 0.00030604  0.00000321  0.0001968 0.0000
 11   -539.3098055481  -0.000001285922 0.00015429  0.00000291  0.0001377 0.0000
 12   -539.3098066792  -0.000001131066 0.00018079  0.00000351  0.0000301 0.0000
 13   -539.3098067351  -0.000000055919 0.00011710  0.00000250  0.0000108 0.0000
 14   -539.3098067800  -0.000000044940 0.00016002  0.00000306  0.0000057 0.0000
 15   -539.3098067259   0.000000054166 0.00014527  0.00000299  0.0000031 0.0000
 16   -539.3098067949  -0.000000069014 0.00016456  0.00000303  0.0000017 0.0000
 17   -539.3098067610   0.000000033934 0.00016070  0.00000213  0.0000010 0.0000
                            ***DIIS convergence achieved***

               *****************************************************
               *                     SUCCESS                       *
               *           SCF CONVERGED AFTER  18 CYCLES          *
               *****************************************************

Old exchange energy                            =    -15.250387514 Eh
New exchange energy                            =    -15.250338082 Eh
Exchange energy change after final integration =      0.000049433 Eh
Total energy after final integration           =   -539.309757259 Eh
Final COS-X integration done in                =    85.273 sec

----------------
TOTAL SCF ENERGY
----------------

Total Energy       :         -539.30975726 Eh          -14675.36458 eV

Components:
Nuclear Repulsion  :          766.54296167 Eh           20858.69442 eV
Electronic Energy  :        -1305.85271893 Eh          -35534.05900 eV
One Electron Energy:        -2247.57182115 Eh          -61159.53854 eV
Two Electron Energy:          941.71910221 Eh           25625.47955 eV
Max COSX asymmetry :            0.00000045 Eh               0.00001 eV

Virial components:
Potential Energy   :        -1076.25709035 Eh          -29286.44432 eV
Kinetic Energy     :          536.94733309 Eh           14611.07975 eV
Virial Ratio       :            2.00439973


DFT components:
N(Alpha)           :       48.000026464234 electrons
N(Beta)            :       46.000015687203 electrons
N(Total)           :       94.000042151437 electrons
E(X)               :      -60.565423279448 Eh       
E(C)               :       -3.718164003732 Eh       
E(XC)              :      -64.283587283181 Eh       
DFET-embed. en.    :        0.000000000000 Eh       

---------------
SCF CONVERGENCE
---------------

  Last Energy change         ...    6.9543e-08  Tolerance :   1.0000e-08
  Last MAX-Density change    ...    0.0000e+00  Tolerance :   1.0000e-05
  Last RMS-Density change    ...    0.0000e+00  Tolerance :   1.0000e-06
  Last DIIS Error            ...    3.4231e-07  Tolerance :   5.0000e-07

             **** THE GBW FILE WAS UPDATED (anthracene_opt_orca_dft.gbw) ****
             **** DENSITY anthracene_opt_orca_dft.scfp WAS UPDATED ****
             **** ENERGY FILE WAS UPDATED (anthracene_opt_orca_dft.en.tmp) ****
----------------------
UHF SPIN CONTAMINATION
----------------------

Warning: in a DFT calculation there is little theoretical justification to 
         calculate <S**2> as in Hartree-Fock theory. We will do it anyways
         but you should keep in mind that the values have only limited relevance

Expectation value of <S**2>     :     2.020452
Ideal value S*(S+1) for S=1.0   :     2.000000
Deviation                       :     0.020452

             **** THE GBW FILE WAS UPDATED (anthracene_opt_orca_dft.gbw) ****
             **** DENSITY anthracene_opt_orca_dft.scfp WAS UPDATED ****
----------------
ORBITAL ENERGIES
----------------
                 SPIN UP ORBITALS
  NO   OCC          E(Eh)            E(eV) 
   0   1.0000     -10.184933      -277.1461 
   1   1.0000     -10.184917      -277.1457 
   2   1.0000     -10.183839      -277.1164 
   3   1.0000     -10.183739      -277.1136 
   4   1.0000     -10.183421      -277.1050 
   5   1.0000     -10.183373      -277.1037 
   6   1.0000     -10.176641      -276.9205 
   7   1.0000     -10.176638      -276.9204 
   8   1.0000     -10.176631      -276.9202 
   9   1.0000     -10.176616      -276.9198 
  10   1.0000     -10.174913      -276.8735 
  11   1.0000     -10.174909      -276.8733 
  12   1.0000     -10.174282      -276.8563 
  13   1.0000     -10.174282      -276.8563 
  14   1.0000      -0.886821       -24.1316 
  15   1.0000      -0.858950       -23.3732 
  16   1.0000      -0.805180       -21.9101 
  17   1.0000      -0.788504       -21.4563 
  18   1.0000      -0.755638       -20.5620 
  19   1.0000      -0.747496       -20.3404 
  20   1.0000      -0.701800       -19.0969 
  21   1.0000      -0.659390       -17.9429 
  22   1.0000      -0.615487       -16.7483 
  23   1.0000      -0.606663       -16.5081 
  24   1.0000      -0.597770       -16.2661 
  25   1.0000      -0.547625       -14.9016 
  26   1.0000      -0.526540       -14.3279 
  27   1.0000      -0.507660       -13.8141 
  28   1.0000      -0.467554       -12.7228 
  29   1.0000      -0.464327       -12.6350 
  30   1.0000      -0.453747       -12.3471 
  31   1.0000      -0.452676       -12.3179 
  32   1.0000      -0.424600       -11.5540 
  33   1.0000      -0.415106       -11.2956 
  34   1.0000      -0.413199       -11.2437 
  35   1.0000      -0.412724       -11.2308 
  36   1.0000      -0.398504       -10.8438 
  37   1.0000      -0.377430       -10.2704 
  38   1.0000      -0.376835       -10.2542 
  39   1.0000      -0.353173        -9.6103 
  40   1.0000      -0.338278        -9.2050 
  41   1.0000      -0.333181        -9.0663 
  42   1.0000      -0.319024        -8.6811 
  43   1.0000      -0.316406        -8.6099 
  44   1.0000      -0.270073        -7.3491 
  45   1.0000      -0.257294        -7.0013 
  46   1.0000      -0.213516        -5.8101 
  47   1.0000      -0.135470        -3.6863 
  48   0.0000      -0.018422        -0.5013 
  49   0.0000      -0.018080        -0.4920 
  50   0.0000       0.006445         0.1754 
  51   0.0000       0.039446         1.0734 
  52   0.0000       0.053211         1.4479 
  53   0.0000       0.054882         1.4934 
  54   0.0000       0.056584         1.5397 
  55   0.0000       0.078990         2.1494 
  56   0.0000       0.082266         2.2386 
  57   0.0000       0.100024         2.7218 
  58   0.0000       0.100454         2.7335 
  59   0.0000       0.113130         3.0784 
  60   0.0000       0.121538         3.3072 
  61   0.0000       0.127688         3.4746 
  62   0.0000       0.138599         3.7715 
  63   0.0000       0.140331         3.8186 
  64   0.0000       0.149371         4.0646 
  65   0.0000       0.158473         4.3123 
  66   0.0000       0.174552         4.7498 
  67   0.0000       0.184196         5.0122 
  68   0.0000       0.188791         5.1373 
  69   0.0000       0.189198         5.1484 
  70   0.0000       0.189595         5.1591 
  71   0.0000       0.207514         5.6467 
  72   0.0000       0.212181         5.7737 
  73   0.0000       0.219867         5.9829 
  74   0.0000       0.240970         6.5571 
  75   0.0000       0.242230         6.5914 
  76   0.0000       0.243603         6.6288 
  77   0.0000       0.251432         6.8418 
  78   0.0000       0.252248         6.8640 
  79   0.0000       0.262883         7.1534 
  80   0.0000       0.266682         7.2568 
  81   0.0000       0.268304         7.3009 
  82   0.0000       0.277507         7.5514 
  83   0.0000       0.278582         7.5806 
  84   0.0000       0.283265         7.7080 
  85   0.0000       0.286695         7.8014 
  86   0.0000       0.298276         8.1165 
  87   0.0000       0.303501         8.2587 
  88   0.0000       0.304824         8.2947 
  89   0.0000       0.312663         8.5080 
  90   0.0000       0.336223         9.1491 
  91   0.0000       0.336243         9.1496 
  92   0.0000       0.347782         9.4636 
  93   0.0000       0.355190         9.6652 
  94   0.0000       0.355338         9.6692 
  95   0.0000       0.359930         9.7942 
  96   0.0000       0.361903         9.8479 
  97   0.0000       0.368832        10.0364 
  98   0.0000       0.374247        10.1838 
  99   0.0000       0.378886        10.3100 
 100   0.0000       0.397026        10.8036 
 101   0.0000       0.401379        10.9221 
 102   0.0000       0.408292        11.1102 
 103   0.0000       0.408901        11.1268 
 104   0.0000       0.415522        11.3069 
 105   0.0000       0.431403        11.7391 
 106   0.0000       0.435194        11.8422 
 107   0.0000       0.435246        11.8436 
 108   0.0000       0.439173        11.9505 
 109   0.0000       0.449897        12.2423 
 110   0.0000       0.466061        12.6822 
 111   0.0000       0.478855        13.0303 
 112   0.0000       0.479637        13.0516 
 113   0.0000       0.489443        13.3184 
 114   0.0000       0.490580        13.3494 
 115   0.0000       0.491632        13.3780 
 116   0.0000       0.501481        13.6460 
 117   0.0000       0.503057        13.6889 
 118   0.0000       0.505039        13.7428 
 119   0.0000       0.509466        13.8633 
 120   0.0000       0.515515        14.0279 
 121   0.0000       0.517456        14.0807 
 122   0.0000       0.528988        14.3945 
 123   0.0000       0.549521        14.9532 
 124   0.0000       0.564512        15.3612 
 125   0.0000       0.601798        16.3757 
 126   0.0000       0.611233        16.6325 
 127   0.0000       0.618336        16.8258 
 128   0.0000       0.620379        16.8814 
 129   0.0000       0.641680        17.4610 
 130   0.0000       0.654687        17.8149 
 131   0.0000       0.662167        18.0185 
 132   0.0000       0.662533        18.0284 
 133   0.0000       0.665068        18.0974 
 134   0.0000       0.677412        18.4333 
 135   0.0000       0.698587        19.0095 
 136   0.0000       0.703982        19.1563 
 137   0.0000       0.707696        19.2574 
 138   0.0000       0.708951        19.2915 
 139   0.0000       0.718279        19.5454 
 140   0.0000       0.725610        19.7449 
 141   0.0000       0.735046        20.0016 
 142   0.0000       0.741227        20.1698 
 143   0.0000       0.748961        20.3803 
 144   0.0000       0.749023        20.3819 
 145   0.0000       0.767379        20.8815 
 146   0.0000       0.767557        20.8863 
 147   0.0000       0.771155        20.9842 
 148   0.0000       0.774700        21.0807 
 149   0.0000       0.781612        21.2687 
 150   0.0000       0.802659        21.8415 
 151   0.0000       0.818765        22.2797 
 152   0.0000       0.829963        22.5845 
 153   0.0000       0.841059        22.8864 
 154   0.0000       0.841303        22.8930 
 155   0.0000       0.847502        23.0617 
 156   0.0000       0.875907        23.8346 
 157   0.0000       0.878609        23.9082 
 158   0.0000       0.883624        24.0446 
 159   0.0000       0.887426        24.1481 
 160   0.0000       0.890477        24.2311 
 161   0.0000       0.895131        24.3577 
 162   0.0000       0.915377        24.9087 
 163   0.0000       0.942022        25.6337 
 164   0.0000       0.943150        25.6644 
 165   0.0000       0.958551        26.0835 
 166   0.0000       0.990094        26.9418 
 167   0.0000       0.990181        26.9442 
 168   0.0000       0.992176        26.9985 
 169   0.0000       0.996700        27.1216 
 170   0.0000       0.997736        27.1498 
 171   0.0000       1.008432        27.4408 
 172   0.0000       1.077130        29.3102 
 173   0.0000       1.085367        29.5343 
 174   0.0000       1.092270        29.7222 
 175   0.0000       1.093731        29.7619 
 176   0.0000       1.109456        30.1898 
 177   0.0000       1.143669        31.1208 
 178   0.0000       1.146199        31.1897 
 179   0.0000       1.149759        31.2865 
 180   0.0000       1.190157        32.3858 
 181   0.0000       1.191660        32.4267 
 182   0.0000       1.193689        32.4819 
 183   0.0000       1.194471        32.5032 
 184   0.0000       1.212674        32.9985 
 185   0.0000       1.217240        33.1228 
 186   0.0000       1.230799        33.4917 
 187   0.0000       1.231780        33.5184 
 188   0.0000       1.240549        33.7571 
 189   0.0000       1.251127        34.0449 
 190   0.0000       1.259211        34.2649 
 191   0.0000       1.264420        34.4066 
 192   0.0000       1.281662        34.8758 
 193   0.0000       1.285577        34.9823 
 194   0.0000       1.289652        35.0932 
 195   0.0000       1.295971        35.2652 
 196   0.0000       1.331344        36.2277 
 197   0.0000       1.362883        37.0859 
 198   0.0000       1.369729        37.2722 
 199   0.0000       1.370204        37.2852 
 200   0.0000       1.373215        37.3671 
 201   0.0000       1.375787        37.4371 
 202   0.0000       1.421047        38.6687 
 203   0.0000       1.428220        38.8638 
 204   0.0000       1.442305        39.2471 
 205   0.0000       1.443438        39.2779 
 206   0.0000       1.445301        39.3286 
 207   0.0000       1.474793        40.1312 
 208   0.0000       1.480785        40.2942 
 209   0.0000       1.481314        40.3086 
 210   0.0000       1.481761        40.3208 
 211   0.0000       1.484914        40.4066 
 212   0.0000       1.514869        41.2217 
 213   0.0000       1.516257        41.2594 
 214   0.0000       1.533520        41.7292 
 215   0.0000       1.536717        41.8162 
 216   0.0000       1.547950        42.1219 
 217   0.0000       1.575387        42.8685 
 218   0.0000       1.575908        42.8826 
 219   0.0000       1.582642        43.0659 
 220   0.0000       1.596703        43.4485 
 221   0.0000       1.601565        43.5808 
 222   0.0000       1.616125        43.9770 
 223   0.0000       1.621912        44.1345 
 224   0.0000       1.653465        44.9931 
 225   0.0000       1.662469        45.2381 
 226   0.0000       1.665153        45.3111 
 227   0.0000       1.675335        45.5882 
 228   0.0000       1.676112        45.6093 
 229   0.0000       1.678099        45.6634 
 230   0.0000       1.684692        45.8428 
 231   0.0000       1.701084        46.2889 
 232   0.0000       1.703985        46.3678 
 233   0.0000       1.710790        46.5530 
 234   0.0000       1.743918        47.4544 
 235   0.0000       1.747966        47.5646 
 236   0.0000       1.755284        47.7637 
 237   0.0000       1.814454        49.3738 
 238   0.0000       1.822876        49.6030 
 239   0.0000       1.826859        49.7114 
 240   0.0000       1.854409        50.4610 
 241   0.0000       1.860907        50.6379 
 242   0.0000       1.872421        50.9512 
 243   0.0000       1.898472        51.6601 
 244   0.0000       1.918769        52.2124 
 245   0.0000       1.933971        52.6260 
 246   0.0000       1.944761        52.9196 
 247   0.0000       1.971894        53.6580 
 248   0.0000       1.996955        54.3399 
 249   0.0000       1.997080        54.3433 
 250   0.0000       2.004445        54.5437 
 251   0.0000       2.004841        54.5545 
 252   0.0000       2.029707        55.2311 
 253   0.0000       2.054847        55.9152 
 254   0.0000       2.055871        55.9431 
 255   0.0000       2.108004        57.3617 
 256   0.0000       2.123837        57.7925 
 257   0.0000       2.124386        57.8075 
 258   0.0000       2.141026        58.2603 
 259   0.0000       2.141792        58.2811 
 260   0.0000       2.156460        58.6803 
 261   0.0000       2.173028        59.1311 
 262   0.0000       2.188876        59.5623 
 263   0.0000       2.190619        59.6098 
 264   0.0000       2.197438        59.7953 
 265   0.0000       2.215195        60.2785 
 266   0.0000       2.218986        60.3817 
 267   0.0000       2.246798        61.1385 
 268   0.0000       2.257647        61.4337 
 269   0.0000       2.287973        62.2589 
 270   0.0000       2.294493        62.4363 
 271   0.0000       2.309680        62.8496 
 272   0.0000       2.327194        63.3262 
 273   0.0000       2.333422        63.4956 
 274   0.0000       2.367097        64.4120 
 275   0.0000       2.409051        65.5536 
 276   0.0000       2.418210        65.8028 
 277   0.0000       2.427959        66.0681 
 278   0.0000       2.432705        66.1973 
 279   0.0000       2.454659        66.7947 
 280   0.0000       2.486392        67.6582 
 281   0.0000       2.497988        67.9737 
 282   0.0000       2.503977        68.1367 
 283   0.0000       2.512979        68.3816 
 284   0.0000       2.529186        68.8226 
 285   0.0000       2.530365        68.8547 
 286   0.0000       2.567310        69.8601 
 287   0.0000       2.571385        69.9709 
 288   0.0000       2.608351        70.9768 
 289   0.0000       2.622154        71.3524 
 290   0.0000       2.627825        71.5067 
 291   0.0000       2.635818        71.7242 
 292   0.0000       2.637378        71.7667 
 293   0.0000       2.650520        72.1243 
 294   0.0000       2.654117        72.2222 
 295   0.0000       2.656947        72.2992 
 296   0.0000       2.679729        72.9191 
 297   0.0000       2.691495        73.2393 
 298   0.0000       2.702137        73.5289 
 299   0.0000       2.708198        73.6938 
 300   0.0000       2.708579        73.7042 
 301   0.0000       2.740511        74.5731 
 302   0.0000       2.745951        74.7211 
 303   0.0000       2.755734        74.9873 
 304   0.0000       2.762251        75.1647 
 305   0.0000       2.765584        75.2554 
 306   0.0000       2.789403        75.9035 
 307   0.0000       2.790872        75.9435 
 308   0.0000       2.790899        75.9442 
 309   0.0000       2.795714        76.0752 
 310   0.0000       2.802912        76.2711 
 311   0.0000       2.815259        76.6071 
 312   0.0000       2.829755        77.0015 
 313   0.0000       2.842928        77.3600 
 314   0.0000       2.850659        77.5704 
 315   0.0000       2.860888        77.8487 
 316   0.0000       2.864394        77.9441 
 317   0.0000       2.875731        78.2526 
 318   0.0000       2.877295        78.2952 
 319   0.0000       2.881656        78.4138 
 320   0.0000       2.884056        78.4791 
 321   0.0000       2.904267        79.0291 
 322   0.0000       2.907751        79.1239 
 323   0.0000       2.912388        79.2501 
 324   0.0000       2.925750        79.6137 
 325   0.0000       2.933569        79.8265 
 326   0.0000       2.948627        80.2362 
 327   0.0000       2.964079        80.6567 
 328   0.0000       2.966669        80.7272 
 329   0.0000       2.981038        81.1182 
 330   0.0000       2.982034        81.1453 
 331   0.0000       2.986302        81.2614 
 332   0.0000       3.000255        81.6411 
 333   0.0000       3.019673        82.1695 
 334   0.0000       3.036482        82.6269 
 335   0.0000       3.038803        82.6900 
 336   0.0000       3.050486        83.0079 
 337   0.0000       3.065253        83.4098 
 338   0.0000       3.067232        83.4636 
 339   0.0000       3.069468        83.5245 
 340   0.0000       3.071590        83.5822 
 341   0.0000       3.120307        84.9079 
 342   0.0000       3.122043        84.9551 
 343   0.0000       3.124157        85.0126 
 344   0.0000       3.132696        85.2450 
 345   0.0000       3.150632        85.7331 
 346   0.0000       3.159178        85.9656 
 347   0.0000       3.165361        86.1339 
 348   0.0000       3.173643        86.3592 
 349   0.0000       3.185075        86.6703 
 350   0.0000       3.185871        86.6920 
 351   0.0000       3.189046        86.7784 
 352   0.0000       3.207524        87.2812 
 353   0.0000       3.215665        87.5027 
 354   0.0000       3.243284        88.2542 
 355   0.0000       3.256350        88.6098 
 356   0.0000       3.256759        88.6209 
 357   0.0000       3.262289        88.7714 
 358   0.0000       3.266694        88.8913 
 359   0.0000       3.288337        89.4802 
 360   0.0000       3.299847        89.7934 
 361   0.0000       3.305506        89.9474 
 362   0.0000       3.306071        89.9628 
 363   0.0000       3.314665        90.1966 
 364   0.0000       3.321002        90.3691 
 365   0.0000       3.325352        90.4874 
 366   0.0000       3.325820        90.5002 
 367   0.0000       3.344044        90.9961 
 368   0.0000       3.346421        91.0608 
 369   0.0000       3.355058        91.2958 
 370   0.0000       3.410558        92.8060 
 371   0.0000       3.412651        92.8629 
 372   0.0000       3.423034        93.1455 
 373   0.0000       3.425539        93.2137 
 374   0.0000       3.427445        93.2655 
 375   0.0000       3.434048        93.4452 
 376   0.0000       3.457098        94.0724 
 377   0.0000       3.466646        94.3322 
 378   0.0000       3.489982        94.9672 
 379   0.0000       3.490367        94.9777 
 380   0.0000       3.495578        95.1195 
 381   0.0000       3.496782        95.1523 
 382   0.0000       3.497320        95.1669 
 383   0.0000       3.503142        95.3253 
 384   0.0000       3.529339        96.0382 
 385   0.0000       3.537455        96.2590 
 386   0.0000       3.538937        96.2994 
 387   0.0000       3.551832        96.6503 
 388   0.0000       3.555143        96.7403 
 389   0.0000       3.562194        96.9322 
 390   0.0000       3.574040        97.2546 
 391   0.0000       3.607590        98.1675 
 392   0.0000       3.611260        98.2674 
 393   0.0000       3.622490        98.5730 
 394   0.0000       3.652588        99.3920 
 395   0.0000       3.663556        99.6904 
 396   0.0000       3.673545        99.9622 
 397   0.0000       3.718290       101.1798 
 398   0.0000       3.734863       101.6308 
 399   0.0000       3.742461       101.8376 
 400   0.0000       3.782364       102.9234 
 401   0.0000       3.821699       103.9937 
 402   0.0000       3.830591       104.2357 
 403   0.0000       3.859577       105.0244 
 404   0.0000       3.860241       105.0425 
 405   0.0000       3.862561       105.1056 
 406   0.0000       3.871907       105.3599 
 407   0.0000       3.889493       105.8385 
 408   0.0000       3.931944       106.9936 
 409   0.0000       3.942993       107.2943 
 410   0.0000       3.943858       107.3178 
 411   0.0000       3.958923       107.7278 
 412   0.0000       3.973786       108.1322 
 413   0.0000       3.986445       108.4767 
 414   0.0000       4.023777       109.4925 
 415   0.0000       4.029969       109.6610 
 416   0.0000       4.062927       110.5579 
 417   0.0000       4.065601       110.6306 
 418   0.0000       4.085048       111.1598 
 419   0.0000       4.100731       111.5866 
 420   0.0000       4.104871       111.6992 
 421   0.0000       4.143054       112.7382 
 422   0.0000       4.154845       113.0591 
 423   0.0000       4.166774       113.3837 
 424   0.0000       4.176477       113.6477 
 425   0.0000       4.178153       113.6933 
 426   0.0000       4.179949       113.7422 
 427   0.0000       4.185682       113.8982 
 428   0.0000       4.196643       114.1965 
 429   0.0000       4.221637       114.8766 
 430   0.0000       4.223921       114.9387 
 431   0.0000       4.249981       115.6479 
 432   0.0000       4.277802       116.4049 
 433   0.0000       4.313365       117.3726 
 434   0.0000       4.327333       117.7527 
 435   0.0000       4.327986       117.7705 
 436   0.0000       4.342850       118.1750 
 437   0.0000       4.346816       118.2829 
 438   0.0000       4.396654       119.6390 
 439   0.0000       4.397701       119.6675 
 440   0.0000       4.419431       120.2588 
 441   0.0000       4.436290       120.7176 
 442   0.0000       4.472833       121.7120 
 443   0.0000       4.492531       122.2480 
 444   0.0000       4.506854       122.6377 
 445   0.0000       4.575260       124.4991 
 446   0.0000       4.577639       124.5639 
 447   0.0000       4.629318       125.9701 
 448   0.0000       4.631501       126.0296 
 449   0.0000       4.650508       126.5468 
 450   0.0000       4.692759       127.6965 
 451   0.0000       4.762112       129.5837 
 452   0.0000       4.769408       129.7822 
 453   0.0000       4.803259       130.7033 
 454   0.0000       4.809730       130.8794 
 455   0.0000       4.833668       131.5308 
 456   0.0000       4.834227       131.5460 
 457   0.0000       4.834618       131.5566 
 458   0.0000       4.858603       132.2093 
 459   0.0000       4.874120       132.6315 
 460   0.0000       4.980441       135.5247 
 461   0.0000       4.998054       136.0040 
 462   0.0000       5.040514       137.1593 
 463   0.0000       5.063588       137.7872 
 464   0.0000       5.105044       138.9153 
 465   0.0000       5.135503       139.7441 
 466   0.0000       5.182333       141.0185 
 467   0.0000       5.195366       141.3731 
 468   0.0000       5.272305       143.4667 
 469   0.0000       5.326760       144.9485 
 470   0.0000       5.403177       147.0279 
 471   0.0000       5.418075       147.4333 
 472   0.0000       5.422285       147.5479 
 473   0.0000       5.483912       149.2248 
 474   0.0000       5.539432       150.7356 
 475   0.0000       5.644280       153.5887 
 476   0.0000       5.695642       154.9863 
 477   0.0000       5.701736       155.1521 
 478   0.0000       5.780073       157.2838 
 479   0.0000       6.108988       166.2340 
 480   0.0000      21.850112       594.5718 
 481   0.0000      22.426022       610.2431 
 482   0.0000      22.534162       613.1857 
 483   0.0000      22.632132       615.8516 
 484   0.0000      22.658515       616.5695 
 485   0.0000      22.705514       617.8484 
 486   0.0000      22.735947       618.6766 
 487   0.0000      22.836921       621.4242 
 488   0.0000      22.850756       621.8007 
 489   0.0000      22.871418       622.3629 
 490   0.0000      22.887596       622.8032 
 491   0.0000      23.124480       629.2491 
 492   0.0000      23.355502       635.5355 
 493   0.0000      23.771928       646.8671 

                 SPIN DOWN ORBITALS
  NO   OCC          E(Eh)            E(eV) 
   0   1.0000     -10.184834      -277.1434 
   1   1.0000     -10.184823      -277.1431 
   2   1.0000     -10.184443      -277.1328 
   3   1.0000     -10.184414      -277.1320 
   4   1.0000     -10.176282      -276.9107 
   5   1.0000     -10.176258      -276.9101 
   6   1.0000     -10.173823      -276.8438 
   7   1.0000     -10.173804      -276.8433 
   8   1.0000     -10.173597      -276.8376 
   9   1.0000     -10.173594      -276.8376 
  10   1.0000     -10.173279      -276.8290 
  11   1.0000     -10.173276      -276.8289 
  12   1.0000     -10.172886      -276.8183 
  13   1.0000     -10.172886      -276.8183 
  14   1.0000      -0.880676       -23.9644 
  15   1.0000      -0.854157       -23.2428 
  16   1.0000      -0.796826       -21.6828 
  17   1.0000      -0.777039       -21.1443 
  18   1.0000      -0.748553       -20.3692 
  19   1.0000      -0.744978       -20.2719 
  20   1.0000      -0.687865       -18.7178 
  21   1.0000      -0.649567       -17.6756 
  22   1.0000      -0.612479       -16.6664 
  23   1.0000      -0.600092       -16.3293 
  24   1.0000      -0.593129       -16.1399 
  25   1.0000      -0.540534       -14.7087 
  26   1.0000      -0.524199       -14.2642 
  27   1.0000      -0.503812       -13.7094 
  28   1.0000      -0.464765       -12.6469 
  29   1.0000      -0.460408       -12.5283 
  30   1.0000      -0.451400       -12.2832 
  31   1.0000      -0.450439       -12.2571 
  32   1.0000      -0.421852       -11.4792 
  33   1.0000      -0.410873       -11.1804 
  34   1.0000      -0.409811       -11.1515 
  35   1.0000      -0.396100       -10.7784 
  36   1.0000      -0.395747       -10.7688 
  37   1.0000      -0.374419       -10.1884 
  38   1.0000      -0.363204        -9.8833 
  39   1.0000      -0.351530        -9.5656 
  40   1.0000      -0.334762        -9.1093 
  41   1.0000      -0.331634        -9.0242 
  42   1.0000      -0.294522        -8.0144 
  43   1.0000      -0.283084        -7.7031 
  44   1.0000      -0.249611        -6.7923 
  45   1.0000      -0.246180        -6.6989 
  46   0.0000      -0.134554        -3.6614 
  47   0.0000      -0.058912        -1.6031 
  48   0.0000      -0.011060        -0.3010 
  49   0.0000       0.003195         0.0869 
  50   0.0000       0.030465         0.8290 
  51   0.0000       0.054102         1.4722 
  52   0.0000       0.055693         1.5155 
  53   0.0000       0.058137         1.5820 
  54   0.0000       0.064187         1.7466 
  55   0.0000       0.081064         2.2059 
  56   0.0000       0.082987         2.2582 
  57   0.0000       0.101182         2.7533 
  58   0.0000       0.101534         2.7629 
  59   0.0000       0.113872         3.0986 
  60   0.0000       0.123960         3.3731 
  61   0.0000       0.130532         3.5519 
  62   0.0000       0.142182         3.8690 
  63   0.0000       0.150098         4.0844 
  64   0.0000       0.152691         4.1549 
  65   0.0000       0.160249         4.3606 
  66   0.0000       0.178457         4.8560 
  67   0.0000       0.184069         5.0088 
  68   0.0000       0.189775         5.1640 
  69   0.0000       0.193397         5.2626 
  70   0.0000       0.199908         5.4398 
  71   0.0000       0.211957         5.7676 
  72   0.0000       0.216594         5.8938 
  73   0.0000       0.222515         6.0549 
  74   0.0000       0.243173         6.6171 
  75   0.0000       0.243192         6.6176 
  76   0.0000       0.251142         6.8339 
  77   0.0000       0.259251         7.0546 
  78   0.0000       0.264205         7.1894 
  79   0.0000       0.268596         7.3089 
  80   0.0000       0.271505         7.3880 
  81   0.0000       0.272300         7.4097 
  82   0.0000       0.278616         7.5815 
  83   0.0000       0.284554         7.7431 
  84   0.0000       0.285651         7.7729 
  85   0.0000       0.292390         7.9563 
  86   0.0000       0.302391         8.2285 
  87   0.0000       0.310008         8.4357 
  88   0.0000       0.318693         8.6721 
  89   0.0000       0.320053         8.7091 
  90   0.0000       0.336771         9.1640 
  91   0.0000       0.338676         9.2158 
  92   0.0000       0.351914         9.5761 
  93   0.0000       0.357543         9.7292 
  94   0.0000       0.360659         9.8140 
  95   0.0000       0.369145        10.0449 
  96   0.0000       0.370670        10.0864 
  97   0.0000       0.373164        10.1543 
  98   0.0000       0.378300        10.2941 
  99   0.0000       0.380546        10.3552 
 100   0.0000       0.400006        10.8847 
 101   0.0000       0.408334        11.1113 
 102   0.0000       0.410557        11.1718 
 103   0.0000       0.416558        11.3351 
 104   0.0000       0.417631        11.3643 
 105   0.0000       0.436581        11.8800 
 106   0.0000       0.438262        11.9257 
 107   0.0000       0.438425        11.9302 
 108   0.0000       0.440239        11.9795 
 109   0.0000       0.452985        12.3264 
 110   0.0000       0.468139        12.7387 
 111   0.0000       0.483275        13.1506 
 112   0.0000       0.489114        13.3095 
 113   0.0000       0.490661        13.3516 
 114   0.0000       0.491519        13.3749 
 115   0.0000       0.492625        13.4050 
 116   0.0000       0.502522        13.6743 
 117   0.0000       0.508275        13.8309 
 118   0.0000       0.508445        13.8355 
 119   0.0000       0.513136        13.9631 
 120   0.0000       0.518466        14.1082 
 121   0.0000       0.521409        14.1883 
 122   0.0000       0.530397        14.4328 
 123   0.0000       0.550597        14.9825 
 124   0.0000       0.568872        15.4798 
 125   0.0000       0.606693        16.5090 
 126   0.0000       0.613184        16.6856 
 127   0.0000       0.621601        16.9146 
 128   0.0000       0.623484        16.9659 
 129   0.0000       0.642952        17.4956 
 130   0.0000       0.659597        17.9486 
 131   0.0000       0.664434        18.0802 
 132   0.0000       0.665120        18.0988 
 133   0.0000       0.668297        18.1853 
 134   0.0000       0.678599        18.4656 
 135   0.0000       0.704956        19.1828 
 136   0.0000       0.705942        19.2097 
 137   0.0000       0.709889        19.3171 
 138   0.0000       0.714344        19.4383 
 139   0.0000       0.720548        19.6071 
 140   0.0000       0.734208        19.9788 
 141   0.0000       0.743225        20.2242 
 142   0.0000       0.751557        20.4509 
 143   0.0000       0.756866        20.5954 
 144   0.0000       0.759208        20.6591 
 145   0.0000       0.770061        20.9544 
 146   0.0000       0.772368        21.0172 
 147   0.0000       0.775557        21.1040 
 148   0.0000       0.778175        21.1752 
 149   0.0000       0.782825        21.3017 
 150   0.0000       0.805212        21.9109 
 151   0.0000       0.821109        22.3435 
 152   0.0000       0.830931        22.6108 
 153   0.0000       0.847343        23.0574 
 154   0.0000       0.849582        23.1183 
 155   0.0000       0.852101        23.1868 
 156   0.0000       0.876907        23.8618 
 157   0.0000       0.883768        24.0485 
 158   0.0000       0.890199        24.2235 
 159   0.0000       0.895020        24.3547 
 160   0.0000       0.895888        24.3784 
 161   0.0000       0.896281        24.3890 
 162   0.0000       0.914530        24.8856 
 163   0.0000       0.945845        25.7377 
 164   0.0000       0.953467        25.9452 
 165   0.0000       0.961400        26.1610 
 166   0.0000       0.991737        26.9865 
 167   0.0000       0.999491        27.1975 
 168   0.0000       0.999612        27.2008 
 169   0.0000       1.003650        27.3107 
 170   0.0000       1.005909        27.3722 
 171   0.0000       1.012875        27.5617 
 172   0.0000       1.080394        29.3990 
 173   0.0000       1.093421        29.7535 
 174   0.0000       1.096628        29.8408 
 175   0.0000       1.097841        29.8738 
 176   0.0000       1.112518        30.2732 
 177   0.0000       1.151100        31.3230 
 178   0.0000       1.152269        31.3548 
 179   0.0000       1.158151        31.5149 
 180   0.0000       1.193455        32.4756 
 181   0.0000       1.194925        32.5155 
 182   0.0000       1.200216        32.6595 
 183   0.0000       1.204983        32.7893 
 184   0.0000       1.218968        33.1698 
 185   0.0000       1.219167        33.1752 
 186   0.0000       1.233158        33.5559 
 187   0.0000       1.233858        33.5750 
 188   0.0000       1.242917        33.8215 
 189   0.0000       1.253608        34.1124 
 190   0.0000       1.262944        34.3665 
 191   0.0000       1.272002        34.6129 
 192   0.0000       1.283841        34.9351 
 193   0.0000       1.288467        35.0610 
 194   0.0000       1.297781        35.3144 
 195   0.0000       1.298625        35.3374 
 196   0.0000       1.333500        36.2864 
 197   0.0000       1.364588        37.1323 
 198   0.0000       1.375159        37.4200 
 199   0.0000       1.380143        37.5556 
 200   0.0000       1.387481        37.7553 
 201   0.0000       1.391083        37.8533 
 202   0.0000       1.434078        39.0232 
 203   0.0000       1.438042        39.1311 
 204   0.0000       1.445350        39.3300 
 205   0.0000       1.445807        39.3424 
 206   0.0000       1.449108        39.4322 
 207   0.0000       1.475838        40.1596 
 208   0.0000       1.483668        40.3727 
 209   0.0000       1.492281        40.6070 
 210   0.0000       1.492991        40.6264 
 211   0.0000       1.500684        40.8357 
 212   0.0000       1.520324        41.3701 
 213   0.0000       1.520851        41.3844 
 214   0.0000       1.534898        41.7667 
 215   0.0000       1.538677        41.8695 
 216   0.0000       1.552603        42.2485 
 217   0.0000       1.577987        42.9392 
 218   0.0000       1.582533        43.0629 
 219   0.0000       1.588809        43.2337 
 220   0.0000       1.598444        43.4959 
 221   0.0000       1.606076        43.7036 
 222   0.0000       1.617432        44.0126 
 223   0.0000       1.632164        44.4134 
 224   0.0000       1.667276        45.3689 
 225   0.0000       1.669994        45.4428 
 226   0.0000       1.674857        45.5752 
 227   0.0000       1.676089        45.6087 
 228   0.0000       1.681474        45.7552 
 229   0.0000       1.682160        45.7739 
 230   0.0000       1.686245        45.8851 
 231   0.0000       1.706855        46.4459 
 232   0.0000       1.710238        46.5380 
 233   0.0000       1.716511        46.7086 
 234   0.0000       1.748155        47.5697 
 235   0.0000       1.751636        47.6644 
 236   0.0000       1.756839        47.8060 
 237   0.0000       1.818101        49.4730 
 238   0.0000       1.835991        49.9599 
 239   0.0000       1.838144        50.0185 
 240   0.0000       1.860700        50.6322 
 241   0.0000       1.861082        50.6426 
 242   0.0000       1.882727        51.2316 
 243   0.0000       1.902076        51.7581 
 244   0.0000       1.926365        52.4191 
 245   0.0000       1.939078        52.7650 
 246   0.0000       1.946889        52.9776 
 247   0.0000       1.974863        53.7388 
 248   0.0000       2.001460        54.4625 
 249   0.0000       2.003138        54.5082 
 250   0.0000       2.008407        54.6515 
 251   0.0000       2.008589        54.6565 
 252   0.0000       2.035059        55.3768 
 253   0.0000       2.058428        56.0127 
 254   0.0000       2.059562        56.0435 
 255   0.0000       2.109410        57.4000 
 256   0.0000       2.126146        57.8554 
 257   0.0000       2.129966        57.9593 
 258   0.0000       2.147749        58.4432 
 259   0.0000       2.153632        58.6033 
 260   0.0000       2.160874        58.8004 
 261   0.0000       2.178321        59.2751 
 262   0.0000       2.192450        59.6596 
 263   0.0000       2.195677        59.7474 
 264   0.0000       2.201716        59.9117 
 265   0.0000       2.219183        60.3870 
 266   0.0000       2.227211        60.6055 
 267   0.0000       2.250294        61.2336 
 268   0.0000       2.260162        61.5021 
 269   0.0000       2.291225        62.3474 
 270   0.0000       2.296967        62.5036 
 271   0.0000       2.312722        62.9324 
 272   0.0000       2.331174        63.4345 
 273   0.0000       2.341845        63.7249 
 274   0.0000       2.372967        64.5717 
 275   0.0000       2.417831        65.7925 
 276   0.0000       2.428957        66.0953 
 277   0.0000       2.434696        66.2514 
 278   0.0000       2.435448        66.2719 
 279   0.0000       2.456796        66.8528 
 280   0.0000       2.490013        67.7567 
 281   0.0000       2.500270        68.0358 
 282   0.0000       2.512490        68.3683 
 283   0.0000       2.516089        68.4663 
 284   0.0000       2.536258        69.0151 
 285   0.0000       2.540093        69.1194 
 286   0.0000       2.571784        69.9818 
 287   0.0000       2.576517        70.1106 
 288   0.0000       2.610438        71.0336 
 289   0.0000       2.625425        71.4414 
 290   0.0000       2.628491        71.5249 
 291   0.0000       2.638915        71.8085 
 292   0.0000       2.645064        71.9759 
 293   0.0000       2.655534        72.2608 
 294   0.0000       2.662763        72.4575 
 295   0.0000       2.664885        72.5152 
 296   0.0000       2.688556        73.1593 
 297   0.0000       2.696126        73.3653 
 298   0.0000       2.704199        73.5850 
 299   0.0000       2.712287        73.8051 
 300   0.0000       2.713621        73.8414 
 301   0.0000       2.745238        74.7017 
 302   0.0000       2.749714        74.8235 
 303   0.0000       2.764789        75.2337 
 304   0.0000       2.768792        75.3426 
 305   0.0000       2.771952        75.4287 
 306   0.0000       2.792418        75.9856 
 307   0.0000       2.796623        76.1000 
 308   0.0000       2.802351        76.2559 
 309   0.0000       2.804268        76.3080 
 310   0.0000       2.805146        76.3319 
 311   0.0000       2.819912        76.7337 
 312   0.0000       2.834270        77.1244 
 313   0.0000       2.850076        77.5545 
 314   0.0000       2.854091        77.6638 
 315   0.0000       2.869416        78.0808 
 316   0.0000       2.874170        78.2101 
 317   0.0000       2.882355        78.4329 
 318   0.0000       2.887508        78.5731 
 319   0.0000       2.893174        78.7273 
 320   0.0000       2.893191        78.7277 
 321   0.0000       2.909339        79.1671 
 322   0.0000       2.916673        79.3667 
 323   0.0000       2.919861        79.4535 
 324   0.0000       2.933441        79.8230 
 325   0.0000       2.945581        80.1533 
 326   0.0000       2.965660        80.6997 
 327   0.0000       2.969298        80.7987 
 328   0.0000       2.973751        80.9199 
 329   0.0000       2.983739        81.1917 
 330   0.0000       2.987315        81.2890 
 331   0.0000       2.995488        81.5114 
 332   0.0000       3.002464        81.7012 
 333   0.0000       3.029168        82.4278 
 334   0.0000       3.037694        82.6598 
 335   0.0000       3.047378        82.9234 
 336   0.0000       3.060675        83.2852 
 337   0.0000       3.070351        83.5485 
 338   0.0000       3.073043        83.6217 
 339   0.0000       3.076897        83.7266 
 340   0.0000       3.081440        83.8503 
 341   0.0000       3.127143        85.0939 
 342   0.0000       3.127601        85.1064 
 343   0.0000       3.129210        85.1501 
 344   0.0000       3.143891        85.5496 
 345   0.0000       3.153255        85.8044 
 346   0.0000       3.168677        86.2241 
 347   0.0000       3.169326        86.2417 
 348   0.0000       3.182152        86.5907 
 349   0.0000       3.194069        86.9150 
 350   0.0000       3.195209        86.9461 
 351   0.0000       3.199110        87.0522 
 352   0.0000       3.215319        87.4933 
 353   0.0000       3.219831        87.6160 
 354   0.0000       3.258416        88.6660 
 355   0.0000       3.258757        88.6753 
 356   0.0000       3.260455        88.7215 
 357   0.0000       3.278999        89.2261 
 358   0.0000       3.283617        89.3518 
 359   0.0000       3.289695        89.5172 
 360   0.0000       3.302736        89.8720 
 361   0.0000       3.317194        90.2654 
 362   0.0000       3.317449        90.2724 
 363   0.0000       3.325038        90.4789 
 364   0.0000       3.325448        90.4900 
 365   0.0000       3.335945        90.7757 
 366   0.0000       3.338834        90.8543 
 367   0.0000       3.346485        91.0625 
 368   0.0000       3.348052        91.1051 
 369   0.0000       3.356201        91.3269 
 370   0.0000       3.412034        92.8462 
 371   0.0000       3.426765        93.2470 
 372   0.0000       3.427571        93.2690 
 373   0.0000       3.428438        93.2926 
 374   0.0000       3.433890        93.4409 
 375   0.0000       3.436964        93.5246 
 376   0.0000       3.461096        94.1812 
 377   0.0000       3.481400        94.7337 
 378   0.0000       3.494136        95.0803 
 379   0.0000       3.497360        95.1680 
 380   0.0000       3.499929        95.2379 
 381   0.0000       3.500319        95.2485 
 382   0.0000       3.505528        95.3903 
 383   0.0000       3.506318        95.4118 
 384   0.0000       3.534967        96.1913 
 385   0.0000       3.540173        96.3330 
 386   0.0000       3.548012        96.5463 
 387   0.0000       3.557860        96.8143 
 388   0.0000       3.559937        96.8708 
 389   0.0000       3.566054        97.0373 
 390   0.0000       3.576930        97.3332 
 391   0.0000       3.612039        98.2886 
 392   0.0000       3.618707        98.4700 
 393   0.0000       3.630879        98.8012 
 394   0.0000       3.654923        99.4555 
 395   0.0000       3.665765        99.7505 
 396   0.0000       3.682743       100.2125 
 397   0.0000       3.722998       101.3079 
 398   0.0000       3.738369       101.7262 
 399   0.0000       3.752726       102.1169 
 400   0.0000       3.790537       103.1457 
 401   0.0000       3.824375       104.0665 
 402   0.0000       3.831879       104.2707 
 403   0.0000       3.865999       105.1992 
 404   0.0000       3.867176       105.2312 
 405   0.0000       3.870905       105.3327 
 406   0.0000       3.876149       105.4754 
 407   0.0000       3.897271       106.0501 
 408   0.0000       3.939602       107.2020 
 409   0.0000       3.946427       107.3877 
 410   0.0000       3.946565       107.3915 
 411   0.0000       3.963412       107.8499 
 412   0.0000       3.982898       108.3802 
 413   0.0000       3.994662       108.7003 
 414   0.0000       4.026517       109.5671 
 415   0.0000       4.033798       109.7652 
 416   0.0000       4.068770       110.7169 
 417   0.0000       4.069807       110.7451 
 418   0.0000       4.088160       111.2445 
 419   0.0000       4.115492       111.9882 
 420   0.0000       4.116003       112.0021 
 421   0.0000       4.145531       112.8056 
 422   0.0000       4.159014       113.1725 
 423   0.0000       4.170720       113.4911 
 424   0.0000       4.181463       113.7834 
 425   0.0000       4.182185       113.8030 
 426   0.0000       4.184798       113.8741 
 427   0.0000       4.187751       113.9545 
 428   0.0000       4.202009       114.3425 
 429   0.0000       4.224755       114.9614 
 430   0.0000       4.230684       115.1228 
 431   0.0000       4.257840       115.8617 
 432   0.0000       4.282760       116.5398 
 433   0.0000       4.320677       117.5716 
 434   0.0000       4.329746       117.8184 
 435   0.0000       4.337772       118.0368 
[...]
      f-1     :     0.000029
      f+2     :     0.000212
      f-2     :     0.004598
      f+3     :     0.000045
      f-3     :     0.000201
 10 C s       :     0.011694  s :     0.011694
      pz      :     0.401441  p :     0.415890
      px      :     0.006966
      py      :     0.007484
      dz2     :    -0.001816  d :    -0.006691
      dxz     :    -0.003599
      dyz     :     0.000938
      dx2y2   :    -0.001422
      dxy     :    -0.000792
      f0      :    -0.000008  f :    -0.001385
      f+1     :    -0.000398
      f-1     :    -0.000408
      f+2     :     0.000147
      f-2     :    -0.000339
      f+3     :    -0.000063
      f-3     :    -0.000316
 11 H s       :    -0.010444  s :    -0.010444
      pz      :     0.009286  p :     0.010936
      px      :     0.000093
      py      :     0.001558
 12 C s       :     0.011693  s :     0.011693
      pz      :     0.401441  p :     0.415890
      px      :     0.006966
      py      :     0.007484
      dz2     :    -0.001816  d :    -0.006691
      dxz     :    -0.003599
      dyz     :     0.000938
      dx2y2   :    -0.001422
      dxy     :    -0.000792
      f0      :    -0.000008  f :    -0.001385
      f+1     :    -0.000398
      f-1     :    -0.000408
      f+2     :     0.000147
      f-2     :    -0.000339
      f+3     :    -0.000063
      f-3     :    -0.000316
 13 H s       :    -0.010444  s :    -0.010444
      pz      :     0.009286  p :     0.010936
      px      :     0.000093
      py      :     0.001558
 14 C s       :    -0.002269  s :    -0.002269
      pz      :    -0.023859  p :    -0.031717
      px      :    -0.005644
      py      :    -0.002215
      dz2     :     0.000293  d :     0.059409
      dxz     :     0.056453
      dyz     :     0.000110
      dx2y2   :     0.001095
      dxy     :     0.001458
      f0      :     0.000578  f :     0.005669
      f+1     :     0.000007
      f-1     :     0.000029
      f+2     :     0.000212
      f-2     :     0.004598
      f+3     :     0.000045
      f-3     :     0.000201
 15 C s       :     0.003845  s :     0.003845
      pz      :     0.144004  p :     0.148053
      px      :     0.001623
      py      :     0.002425
      dz2     :    -0.000726  d :     0.005289
      dxz     :     0.007248
      dyz     :    -0.000112
      dx2y2   :    -0.000921
      dxy     :    -0.000200
      f0      :    -0.000151  f :     0.000074
      f+1     :    -0.000153
      f-1     :    -0.000153
      f+2     :    -0.000001
      f-2     :     0.000706
      f+3     :    -0.000081
      f-3     :    -0.000093
 16 H s       :    -0.004082  s :    -0.004082
      pz      :     0.003287  p :     0.003871
      px      :     0.000013
      py      :     0.000570
 17 C s       :     0.001220  s :     0.001220
      pz      :     0.069886  p :     0.069047
      px      :    -0.000377
      py      :    -0.000462
      dz2     :    -0.000307  d :     0.029249
      dxz     :     0.012297
      dyz     :     0.016441
      dx2y2   :     0.000479
      dxy     :     0.000340
      f0      :     0.000110  f :     0.002323
      f+1     :    -0.000073
      f-1     :    -0.000081
      f+2     :     0.001542
      f-2     :     0.000762
      f+3     :     0.000033
      f-3     :     0.000030
 18 H s       :    -0.002163  s :    -0.002163
      pz      :     0.001957  p :     0.002182
      px      :     0.000187
      py      :     0.000038
 19 C s       :     0.001220  s :     0.001220
      pz      :     0.069887  p :     0.069047
      px      :    -0.000377
      py      :    -0.000462
      dz2     :    -0.000307  d :     0.029249
      dxz     :     0.012297
      dyz     :     0.016440
      dx2y2   :     0.000479
      dxy     :     0.000340
      f0      :     0.000110  f :     0.002323
      f+1     :    -0.000073
      f-1     :    -0.000081
      f+2     :     0.001542
      f-2     :     0.000762
      f+3     :     0.000033
      f-3     :     0.000030
 20 H s       :    -0.002163  s :    -0.002163
      pz      :     0.001957  p :     0.002182
      px      :     0.000187
      py      :     0.000038
 21 C s       :     0.003845  s :     0.003845
      pz      :     0.144004  p :     0.148053
      px      :     0.001624
      py      :     0.002425
      dz2     :    -0.000726  d :     0.005289
      dxz     :     0.007248
      dyz     :    -0.000112
      dx2y2   :    -0.000921
      dxy     :    -0.000200
      f0      :    -0.000151  f :     0.000074
      f+1     :    -0.000153
      f-1     :    -0.000153
      f+2     :    -0.000001
      f-2     :     0.000706
      f+3     :    -0.000081
      f-3     :    -0.000093
 22 H s       :    -0.004082  s :    -0.004082
      pz      :     0.003287  p :     0.003871
      px      :     0.000013
      py      :     0.000570
 23 C s       :    -0.002269  s :    -0.002269
      pz      :    -0.023859  p :    -0.031717
      px      :    -0.005644
      py      :    -0.002214
      dz2     :     0.000293  d :     0.059409
      dxz     :     0.056453
      dyz     :     0.000110
      dx2y2   :     0.001095
      dxy     :     0.001458
      f0      :     0.000578  f :     0.005669
      f+1     :     0.000007
      f-1     :     0.000029
      f+2     :     0.000212
      f-2     :     0.004598
      f+3     :     0.000045
      f-3     :     0.000201


                      *****************************
                      * MAYER POPULATION ANALYSIS *
                      *****************************

  NA   - Mulliken gross atomic population
  ZA   - Total nuclear charge
  QA   - Mulliken gross atomic charge
  VA   - Mayer's total valence
  BVA  - Mayer's bonded valence
  FA   - Mayer's free valence

  ATOM       NA         ZA         QA         VA         BVA        FA
  0 C      5.8545     6.0000     0.1455     3.7843     3.7812     0.0031
  1 C      6.1705     6.0000    -0.1705     3.8904     3.8565     0.0339
  2 H      0.8997     1.0000     0.1003     0.9765     0.9764     0.0001
  3 C      6.1074     6.0000    -0.1074     3.9082     3.9006     0.0076
  4 H      0.8936     1.0000     0.1064     0.9695     0.9694     0.0000
  5 C      6.1075     6.0000    -0.1075     3.9079     3.9003     0.0076
  6 H      0.8936     1.0000     0.1064     0.9695     0.9694     0.0000
  7 C      6.1707     6.0000    -0.1707     3.8903     3.8564     0.0339
  8 H      0.8997     1.0000     0.1003     0.9765     0.9764     0.0001
  9 C      5.8541     6.0000     0.1459     3.7844     3.7813     0.0031
 10 C      6.2442     6.0000    -0.2442     3.8346     3.5721     0.2625
 11 H      0.9046     1.0000     0.0954     0.9853     0.9845     0.0008
 12 C      6.2440     6.0000    -0.2440     3.8350     3.5725     0.2625
 13 H      0.9046     1.0000     0.0954     0.9853     0.9845     0.0008
 14 C      5.8547     6.0000     0.1453     3.7848     3.7817     0.0031
 15 C      6.1703     6.0000    -0.1703     3.8904     3.8565     0.0339
 16 H      0.8997     1.0000     0.1003     0.9765     0.9764     0.0001
 17 C      6.1077     6.0000    -0.1077     3.9080     3.9004     0.0076
 18 H      0.8937     1.0000     0.1063     0.9695     0.9694     0.0000
 19 C      6.1073     6.0000    -0.1073     3.9076     3.9000     0.0076
 20 H      0.8936     1.0000     0.1064     0.9695     0.9694     0.0000
 21 C      6.1707     6.0000    -0.1707     3.8904     3.8565     0.0339
 22 H      0.8997     1.0000     0.1003     0.9766     0.9764     0.0001
 23 C      5.8540     6.0000     0.1460     3.7840     3.7809     0.0031

  Mayer bond orders larger than 0.100000
B(  0-C ,  1-C ) :   1.3593 B(  0-C ,  9-C ) :   1.1789 B(  0-C , 10-C ) :   1.1654 
B(  1-C ,  2-H ) :   0.9788 B(  1-C ,  3-C ) :   1.2906 B(  3-C ,  4-H ) :   0.9738 
B(  3-C ,  5-C ) :   1.4812 B(  5-C ,  6-H ) :   0.9739 B(  5-C ,  7-C ) :   1.2903 
B(  7-C ,  8-H ) :   0.9790 B(  7-C ,  9-C ) :   1.3593 B(  9-C , 12-C ) :   1.1657 
B( 10-C , 11-H ) :   0.9764 B( 10-C , 23-C ) :   1.1656 B( 12-C , 13-H ) :   0.9762 
B( 12-C , 14-C ) :   1.1657 B( 14-C , 15-C ) :   1.3596 B( 14-C , 23-C ) :   1.1789 
B( 15-C , 16-H ) :   0.9788 B( 15-C , 17-C ) :   1.2903 B( 17-C , 18-H ) :   0.9739 
B( 17-C , 19-C ) :   1.4810 B( 19-C , 20-H ) :   0.9739 B( 19-C , 21-C ) :   1.2903 
B( 21-C , 22-H ) :   0.9791 B( 21-C , 23-C ) :   1.3592 

-------
TIMINGS
-------

Total SCF time: 0 days 0 hours 12 min 28 sec 

Total time                  ....     748.255 sec
Sum of individual times     ....     747.187 sec  ( 99.9%)

Fock matrix formation       ....     733.583 sec  ( 98.0%)
  Split-RI-J                ....      48.014 sec  (  6.5% of F)
  Chain of spheres X        ....     581.593 sec  ( 79.3% of F)
  XC integration            ....     103.233 sec  ( 14.1% of F)
    Basis function eval.    ....      20.587 sec  ( 19.9% of XC)
    Density eval.           ....      40.477 sec  ( 39.2% of XC)
    XC-Functional eval.     ....       3.540 sec  (  3.4% of XC)
    XC-Potential eval.      ....      37.058 sec  ( 35.9% of XC)
Diagonalization             ....       2.548 sec  (  0.3%)
Density matrix formation    ....       0.143 sec  (  0.0%)
Population analysis         ....       0.099 sec  (  0.0%)
Initial guess               ....       2.728 sec  (  0.4%)
Orbital Transformation      ....       0.000 sec  (  0.0%)
Orbital Orthonormalization  ....       0.000 sec  (  0.0%)
DIIS solution               ....       1.011 sec  (  0.1%)
Grid generation             ....       7.075 sec  (  0.9%)

Maximum memory used throughout the entire SCF-calculation: 329.2 MB

-------------------------   --------------------
FINAL SINGLE POINT ENERGY      -539.309757258908
-------------------------   --------------------

   --->>> g-tensor requested, so NeedSOC=true

                            ***************************************
                            *     ORCA property calculations      *
                            ***************************************

                                    ---------------------
                                    Active property flags
                                    ---------------------
   (+) Dipole Moment
   (+) g-tensor
   (+) Spin-Orbit Integrals are needed


------------------------------------------------------------------------------
                       ORCA ELECTRIC PROPERTIES CALCULATION
------------------------------------------------------------------------------

Dipole Moment Calculation                       ... on
Quadrupole Moment Calculation                   ... off
Polarizability Calculation                      ... off
GBWName                                         ... anthracene_opt_orca_dft.gbw
Electron density                                ... anthracene_opt_orca_dft.scfp
The origin for moment calculation is the CENTER OF MASS  = ( 0.000000, -0.000000  0.000007)

-------------
DIPOLE MOMENT
-------------
                                X             Y             Z
Electronic contribution:     -0.00000       0.00000       0.00048
Nuclear contribution   :     -0.00000       0.00000      -0.00066
                        -----------------------------------------
Total Dipole Moment    :     -0.00000       0.00000      -0.00018
                        -----------------------------------------
Magnitude (a.u.)       :      0.00018
Magnitude (Debye)      :      0.00046



--------------------
Rotational spectrum 
--------------------
 
Rotational constants in cm-1:     0.073233     0.014916     0.012392 
Rotational constants in MHz :  2195.476165   447.165288   371.499786 

 Dipole components along the rotational axes: 
x,y,z [a.u.] :    -0.000001    -0.000001    -0.000182 
x,y,z [Debye]:    -0.000002    -0.000001    -0.000463 

 
------------------------------------------------------------------------------
                         ORCA SPIN-ORBIT COUPLING CALCULATION
------------------------------------------------------------------------------

GBW file                                    ... anthracene_opt_orca_dft.gbw
Input density                               ... anthracene_opt_orca_dft.scfp
Output integrals                            ... anthracene_opt_orca_dft
Operator type                               ... Mean-field/Effective potential
   One-Electron Terms                       ... 1
   Coulomb Contribution                     ... 2
   Exchange Contribution                    ... 3
   Correlation Contribution                 ... 0
   Maximum number of centers                ... 4
Setting up the integration grid             ... done
Evaluating density on the grid              ... (NumEl=   94.000042) done
Evaluating Coulomb term semi-analytically   ... done
SHARK 2-electron DoJ,X=0,1 MaxCenter=1      ... done (  6.9 sec)
Evaluating the spin-orbit operator          ... done

Maximum memory used throughout the entire SOC-calculation: 411.6 MB
Total time for SOC: 251.998
------------------------------------------------------------------------------
                                ORCA EPR/NMR CALCULATION
------------------------------------------------------------------------------

GBWName                      ... anthracene_opt_orca_dft.gbw
Electron density             ... anthracene_opt_orca_dft.scfp
Spin density                 ... anthracene_opt_orca_dft.scfr
Spin-orbit integrals         ... anthracene_opt_orca_dft
Origin for angular momentum  ... Center of electronic charge
Coordinates of the origin    ...    0.00000001   -0.00000001    0.00000194 (bohrs)
Details of the CP(SCF) procedure:
       Solver   = POPLE   
       MaxIter  =   300   
       Tolerance=    1.000e-08
       COSX Grid=     1   
       Op-0     =   0- 47 =>  48-493
       Op-1     =   0- 45 =>  46-493
Multiplicity                 ... 3
g-tensor                     ... 1
NMR chemical shifts          ... 0
NMR spin-spin couplings      ... 0
NMR spectrum                 ... 0
Forming RHS of the CP-SCF equations         ... 
Calc. angular momentum integrals (SHARK)    ... done

------------------------------------------------------------------------------
                           ORCA CP-SCF CALCULATION
------------------------------------------------------------------------------

Input orbitals are from        ... anthracene_opt_orca_dft.gbw
Input Perturbation             ... anthracene_opt_orca_dft.pin.tmp
Wavefunction output            ... anthracene_opt_orca_dft.pout.tmp
Perturbation mode              ... Imaginary perturbation
Solver                         ... POPLE
Max. number of iterations      ... 300
Convergence tolerance          ... 1.000e-08
Integral handling              ... Direct
DFT GridXC                     ... 1
COSX GridX                     ... 1
COSX IntAccX                   ... 3.067
COSX Algorithm                 ... Auto
Number of perturbations        ... 3
Number of operators            ... 2
Orbital ranges used for CP-SCF:
 Operator 0:  Orbitals   0... 47  to  48...493
 Operator 1:  Orbitals   0... 45  to  46...493
Variables per perturbation     ... 42016
DFT calculation                         ... on
XC functional terms                     ... off
Hybrid DFT                              ... on
   Exchange mixing (SCF)                ...  0.200
   Exchange mixing (CP-SCF)             ...  0.200
   GGA exch. scaling(SCF)               ...  0.720
   GGA exch. scaling (CP-SCF)           ...  0.720
   GGA corr. scaling (SCF)              ...  0.810
   GGA corr. scaling (CP-SCF)           ...  0.810

CP-SCF GRID
-----------

General Integration Accuracy     IntAcc      ... 3.467
Radial Grid Type                 RadialGrid  ... OptM3 with GC (2021)
Angular Grid (max. ang.)         AngularGrid ... 1 (Lebedev-50)
Angular grid pruning method      GridPruning ... 4 (adaptive)
Weight generation scheme         WeightScheme... Becke
Basis function cutoff            BFCut       ... 1.0000e-10
Integration weight cutoff        WCut        ... 1.0000e-14
Angular grids for H and He will be reduced by one unit
Partially contracted basis set               ... off
Rotationally invariant grid construction     ... off

Total number of grid points                  ...    17052
Total number of batches                      ...      276
Average number of points per batch           ...       61
Average number of grid points per atom       ...      710

CP-SCF GRIDX
------------

General Integration Accuracy     IntAcc      ... 3.067
Radial Grid Type                 RadialGrid  ... OptM3 with GC (2021)
Angular Grid (max. ang.)         AngularGrid ... 1 (Lebedev-50)
Angular grid pruning method      GridPruning ... 4 (adaptive)
Weight generation scheme         WeightScheme... Becke
Basis function cutoff            BFCut       ... 1.0000e-10
Integration weight cutoff        WCut        ... 1.0000e-14
Angular grids for H and He will be reduced by one unit
Partially contracted basis set               ... on
Rotationally invariant grid construction     ... off

Total number of grid points                  ...     7800
Total number of batches                      ...      136
Average number of points per batch           ...       57
Average number of grid points per atom       ...      325

Memory available               ... 546.5 MB
Memory needed per perturbation ...  10.4 MB
Perturbations treated per batch... 3
Number of batches              ... 1
     CP-SCF ITERATION   0:   4.3386e+00 (  15.5 sec   0/  3 done)
     CP-SCF ITERATION   1:   1.7410e-01 (  15.1 sec   0/  3 done)
     CP-SCF ITERATION   2:   1.3453e-02 (  14.8 sec   0/  3 done)
     CP-SCF ITERATION   3:   9.4728e-04 (  14.9 sec   0/  3 done)
     CP-SCF ITERATION   4:   1.2155e-04 (  14.9 sec   0/  3 done)
     CP-SCF ITERATION   5:   1.1375e-05 (  14.9 sec   0/  3 done)
     CP-SCF ITERATION   6:   5.9319e-07 (  15.2 sec   0/  3 done)
     CP-SCF ITERATION   7:   3.8411e-08 (  15.1 sec   2/  3 done)
     CP-SCF ITERATION   8:   2.5224e-09 (  10.5 sec   3/  3 done)
                    *** THE CP-SCF HAS CONVERGED ***

Forming final perturbed densities           ... done
Transforming perturbed density to AO basis  ... done

Magnetic field perturbation calculated in 131.946 sec
Diamagnetic terms                           (SHARK) ...ORIGIN=  0.000000 -0.000000  0.000002
done
terms done

-------------------
ELECTRONIC G-MATRIX
-------------------

 The g-matrix: 
              2.0030019    0.0000000   -0.0000000
              0.0000002    2.0028992    0.0000000
             -0.0000001   -0.0000002    2.0022842

 gel          2.0023193    2.0023193    2.0023193
 gRMC        -0.0001463   -0.0001463   -0.0001463
 gDSO(tot)    0.0001308    0.0001415    0.0001373
 gPSO(tot)   -0.0000195    0.0005848    0.0006917
             ----------   ----------   ----------
 g(tot)       2.0022842    2.0028992    2.0030019 iso=  2.0027284
 Delta-g     -0.0000351    0.0005799    0.0006827 iso=  0.0004092
 Orientation: 
  X           0.0000678   -0.0010575   -0.9999994
  Y           0.0001810    0.9999994   -0.0010575
  Z           1.0000000   -0.0001809    0.0000680

Notes:  (1) The g-matrix conforms to the "BgS" spin Hamiltonian convention. 
        (2) The principal values are square roots of the eigenvalues of g*gT.
        (3) Orientations are eigenvectors of g*gT written as column vectors.
        (4) Individual contributions are projections of the full matrices onto the eigenvectors of g*gT.
        (5) Tensor is right-handed.


Maximum memory used throughout the entire EPRNMR-calculation: 526.5 MB

Timings for individual modules:

Sum of individual times         ...     1135.284 sec (=  18.921 min)
GTO integral calculation        ...        2.068 sec (=   0.034 min)   0.2 %
Spin-Orbit-Coupling Matrices    ...      251.994 sec (=   4.200 min)  22.2 %
SCF iterations                  ...      748.331 sec (=  12.472 min)  65.9 %
EPR/NMR calculation             ...      132.891 sec (=   2.215 min)  11.7 %
                             ****ORCA TERMINATED NORMALLY****
TOTAL RUN TIME: 0 days 0 hours 18 minutes 56 seconds 489 msec
