
                                 *****************
                                 * O   R   C   A *
                                 *****************

                                            #,                                       
                                            ###                                      
                                            ####                                     
                                            #####                                    
                                            ######                                   
                                           ########,                                 
                                     ,,################,,,,,                         
                               ,,#################################,,                 
                          ,,##########################################,,             
                       ,#########################################, ''#####,          
                    ,#############################################,,   '####,        
                  ,##################################################,,,,####,       
                ,###########''''           ''''###############################       
              ,#####''   ,,,,##########,,,,          '''####'''          '####       
            ,##' ,,,,###########################,,,                        '##       
           ' ,,###''''                  '''############,,,                           
         ,,##''                                '''############,,,,        ,,,,,,###''
      ,#''                                            '''#######################'''  
     '                                                          ''''####''''         
             ,#######,   #######,   ,#######,      ##                                
            ,#'     '#,  ##    ##  ,#'     '#,    #''#        ######   ,####,        
            ##       ##  ##   ,#'  ##            #'  '#       #        #'  '#        
            ##       ##  #######   ##           ,######,      #####,   #    #        
            '#,     ,#'  ##    ##  '#,     ,#' ,#      #,         ##   #,  ,#        
             '#######'   ##     ##  '#######'  #'      '#     #####' # '####'        



                  #######################################################
                  #                        -***-                        #
                  #          Department of theory and spectroscopy      #
                  #    Directorship and core code : Frank Neese         #
                  #        Max Planck Institute fuer Kohlenforschung    #
                  #                Kaiser Wilhelm Platz 1               #
                  #                 D-45470 Muelheim/Ruhr               #
                  #                      Germany                        #
                  #                                                     #
                  #                  All rights reserved                #
                  #                        -***-                        #
                  #######################################################


                         Program Version 5.0.3 -  RELEASE  -


 With contributions from (in alphabetic order):
   Daniel Aravena         : Magnetic Suceptibility
   Michael Atanasov       : Ab Initio Ligand Field Theory (pilot matlab implementation)
   Alexander A. Auer      : GIAO ZORA, VPT2 properties, NMR spectrum
   Ute Becker             : Parallelization
   Giovanni Bistoni       : ED, misc. LED, open-shell LED, HFLD
   Martin Brehm           : Molecular dynamics
   Dmytro Bykov           : SCF Hessian
   Vijay G. Chilkuri      : MRCI spin determinant printing, contributions to CSF-ICE
   Dipayan Datta          : RHF DLPNO-CCSD density
   Achintya Kumar Dutta   : EOM-CC, STEOM-CC
   Dmitry Ganyushin       : Spin-Orbit,Spin-Spin,Magnetic field MRCI
   Miquel Garcia          : C-PCM and meta-GGA Hessian, CC/C-PCM, Gaussian charge scheme
   Yang Guo               : DLPNO-NEVPT2, F12-NEVPT2, CIM, IAO-localization
   Andreas Hansen         : Spin unrestricted coupled pair/coupled cluster methods
   Benjamin Helmich-Paris : MC-RPA, TRAH-SCF, COSX integrals
   Lee Huntington         : MR-EOM, pCC
   Robert Izsak           : Overlap fitted RIJCOSX, COSX-SCS-MP3, EOM
   Marcus Kettner         : VPT2
   Christian Kollmar      : KDIIS, OOCD, Brueckner-CCSD(T), CCSD density, CASPT2, CASPT2-K
   Simone Kossmann        : Meta GGA functionals, TD-DFT gradient, OOMP2, MP2 Hessian
   Martin Krupicka        : Initial AUTO-CI
   Lucas Lang             : DCDCAS
   Marvin Lechner         : AUTO-CI (C++ implementation), FIC-MRCC
   Dagmar Lenk            : GEPOL surface, SMD
   Dimitrios Liakos       : Extrapolation schemes; Compound Job, initial MDCI parallelization
   Dimitrios Manganas     : Further ROCIS development; embedding schemes
   Dimitrios Pantazis     : SARC Basis sets
   Anastasios Papadopoulos: AUTO-CI, single reference methods and gradients
   Taras Petrenko         : DFT Hessian,TD-DFT gradient, ASA, ECA, R-Raman, ABS, FL, XAS/XES, NRVS
   Peter Pinski           : DLPNO-MP2, DLPNO-MP2 Gradient
   Christoph Reimann      : Effective Core Potentials
   Marius Retegan         : Local ZFS, SOC
   Christoph Riplinger    : Optimizer, TS searches, QM/MM, DLPNO-CCSD(T), (RO)-DLPNO pert. Triples
   Tobias Risthaus        : Range-separated hybrids, TD-DFT gradient, RPA, STAB
   Michael Roemelt        : Original ROCIS implementation
   Masaaki Saitow         : Open-shell DLPNO-CCSD energy and density
   Barbara Sandhoefer     : DKH picture change effects
   Avijit Sen             : IP-ROCIS
   Kantharuban Sivalingam : CASSCF convergence, NEVPT2, FIC-MRCI
   Bernardo de Souza      : ESD, SOC TD-DFT
   Georgi Stoychev        : AutoAux, RI-MP2 NMR, DLPNO-MP2 response
   Willem Van den Heuvel  : Paramagnetic NMR
   Boris Wezisla          : Elementary symmetry handling
   Frank Wennmohs         : Technical directorship


 We gratefully acknowledge several colleagues who have allowed us to
 interface, adapt or use parts of their codes:
   Stefan Grimme, W. Hujo, H. Kruse, P. Pracht,  : VdW corrections, initial TS optimization,
                  C. Bannwarth, S. Ehlert          DFT functionals, gCP, sTDA/sTD-DF
   Ed Valeev, F. Pavosevic, A. Kumar             : LibInt (2-el integral package), F12 methods
   Garnet Chan, S. Sharma, J. Yang, R. Olivares  : DMRG
   Ulf Ekstrom                                   : XCFun DFT Library
   Mihaly Kallay                                 : mrcc  (arbitrary order and MRCC methods)
   Jiri Pittner, Ondrej Demel                    : Mk-CCSD
   Frank Weinhold                                : gennbo (NPA and NBO analysis)
   Christopher J. Cramer and Donald G. Truhlar   : smd solvation model
   Lars Goerigk                                  : TD-DFT with DH, B97 family of functionals
   V. Asgeirsson, H. Jonsson                     : NEB implementation
   FAccTs GmbH                                   : IRC, NEB, NEB-TS, DLPNO-Multilevel, CI-OPT
                                                   MM, QMMM, 2- and 3-layer-ONIOM, Crystal-QMMM,
                                                   LR-CPCM, SF, NACMEs, symmetry and pop. for TD-DFT,
                                                   nearIR, NL-DFT gradient (VV10), updates on ESD,
                                                   ML-optimized integration grids
   S Lehtola, MJT Oliveira, MAL Marques          : LibXC Library
   Liviu Ungur et al                             : ANISO software


 Your calculation uses the libint2 library for the computation of 2-el integrals
 For citations please refer to: http://libint.valeyev.net

 Your ORCA version has been built with support for libXC version: 5.1.0
 For citations please refer to: https://tddft.org/programs/libxc/

 This ORCA versions uses:
   CBLAS   interface :  Fast vector & matrix operations
   LAPACKE interface :  Fast linear algebra routines
   SCALAPACK package :  Parallel linear algebra routines
   Shared memory     :  Shared parallel matrices
   BLAS/LAPACK       :  OpenBLAS 0.3.15  USE64BITINT DYNAMIC_ARCH NO_AFFINITY Haswell SINGLE_THREADED
        Core in use  :  Haswell
   Copyright (c) 2011-2014, The OpenBLAS Project




***************************************
The coordinates will be read from file: benzoquinone.xyz
***************************************


================================================================================

----- Orbital basis set information -----
Your calculation utilizes the basis: def2-TZVP
   F. Weigend and R. Ahlrichs, Phys. Chem. Chem. Phys. 7, 3297 (2005).

----- AuxJ basis set information -----
Your calculation utilizes the auxiliary basis: def2/J
   F. Weigend, Phys. Chem. Chem. Phys. 8, 1057 (2006).

================================================================================
                                        WARNINGS
                       Please study these warnings very carefully!
================================================================================


WARNING: your system is open-shell and RHF/RKS was chosen
  ===> : WILL SWITCH to UHF/UKS


INFO   : the flag for use of the SHARK integral package has been found!

================================================================================
                                       INPUT FILE
================================================================================
NAME = benzoquinone_orca_dft.inp
|  1> # List of keywords
|  2> !B3LYP def2-TZVP SOMF(1X) SMALLPRINT #DKH
|  3> 
|  4> %METHOD 			# DFT input block
|  5> END	
|  6> 
|  7> %SCF                            # Control of the SCF procedure
|  8>  maxiter 500                    # max. number of SCF iterations
|  9>  TolE 1e-8                      # energy change between two cycles
| 10>  TolErr 5e-7                    # DIIS error convergence
| 11>  ConvForced 1                   # 0: converg. not mandatory; 1: break if not meet convergence
| 12> END
| 13> 
| 14> %EPRNMR 			# Control of EPR and NMR calculations
| 15>  gtensor 1			# Calculate the g-tensor 
| 16>  maxiter 300			# max. number of iterations
| 17>  Tol 1e-8			# g-tensor convergence
| 18>  ori CenterOfElCharge		# origin for magnetic properties
| 19>  printlevel 2			# detailed information
| 20> END
| 21> 
| 22> * XYZFILE 0 3 benzoquinone.xyz 		# Coordinates
| 23> 
| 24> 
| 25>                          ****END OF INPUT****
================================================================================

                       ****************************
                       * Single Point Calculation *
                       ****************************

---------------------------------
CARTESIAN COORDINATES (ANGSTROEM)
---------------------------------
  O      0.000000    0.000000   -5.088586
  C      0.000000    0.000000   -2.641561
  C      0.000000   -2.345355   -1.303375
  C      0.000000    2.345355   -1.303375
  C      0.000000    2.330949    1.265382
  C      0.000000   -2.330949    1.265382
  C      0.000000    0.000000    2.740263
  O      0.000000    0.000000    5.080329
  H      0.000000   -4.081832   -2.381559
  H      0.000000    4.081832   -2.381559
  H      0.000000   -4.090098    2.311747
  H      0.000000    4.090098    2.311747

----------------------------
CARTESIAN COORDINATES (A.U.)
----------------------------
  NO LB      ZA    FRAG     MASS         X           Y           Z
   0 O     8.0000    0    15.999    0.000000    0.000000   -9.616033
   1 C     6.0000    0    12.011    0.000000    0.000000   -4.991827
   2 C     6.0000    0    12.011    0.000000   -4.432078   -2.463022
   3 C     6.0000    0    12.011    0.000000    4.432078   -2.463022
   4 C     6.0000    0    12.011    0.000000    4.404856    2.391226
   5 C     6.0000    0    12.011    0.000000   -4.404856    2.391226
   6 C     6.0000    0    12.011    0.000000    0.000000    5.178347
   7 O     8.0000    0    15.999    0.000000    0.000000    9.600430
   8 H     1.0000    0     1.008    0.000000   -7.713545   -4.500494
   9 H     1.0000    0     1.008    0.000000    7.713545   -4.500494
  10 H     1.0000    0     1.008    0.000000   -7.729165    4.368569
  11 H     1.0000    0     1.008    0.000000    7.729165    4.368569

--------------------------------
INTERNAL COORDINATES (ANGSTROEM)
--------------------------------
 O      0   0   0     0.000000000000     0.00000000     0.00000000
 C      1   0   0     2.447024292033     0.00000000     0.00000000
 C      2   1   0     2.700265079047   119.70772574     0.00000000
 C      2   1   3     2.700265079047   119.70772574   180.00000000
 C      4   2   1     2.568797794817   119.38641027   180.00000000
 C      3   2   1     2.568797794817   119.38641027   180.00000000
 C      5   4   2     2.758368669276   122.64442198     0.00000000
 O      7   5   4     2.340065924953   122.32310652   180.00000085
 H      3   2   1     2.043974806657   118.45601314     0.00000000
 H      4   2   1     2.043974806657   118.45601314     0.00000000
 H      6   3   2     2.046822633772   120.42342484   180.00000000
 H      5   4   2     2.046822633772   120.42342484   180.00000000

---------------------------
INTERNAL COORDINATES (A.U.)
---------------------------
 O      0   0   0     0.000000000000     0.00000000     0.00000000
 C      1   0   0     4.624205754994     0.00000000     0.00000000
 C      2   1   0     5.102761488390   119.70772574     0.00000000
 C      2   1   3     5.102761488390   119.70772574   180.00000000
 C      4   2   1     4.854324325625   119.38641027   180.00000000
 C      3   2   1     4.854324325625   119.38641027   180.00000000
 C      5   4   2     5.212561361320   122.64442198     0.00000000
 O      7   5   4     4.422083733483   122.32310652   180.00000085
 H      3   2   1     3.862552609217   118.45601314     0.00000000
 H      4   2   1     3.862552609217   118.45601314     0.00000000
 H      6   3   2     3.867934222540   120.42342484   180.00000000
 H      5   4   2     3.867934222540   120.42342484   180.00000000

---------------------
BASIS SET INFORMATION
---------------------
There are 3 groups of distinct atoms

 Group   1 Type O   : 11s6p2d1f contracted to 5s3p2d1f pattern {62111/411/11/1}
 Group   2 Type C   : 11s6p2d1f contracted to 5s3p2d1f pattern {62111/411/11/1}
 Group   3 Type H   : 5s1p contracted to 3s1p pattern {311/1}

Atom   0O    basis set group =>   1
Atom   1C    basis set group =>   2
Atom   2C    basis set group =>   2
Atom   3C    basis set group =>   2
Atom   4C    basis set group =>   2
Atom   5C    basis set group =>   2
Atom   6C    basis set group =>   2
Atom   7O    basis set group =>   1
Atom   8H    basis set group =>   3
Atom   9H    basis set group =>   3
Atom  10H    basis set group =>   3
Atom  11H    basis set group =>   3
---------------------------------
AUXILIARY/J BASIS SET INFORMATION
---------------------------------
There are 3 groups of distinct atoms

 Group   1 Type O   : 12s5p4d2f1g contracted to 6s4p3d1f1g pattern {711111/2111/211/2/1}
 Group   2 Type C   : 12s5p4d2f1g contracted to 6s4p3d1f1g pattern {711111/2111/211/2/1}
 Group   3 Type H   : 5s2p1d contracted to 3s1p1d pattern {311/2/1}

Atom   0O    basis set group =>   1
Atom   1C    basis set group =>   2
Atom   2C    basis set group =>   2
Atom   3C    basis set group =>   2
Atom   4C    basis set group =>   2
Atom   5C    basis set group =>   2
Atom   6C    basis set group =>   2
Atom   7O    basis set group =>   1
Atom   8H    basis set group =>   3
Atom   9H    basis set group =>   3
Atom  10H    basis set group =>   3
Atom  11H    basis set group =>   3
------------------------------------------------------------------------------
                           ORCA GTO INTEGRAL CALCULATION
                           -- RI-GTO INTEGRALS CHOSEN --
------------------------------------------------------------------------------
------------------------------------------------------------------------------
                   ___                                                        
                  /   \      - P O W E R E D   B Y -                         
                 /     \                                                     
                 |  |  |   _    _      __       _____    __    __             
                 |  |  |  | |  | |    /  \     |  _  \  |  |  /  |          
                  \  \/   | |  | |   /    \    | | | |  |  | /  /          
                 / \  \   | |__| |  /  /\  \   | |_| |  |  |/  /          
                |  |  |   |  __  | /  /__\  \  |    /   |      \           
                |  |  |   | |  | | |   __   |  |    \   |  |\   \          
                \     /   | |  | | |  |  |  |  | |\  \  |  | \   \       
                 \___/    |_|  |_| |__|  |__|  |_| \__\ |__|  \__/        
                                                                              
                      - O R C A' S   B I G   F R I E N D -                    
                                      &                                       
                       - I N T E G R A L  F E E D E R -                       
                                                                              
 v1 FN, 2020, v2 2021                                                         
------------------------------------------------------------------------------


Reading SHARK input file benzoquinone_orca_dft.SHARKINP.tmp ... ok
----------------------
SHARK INTEGRAL PACKAGE
----------------------

Number of atoms                             ...     12
Number of basis functions                   ...    272
Number of shells                            ...    104
Maximum angular momentum                    ...      3
Integral batch strategy                     ... SHARK/LIBINT Hybrid
RI-J (if used) integral strategy            ... SPLIT-RIJ (Revised 2003 algorithm where possible)
Printlevel                                  ...      1
Contraction scheme used                     ... SEGMENTED contraction
Coulomb Range Separation                    ... NOT USED
Exchange Range Separation                   ... NOT USED
Finite Nucleus Model                        ... NOT USED
Auxiliary Coulomb fitting basis             ... AVAILABLE
   # of basis functions in Aux-J            ...    436
   # of shells in Aux-J                     ...    140
   Maximum angular momentum in Aux-J        ...      4
Auxiliary J/K fitting basis                 ... NOT available
Auxiliary Correlation fitting basis         ... NOT available
Auxiliary 'external' fitting basis          ... NOT available
Integral threshold                          ...     1.000000e-10
Primitive cut-off                           ...     1.000000e-11
Primitive pair pre-selection threshold      ...     1.000000e-11

Calculating pre-screening integrals         ... done (  0.1 sec) Dimension = 104
Organizing shell pair data                  ... done (  0.0 sec)
Shell pair information
Total number of shell pairs                 ...      5460
Shell pairs after pre-screening             ...      3698
Total number of primitive shell pairs       ...     17208
Primitive shell pairs kept                  ...      8063
          la=0 lb=0:    888 shell pairs
          la=1 lb=0:   1028 shell pairs
          la=1 lb=1:    312 shell pairs
          la=2 lb=0:    542 shell pairs
          la=2 lb=1:    320 shell pairs
          la=2 lb=2:     95 shell pairs
          la=3 lb=0:    254 shell pairs
          la=3 lb=1:    159 shell pairs
          la=3 lb=2:     78 shell pairs
          la=3 lb=3:     22 shell pairs

Calculating one electron integrals          ... done (  0.0 sec)
Calculating RI/J V-Matrix + Cholesky decomp.... done (  0.0 sec)
Calculating Nuclear repulsion               ... done (  0.0 sec) ENN=    170.949674607735 Eh

SHARK setup successfully completed in   1.4 seconds

Maximum memory used throughout the entire GTOINT-calculation: 58.0 MB
-------------------------------------------------------------------------------
                                 ORCA SCF
-------------------------------------------------------------------------------

------------
SCF SETTINGS
------------
Hamiltonian:
 Density Functional     Method          .... DFT(GTOs)
 Exchange Functional    Exchange        .... B88
   X-Alpha parameter    XAlpha          ....  0.666667
   Becke's b parameter  XBeta           ....  0.004200
 Correlation Functional Correlation     .... LYP
 LDA part of GGA corr.  LDAOpt          .... VWN-5
 Gradients option       PostSCFGGA      .... off
 Hybrid DFT is turned on
   Fraction HF Exchange ScalHFX         ....  0.200000
   Scaling of DF-GGA-X  ScalDFX         ....  0.720000
   Scaling of DF-GGA-C  ScalDFC         ....  0.810000
   Scaling of DF-LDA-C  ScalLDAC        ....  1.000000
   Perturbative correction              ....  0.000000
   Density functional embedding theory  .... OFF
   NL short-range parameter             ....  4.800000
 RI-approximation to the Coulomb term is turned on
   Number of AuxJ basis functions       .... 436
   RIJ-COSX (HFX calculated with COS-X)).... on


General Settings:
 Integral files         IntName         .... benzoquinone_orca_dft
 Hartree-Fock type      HFTyp           .... UHF
 Total Charge           Charge          ....    0
 Multiplicity           Mult            ....    3
 Number of Electrons    NEL             ....   56
 Basis Dimension        Dim             ....  272
 Nuclear Repulsion      ENuc            ....    170.9496746077 Eh

Convergence Acceleration:
 DIIS                   CNVDIIS         .... on
   Start iteration      DIISMaxIt       ....    12
   Startup error        DIISStart       ....  0.200000
   # of expansion vecs  DIISMaxEq       ....     5
   Bias factor          DIISBfac        ....   1.050
   Max. coefficient     DIISMaxC        ....  10.000
 Trust-Rad. Augm. Hess. CNVTRAH         .... auto
   Auto Start mean grad. ratio tolernc. ....  1.125000
   Auto Start start iteration           ....    20
   Auto Start num. interpolation iter.  ....    10
   Max. Number of Micro iterations      ....    16
   Max. Number of Macro iterations      .... Maxiter - #DIIS iter
   Number of Davidson start vectors     ....     2
   Converg. threshold I  (grad. norm)   ....   5.000e-05
   Converg. threshold II (energy diff.) ....   1.000e-08
   Grad. Scal. Fac. for Micro threshold ....   0.100
   Minimum threshold for Micro iter.    ....   0.010
   NR start threshold (gradient norm)   ....   0.001
   Initial trust radius                 ....   0.400
   Minimum AH scaling param. (alpha)    ....   1.000
   Maximum AH scaling param. (alpha)    .... 1000.000
   Orbital update algorithm             .... Taylor
   White noise on init. David. guess    .... on
   Maximum white noise                  ....   0.010
   Quad. conv. algorithm                .... NR
 SOSCF                  CNVSOSCF        .... off
 Level Shifting         CNVShift        .... on
   Level shift para.    LevelShift      ....    0.2500
   Turn off err/grad.   ShiftErr        ....    0.0010
 Zerner damping         CNVZerner       .... off
 Static damping         CNVDamp         .... on
   Fraction old density DampFac         ....    0.7000
   Max. Damping (<1)    DampMax         ....    0.9800
   Min. Damping (>=0)   DampMin         ....    0.0000
   Turn off err/grad.   DampErr         ....    0.1000
 Fernandez-Rico         CNVRico         .... off

SCF Procedure:
 Maximum # iterations   MaxIter         ....   500
 SCF integral mode      SCFMode         .... Direct
   Integral package                     .... SHARK and LIBINT hybrid scheme
 Reset frequency        DirectResetFreq ....    20
 Integral Threshold     Thresh          ....  1.000e-10 Eh
 Primitive CutOff       TCut            ....  1.000e-11 Eh

Convergence Tolerance:
 Convergence Check Mode ConvCheckMode   .... Total+1el-Energy
 Convergence forced     ConvForced      .... 1
 Energy Change          TolE            ....  1.000e-08 Eh
 1-El. energy change                    ....  1.000e-05 Eh
 DIIS Error             TolErr          ....  5.000e-07


Diagonalization of the overlap matrix:
Smallest eigenvalue                        ... 5.156e-03
Time for diagonalization                   ...    0.033 sec
Threshold for overlap eigenvalues          ... 1.000e-08
Number of eigenvalues below threshold      ... 0
Time for construction of square roots      ...    0.020 sec
Total time needed                          ...    0.053 sec

Time for model grid setup =    0.225 sec

------------------------------
INITIAL GUESS: MODEL POTENTIAL
------------------------------
Loading Hartree-Fock densities                     ... done
Calculating cut-offs                               ... done
Initializing the effective Hamiltonian             ... done
Setting up the integral package (SHARK)            ... done
Starting the Coulomb interaction                   ... done (   0.2 sec)
Reading the grid                                   ... done
Mapping shells                                     ... done
Starting the XC term evaluation                    ... done (   0.2 sec)
  promolecular density results
     # of electrons  =     55.998320435
     EX              =    -46.985953047
     EC              =     -1.726437890
     EX+EC           =    -48.712390937
Transforming the Hamiltonian                       ... done (   0.0 sec)
Diagonalizing the Hamiltonian                      ... done (   0.0 sec)
Back transforming the eigenvectors                 ... done (   0.0 sec)
Now organizing SCF variables                       ... done
                      ------------------
                      INITIAL GUESS DONE (   0.7 sec)
                      ------------------
-------------------
DFT GRID GENERATION
-------------------

General Integration Accuracy     IntAcc      ... 4.388
Radial Grid Type                 RadialGrid  ... OptM3 with GC (2021)
Angular Grid (max. ang.)         AngularGrid ... 4 (Lebedev-302)
Angular grid pruning method      GridPruning ... 4 (adaptive)
Weight generation scheme         WeightScheme... Becke
Basis function cutoff            BFCut       ... 1.0000e-10
Integration weight cutoff        WCut        ... 1.0000e-14
Angular grids for H and He will be reduced by one unit
Partially contracted basis set               ... off
Rotationally invariant grid construction     ... off

Total number of grid points                  ...    62308
Total number of batches                      ...      982
Average number of points per batch           ...       63
Average number of grid points per atom       ...     5192
Time for grid setup =    0.788 sec

--------------------
COSX GRID GENERATION
--------------------

GRIDX 1
-------
General Integration Accuracy     IntAcc      ... 3.816
Radial Grid Type                 RadialGrid  ... OptM3 with GC (2021)
Angular Grid (max. ang.)         AngularGrid ... 1 (Lebedev-50)
Angular grid pruning method      GridPruning ... 4 (adaptive)
Weight generation scheme         WeightScheme... Becke
Basis function cutoff            BFCut       ... 1.0000e-10
Integration weight cutoff        WCut        ... 1.0000e-14
Angular grids for H and He will be reduced by one unit
Partially contracted basis set               ... on
Rotationally invariant grid construction     ... off

Total number of grid points                  ...     7924
Total number of batches                      ...      130
Average number of points per batch           ...       60
Average number of grid points per atom       ...      660
UseSFitting                                  ... on

GRIDX 2
-------
General Integration Accuracy     IntAcc      ... 4.020
Radial Grid Type                 RadialGrid  ... OptM3 with GC (2021)
Angular Grid (max. ang.)         AngularGrid ... 2 (Lebedev-110)
Angular grid pruning method      GridPruning ... 4 (adaptive)
Weight generation scheme         WeightScheme... Becke
Basis function cutoff            BFCut       ... 1.0000e-10
Integration weight cutoff        WCut        ... 1.0000e-14
Angular grids for H and He will be reduced by one unit
Partially contracted basis set               ... on
Rotationally invariant grid construction     ... off

Total number of grid points                  ...    18124
Total number of batches                      ...      290
Average number of points per batch           ...       62
Average number of grid points per atom       ...     1510
UseSFitting                                  ... on

GRIDX 3
-------
General Integration Accuracy     IntAcc      ... 4.338
Radial Grid Type                 RadialGrid  ... OptM3 with GC (2021)
Angular Grid (max. ang.)         AngularGrid ... 3 (Lebedev-194)
Angular grid pruning method      GridPruning ... 4 (adaptive)
Weight generation scheme         WeightScheme... Becke
Basis function cutoff            BFCut       ... 1.0000e-10
Integration weight cutoff        WCut        ... 1.0000e-14
Angular grids for H and He will be reduced by one unit
Partially contracted basis set               ... on
Rotationally invariant grid construction     ... off

Total number of grid points                  ...    40107
Total number of batches                      ...      632
Average number of points per batch           ...       63
Average number of grid points per atom       ...     3342
UseSFitting                                  ... on

Time for X-Grid setup             =    1.009 sec

--------------
SCF ITERATIONS
--------------
ITER       Energy         Delta-E        Max-DP      RMS-DP      [F,P]     Damp
               ***  Starting incremental Fock matrix formation  ***
  0   -376.9652927280   0.000000000000 0.10736355  0.00209086  0.3540079 0.7000
  1   -377.4685290556  -0.503236327556 0.03975789  0.00078559  0.1025213 0.7000
                               ***Turning on DIIS***
  2   -378.1783876531  -0.709858597550 0.08339113  0.00143998  0.0807209 0.0000
  3   -377.7455964428   0.432791210347 0.00524401  0.00011511  0.3160207 0.7000
  4   -377.7908051192  -0.045208676485 0.00708912  0.00014166  0.3098933 0.7000
  5   -377.8411127252  -0.050307605979 0.00656720  0.00012963  0.3026715 0.7000
  6   -377.8852431344  -0.044130409144 0.00478080  0.00009993  0.2961505 0.7000
  7   -377.9194659685  -0.034222834101 0.10187765  0.00182082  0.2915646 0.7000
  8   -378.0231159984  -0.103650029907 0.04661389  0.00099108  0.1639075 0.7000
  9   -376.6393813038   1.383734694581 0.03251716  0.00061744  0.3636260 0.7000
 10   -375.7202796829   0.919101620858 0.02268518  0.00043702  0.4750713 0.7000
 11   -375.5919099284   0.128369754523 0.01925096  0.00039177  0.5721384 0.7000
 12   -375.9421703778  -0.350260449355 0.04563855  0.00060273  0.6153007 0.7000
 13   -376.5286709071  -0.586500529355 0.09669195  0.00110107  0.5893069 0.7000
 14   -378.2323388691  -1.703667961997 0.05510572  0.00077577  0.1841099 0.7000
 15   -378.6056459402  -0.373307071054 0.02699953  0.00053304  0.1677543 0.7000
 16   -378.6100307850  -0.004384844810 0.02557722  0.00044776  0.1658943 0.7000
 17   -378.6683805848  -0.058349799830 0.01979344  0.00036658  0.1769298 0.7000
 18   -378.7260737924  -0.057693207619 0.01411508  0.00026221  0.1886391 0.7000
 19   -378.7632866918  -0.037212899372 0.01665424  0.00026772  0.1870352 0.7000
               *** Restarting incremental Fock matrix formation ***
                                   *** Resetting DIIS ***
 20   -378.8307814808  -0.067494789002 0.07208378  0.00107921  0.1657164 0.7000
 21   -378.6791015224   0.151679958370 0.04739321  0.00067564  0.1036557 0.7000

 WARNING: the maximum gradient error descreased on average only by a factor   1.1
          during the last 20 iterations

                      *** Initiating the TRAH-SCF procedure ***


TRAH GRIDX
----------

General Integration Accuracy     IntAcc      ... 3.067
Radial Grid Type                 RadialGrid  ... OptM3 with GC (2021)
Angular Grid (max. ang.)         AngularGrid ... 1 (Lebedev-50)
Angular grid pruning method      GridPruning ... 4 (adaptive)
Weight generation scheme         WeightScheme... Becke
Basis function cutoff            BFCut       ... 1.0000e-10
Integration weight cutoff        WCut        ... 1.0000e-14
Angular grids for H and He will be reduced by one unit
Partially contracted basis set               ... on
Rotationally invariant grid construction     ... off

Total number of grid points                  ...     4227
Total number of batches                      ...       72
Average number of points per batch           ...       58
Average number of grid points per atom       ...      352


TRAH GRID
---------

General Integration Accuracy     IntAcc      ... 3.467
Radial Grid Type                 RadialGrid  ... OptM3 with GC (2021)
Angular Grid (max. ang.)         AngularGrid ... 1 (Lebedev-50)
Angular grid pruning method      GridPruning ... 4 (adaptive)
Weight generation scheme         WeightScheme... Becke
Basis function cutoff            BFCut       ... 1.0000e-10
Integration weight cutoff        WCut        ... 1.0000e-14
Angular grids for H and He will be reduced by one unit
Partially contracted basis set               ... off
Rotationally invariant grid construction     ... off

Total number of grid points                  ...     9398
Total number of batches                      ...      154
Average number of points per batch           ...       61
Average number of grid points per atom       ...      783

 --------------------------------------------------------------------------------------------
   Iter.        energy            ||Error||_2        Shift      TRadius  Mac/Mic        Rej.
 --------------------------------------------------------------------------------------------
WARNING: 939 diagonal Hessian elements are negative!
    0       -372.231126135376     2.275699e+00                     0.400 (TRAH MAcro)   No
WARNING : negative HOMO - LUMO gap : (op = alpha) -3.505455
WARNING : negative HOMO - LUMO gap : (op =  beta) -3.543274
    0     dE    -1.659221e+00     1.712129e+00    -4.6809e+00      0.400 (TRAH MIcro)
    0     dE    -1.655471e+00     5.868540e-01    -6.6928e+00      0.364 (TRAH MIcro)
    0     dE    -1.665097e+00     3.792021e-01    -6.7146e+00      0.365 (TRAH MIcro)
    0     dE    -1.666929e+00     8.255128e-02    -6.7310e+00      0.364 (TRAH MIcro)
    0     dE    -1.662977e+00     1.632705e-02    -6.7333e+00      0.364 (TRAH MIcro)
    0     dE    -1.662127e+00     5.386931e-03    -6.7334e+00      0.363 (TRAH MIcro)
WARNING: 710 diagonal Hessian elements are negative!
    1       -373.843604201743     2.242965e+00                     0.480 (TRAH MAcro)   No
WARNING : negative HOMO - LUMO gap : (op = alpha) -2.975028
WARNING : negative HOMO - LUMO gap : (op =  beta) -3.041050
    1     dE    -2.069457e+00     8.541484e-01    -4.3092e+00      0.480 (TRAH MIcro)
    1     dE    -2.198830e+00     2.154420e-01    -5.1302e+00      0.480 (TRAH MIcro)
    1     dE    -2.204085e+00     1.089942e-01    -5.1618e+00      0.480 (TRAH MIcro)
    1     dE    -2.205261e+00     3.647267e-02    -5.1656e+00      0.480 (TRAH MIcro)
    1     dE    -2.205485e+00     8.862671e-03    -5.1652e+00      0.480 (TRAH MIcro)
WARNING: 488 diagonal Hessian elements are negative!
    2       -375.905898915446     2.043838e+00                     0.576 (TRAH MAcro)   No
WARNING : negative HOMO - LUMO gap : (op = alpha) -2.150146
WARNING : negative HOMO - LUMO gap : (op =  beta) -2.241937
    2     dE    -1.998626e+00     6.679394e-01    -2.4757e+00      0.576 (TRAH MIcro)
    2     dE    -2.134473e+00     1.180515e-01    -3.1285e+00      0.576 (TRAH MIcro)
    2     dE    -2.137955e+00     4.415190e-02    -3.1479e+00      0.576 (TRAH MIcro)
    2     dE    -2.138400e+00     1.205404e-02    -3.1505e+00      0.576 (TRAH MIcro)
    2     dE    -2.138432e+00     4.096256e-03    -3.1498e+00      0.576 (TRAH MIcro)
WARNING: 248 diagonal Hessian elements are negative!
    3       -377.837607383363     1.321391e+00                     0.691 (TRAH MAcro)   No
WARNING : negative HOMO - LUMO gap : (op = alpha) -1.116200
WARNING : negative HOMO - LUMO gap : (op =  beta) -1.209541
    3     dE    -9.363814e-01     4.683822e-01    -7.2138e-01      0.546 (TRAH MIcro)
    3     dE    -1.205249e+00     1.942605e-01    -8.1657e-01      0.690 (TRAH MIcro)
    3     dE    -1.235843e+00     1.023573e-01    -9.7285e-01      0.691 (TRAH MIcro)
    3     dE    -1.243644e+00     6.438274e-02    -1.0291e+00      0.691 (TRAH MIcro)
    3     dE    -1.247363e+00     6.209602e-02    -1.0603e+00      0.691 (TRAH MIcro)
    3     dE    -1.213075e+00     4.357775e-02    -1.1128e+00      0.666 (TRAH MIcro)
    3     dE    -1.252684e+00     3.911533e-02    -1.1159e+00      0.691 (TRAH MIcro)
    3     dE    -1.246655e+00     4.256255e-02    -1.1479e+00      0.686 (TRAH MIcro)
    3     dE    -1.003400e+00     3.652046e-02    -1.3876e+00      0.521 (TRAH MIcro)
    3     dE    -1.002298e+00     2.276380e-03    -1.3879e+00      0.520 (TRAH MIcro)
WARNING: 93 diagonal Hessian elements are negative!
    4       -378.779965019597     5.866018e-01                     0.829 (TRAH MAcro)   No
WARNING : negative HOMO - LUMO gap : (op = alpha) -0.386389
WARNING : negative HOMO - LUMO gap : (op =  beta) -0.453876
    4     dE    -2.457862e-01     2.572178e-01    -2.1635e-01      0.369 (TRAH MIcro)
    4     dE    -3.034936e-01     1.368464e-01    -2.4980e-01      0.464 (TRAH MIcro)
    4     dE    -3.161031e-01     7.818094e-02    -2.5523e-01      0.488 (TRAH MIcro)
    4     dE    -3.232297e-01     4.710316e-02    -2.5764e-01      0.505 (TRAH MIcro)
    4     dE    -3.387566e-01     7.448035e-02    -2.6121e-01      0.545 (TRAH MIcro)
    4     dE    -3.917814e-01     7.811800e-02    -2.6778e-01      0.680 (TRAH MIcro)
    4     dE    -4.620987e-01     1.107315e-01    -2.7719e-01      0.829 (TRAH MIcro)
    4     dE    -4.830075e-01     1.206539e-01    -3.2955e-01      0.829 (TRAH MIcro)
    4     dE    -5.046030e-01     1.027596e-01    -3.8171e-01      0.829 (TRAH MIcro)
    4     dE    -3.036325e-01     2.564229e-02    -4.7749e-01      0.429 (TRAH MIcro)
    4     dE    -3.036859e-01     5.328748e-03    -4.7789e-01      0.429 (TRAH MIcro)
WARNING: 20 diagonal Hessian elements are negative!
    5       -379.079438250441     2.090010e-01                     0.995 (TRAH MAcro)   No
WARNING : negative HOMO - LUMO gap : (op = alpha) -0.089085
WARNING : negative HOMO - LUMO gap : (op =  beta) -0.101073
    5     dE    -5.271839e-02     3.049626e-01    -4.9878e-02      0.239 (TRAH MIcro)
    5     dE    -8.240435e-02     3.258429e-01    -7.0311e-02      0.415 (TRAH MIcro)
    5     dE    -1.044655e-01     2.131484e-01    -7.9915e-02      0.554 (TRAH MIcro)
    5     dE    -1.345020e-01     8.900188e-02    -8.8401e-02      0.722 (TRAH MIcro)
    5     dE    -1.637772e-01     1.858689e-01    -9.3141e-02      0.871 (TRAH MIcro)
    5     dE    -2.014794e-01     7.592926e-02    -1.1395e-01      0.995 (TRAH MIcro)
    5     dE    -2.043276e-01     7.459236e-02    -1.1830e-01      0.995 (TRAH MIcro)
    5     dE    -2.062037e-01     4.033270e-02    -1.2073e-01      0.995 (TRAH MIcro)
    5     dE    -2.074313e-01     3.997741e-02    -1.2259e-01      0.995 (TRAH MIcro)
    5     dE    -1.872565e-01     1.956800e-02    -1.2751e-01      0.907 (TRAH MIcro)
    5     dE    -1.897921e-01     1.068236e-02    -1.2767e-01      0.917 (TRAH MIcro)
    5     dE    -1.926869e-01     1.110323e-02    -1.2777e-01      0.928 (TRAH MIcro)
    5     dE    -1.948612e-01     8.741692e-03    -1.2785e-01      0.937 (TRAH MIcro)
WARNING: 3 diagonal Hessian elements are negative!
    6       -379.222433795375     1.540533e-01                     0.995 (TRAH MAcro)   No
WARNING : negative HOMO - LUMO gap : (op = alpha) -0.006391
WARNING : negative HOMO - LUMO gap : (op =  beta) -0.018378
    6     dE    -1.077669e-02     2.312520e-01    -1.0725e-02      0.070 (TRAH MIcro)
    6     dE    -3.527832e-02     1.753248e-01    -3.1143e-02      0.364 (TRAH MIcro)
    6     dE    -7.509795e-02     7.601572e-02    -5.0895e-02      0.690 (TRAH MIcro)
    6     dE    -8.166199e-02     5.152230e-02    -5.3159e-02      0.732 (TRAH MIcro)
    6     dE    -9.903616e-02     6.731910e-02    -5.6925e-02      0.860 (TRAH MIcro)
    6     dE    -1.082677e-01     2.955733e-02    -5.8081e-02      0.930 (TRAH MIcro)
    6     dE    -1.110905e-01     2.320092e-02    -5.8439e-02      0.949 (TRAH MIcro)
    6     dE    -1.134328e-01     1.886576e-02    -5.8723e-02      0.965 (TRAH MIcro)
    6     dE    -1.152387e-01     1.293952e-02    -5.8873e-02      0.978 (TRAH MIcro)
    6     dE    -1.164882e-01     1.059594e-02    -5.8950e-02      0.988 (TRAH MIcro)
    6     dE    -1.171376e-01     8.551261e-03    -5.8994e-02      0.993 (TRAH MIcro)
    7       -379.309979877741     5.440931e-02                     0.995 (TRAH MAcro)   No
WARNING : small    HOMO - LUMO gap : (op =  beta) 0.011092
    7     dE    -1.414275e-03     1.232555e-01    -1.4133e-03      0.026 (TRAH MIcro)
    7     dE    -9.742197e-03     1.073985e-01    -9.0635e-03      0.274 (TRAH MIcro)
    7     dE    -1.951019e-02     6.556268e-02    -1.5754e-02      0.488 (TRAH MIcro)
    7     dE    -2.334208e-02     5.116780e-02    -1.7873e-02      0.553 (TRAH MIcro)
    7     dE    -2.869370e-02     4.605626e-02    -1.9979e-02      0.660 (TRAH MIcro)
    7     dE    -3.461443e-02     3.013608e-02    -2.1557e-02      0.778 (TRAH MIcro)
    7     dE    -3.745677e-02     3.358774e-02    -2.2122e-02      0.833 (TRAH MIcro)
    7     dE    -4.531820e-02     4.166101e-02    -2.3217e-02      0.976 (TRAH MIcro)
    7     dE    -4.886943e-02     5.174114e-02    -2.7728e-02      0.995 (TRAH MIcro)
    7     dE    -5.187753e-02     6.325743e-02    -3.2954e-02      0.995 (TRAH MIcro)
    7     dE    -5.544077e-02     4.949369e-02    -3.8943e-02      0.995 (TRAH MIcro)
    7     dE    -2.358644e-02     1.540081e-02    -5.0105e-02      0.463 (TRAH MIcro)
    7     dE    -2.292610e-02     7.419583e-03    -5.0659e-02      0.443 (TRAH MIcro)
    7     dE    -2.272600e-02     5.773844e-03    -5.0779e-02      0.437 (TRAH MIcro)
    8       -379.331145314579     2.682829e-02                     1.194 (TRAH MAcro)   No
WARNING : small    HOMO - LUMO gap : (op =  beta) 0.014786
    8     dE    -3.540929e-04     8.565916e-02    -3.5403e-04      0.013 (TRAH MIcro)
    8     dE    -2.065116e-03     7.325725e-02    -2.0290e-03      0.133 (TRAH MIcro)
    8     dE    -1.942202e-02     1.927916e-01    -1.2371e-02      0.755 (TRAH MIcro)
    8     dE    -5.012795e-02     8.530718e-02    -2.2615e-02      1.194 (TRAH MIcro)
    8     dE    -6.861283e-02     1.460188e-01    -3.8179e-02      1.194 (TRAH MIcro)
    8     dE    -5.862122e-02     4.992521e-02    -4.4945e-02      1.024 (TRAH MIcro)
    8     dE    -6.513540e-02     2.358001e-02    -4.6063e-02      1.076 (TRAH MIcro)
    8     dE    -6.773544e-02     1.697140e-02    -4.6610e-02      1.094 (TRAH MIcro)
    8     dE    -6.790858e-02     1.244961e-02    -4.6744e-02      1.094 (TRAH MIcro)
    8     dE    -6.830623e-02     7.676783e-03    -4.6806e-02      1.097 (TRAH MIcro)
    8     dE    -6.886937e-02     7.142863e-03    -4.6832e-02      1.102 (TRAH MIcro)
    8     dE    -6.931863e-02     3.178144e-03    -4.6846e-02      1.106 (TRAH MIcro)
    8     dE    -6.937259e-02     1.443714e-03    -4.6851e-02      1.107 (TRAH MIcro)
    9       -379.338213907816     1.498026e-01                     0.836 (TRAH MAcro)   No
WARNING : small    HOMO - LUMO gap : (op = alpha) 0.014754
    9     dE    -1.292268e-02     2.167031e-01    -1.2829e-02      0.086 (TRAH MIcro)
    9     dE    -2.516098e-02     4.160917e-02    -2.3663e-02      0.252 (TRAH MIcro)
    9     dE    -2.906605e-02     2.795272e-02    -2.5832e-02      0.354 (TRAH MIcro)
    9     dE    -3.096352e-02     1.192682e-02    -2.6511e-02      0.410 (TRAH MIcro)
    9     dE    -3.185526e-02     1.153448e-02    -2.6753e-02      0.437 (TRAH MIcro)
    9     dE    -3.300988e-02     1.322320e-02    -2.7026e-02      0.471 (TRAH MIcro)
    9     dE    -3.459973e-02     1.742069e-02    -2.7352e-02      0.515 (TRAH MIcro)
    9     dE    -3.668459e-02     1.724564e-02    -2.7709e-02      0.569 (TRAH MIcro)
    9     dE    -4.193796e-02     1.982510e-02    -2.8387e-02      0.691 (TRAH MIcro)
    9     dE    -4.688039e-02     1.283620e-02    -2.8824e-02      0.791 (TRAH MIcro)
    9     dE    -4.926555e-02     7.994374e-03    -2.9029e-02      0.836 (TRAH MIcro)
   10       -379.364681619187     1.312696e-01                     0.836 (TRAH MAcro)   No
   10     dE    -6.800468e-03     1.683205e-01    -6.7824e-03      0.052 (TRAH MIcro)
   10     dE    -1.202475e-02     4.349163e-02    -1.1816e-02      0.133 (TRAH MIcro)
   10     dE    -1.412386e-02     3.037425e-02    -1.3684e-02      0.179 (TRAH MIcro)
   10     dE    -1.597603e-02     1.511929e-02    -1.5062e-02      0.246 (TRAH MIcro)
   10     dE    -1.654487e-02     1.312744e-02    -1.5398e-02      0.273 (TRAH MIcro)
   10     dE    -1.706291e-02     1.002132e-02    -1.5660e-02      0.299 (TRAH MIcro)
   10     dE    -1.746752e-02     8.589610e-03    -1.5834e-02      0.321 (TRAH MIcro)
   11       -379.380499467282     2.029212e-02                     1.003 (TRAH MAcro)   No
   11     dE    -9.267877e-05     5.444703e-02    -9.2677e-05      0.005 (TRAH MIcro)
   11     dE    -1.796124e-03     3.039817e-02    -1.7712e-03      0.119 (TRAH MIcro)
   11     dE    -2.355986e-03     1.372068e-02    -2.2930e-03      0.166 (TRAH MIcro)
   11     dE    -2.687556e-03     1.419608e-02    -2.5860e-03      0.198 (TRAH MIcro)
   11     dE    -3.270630e-03     1.538425e-02    -3.0418e-03      0.274 (TRAH MIcro)
   11     dE    -3.692404e-03     1.422828e-02    -3.3254e-03      0.332 (TRAH MIcro)
   11     dE    -4.043728e-03     1.128126e-02    -3.5337e-03      0.380 (TRAH MIcro)
   11     dE    -4.231848e-03     6.563251e-03    -3.6338e-03      0.406 (TRAH MIcro)
   11     dE    -4.334444e-03     4.464444e-03    -3.6855e-03      0.420 (TRAH MIcro)
   11     dE    -4.363490e-03     3.023690e-03    -3.6997e-03      0.424 (TRAH MIcro)
   11     dE    -4.386994e-03     3.201293e-03    -3.7117e-03      0.427 (TRAH MIcro)
   11     dE    -4.413318e-03     3.712742e-03    -3.7241e-03      0.430 (TRAH MIcro)
   11     dE    -4.474603e-03     6.227340e-03    -3.7496e-03      0.440 (TRAH MIcro)
   11     dE    -5.035577e-03     1.481308e-02    -3.8815e-03      0.545 (TRAH MIcro)
   12       -379.380697377847     4.289462e-02                     0.702 (TRAH MAcro)   No
   12     dE    -7.233061e-04     7.309815e-02    -7.2310e-04      0.017 (TRAH MIcro)
   12     dE    -2.972044e-03     3.200013e-02    -2.9411e-03      0.103 (TRAH MIcro)
   12     dE    -4.278502e-03     1.845603e-02    -4.1461e-03      0.179 (TRAH MIcro)
   12     dE    -4.661752e-03     1.480119e-02    -4.4758e-03      0.204 (TRAH MIcro)
   12     dE    -6.147353e-03     3.865253e-02    -5.5643e-03      0.324 (TRAH MIcro)
   12     dE    -1.246127e-02     6.040370e-02    -9.2511e-03      0.702 (TRAH MIcro)
   12     dE    -1.516410e-02     3.421258e-02    -1.6193e-02      0.696 (TRAH MIcro)
   12     dE    -1.615779e-02     1.514860e-02    -1.8132e-02      0.702 (TRAH MIcro)
   12     dE    -1.639772e-02     1.293940e-02    -1.8694e-02      0.702 (TRAH MIcro)
   12     dE    -1.651099e-02     5.726885e-03    -1.8959e-02      0.702 (TRAH MIcro)
   12     dE    -1.655237e-02     4.691777e-03    -1.9041e-02      0.702 (TRAH MIcro)
   12     dE    -1.658314e-02     3.006579e-03    -1.9098e-02      0.702 (TRAH MIcro)
 ---------------------------------
          TRAH Step control 
 ---------------------------------
  predicted energy change = -0.016583
  actual energy  change   = 0.006146
  energy change ratio     = -0.370635
  old trust radius        = 0.702303
  new trust radius        = 0.491612
  reject step?            =  1
   13       -379.380697377847     2.029212e-02                     0.492 (TRAH MAcro)  Yes
   14       -379.380697377847     4.289462e-02                     0.492 (TRAH MAcro)   No
   14     dE    -7.232016e-04     7.310706e-02    -7.2300e-04      0.017 (TRAH MIcro)
   14     dE    -2.971878e-03     3.200409e-02    -2.9409e-03      0.103 (TRAH MIcro)
   14     dE    -4.278098e-03     1.846647e-02    -4.1458e-03      0.179 (TRAH MIcro)
   14     dE    -4.661575e-03     1.480112e-02    -4.4757e-03      0.204 (TRAH MIcro)
   14     dE    -6.146945e-03     3.865265e-02    -5.5641e-03      0.324 (TRAH MIcro)
   14     dE    -9.604749e-03     3.825781e-02    -1.3939e-02      0.487 (TRAH MIcro)
   14     dE    -9.775247e-03     1.863565e-02    -2.1897e-02      0.436 (TRAH MIcro)
   14     dE    -1.077937e-02     9.457622e-03    -2.2546e-02      0.471 (TRAH MIcro)
   14     dE    -1.110960e-02     8.012761e-03    -2.2744e-02      0.482 (TRAH MIcro)
   14     dE    -1.127853e-02     3.716235e-03    -2.2838e-02      0.487 (TRAH MIcro)
   15       -379.385497928175     2.158541e-02                     0.492 (TRAH MAcro)   No
   15     dE    -4.166117e-04     4.393055e-02    -4.1646e-04      0.019 (TRAH MIcro)
   15     dE    -2.099269e-03     1.636492e-02    -2.0631e-03      0.132 (TRAH MIcro)
   15     dE    -2.271018e-03     1.165614e-02    -2.2241e-03      0.145 (TRAH MIcro)
   15     dE    -2.372961e-03     4.387585e-03    -2.3150e-03      0.158 (TRAH MIcro)
   15     dE    -2.399774e-03     3.624695e-03    -2.3378e-03      0.163 (TRAH MIcro)
   15     dE    -2.421438e-03     4.385496e-03    -2.3554e-03      0.167 (TRAH MIcro)
   15     dE    -2.459448e-03     4.436996e-03    -2.3834e-03      0.179 (TRAH MIcro)
   15     dE    -2.503856e-03     4.297943e-03    -2.4117e-03      0.195 (TRAH MIcro)
   15     dE    -2.538768e-03     3.143053e-03    -2.4314e-03      0.210 (TRAH MIcro)
   15     dE    -2.555191e-03     1.957440e-03    -2.4396e-03      0.218 (TRAH MIcro)
   16       -379.388209117200     6.743006e-03                     0.590 (TRAH MAcro)   No
   16     dE    -1.654432e-05     1.291109e-02    -1.6544e-05      0.002 (TRAH MIcro)
   16     dE    -6.048395e-05     4.686105e-03    -6.0473e-05      0.014 (TRAH MIcro)
   16     dE    -1.194938e-04     4.609258e-03    -1.1931e-04      0.039 (TRAH MIcro)
   16     dE    -1.373502e-04     3.303328e-03    -1.3702e-04      0.049 (TRAH MIcro)
   16     dE    -1.586768e-04     2.950134e-03    -1.5802e-04      0.064 (TRAH MIcro)
   16     dE    -2.129906e-04     7.488453e-03    -2.1018e-04      0.116 (TRAH MIcro)
   16     dE    -1.191395e-03     4.154279e-02    -1.7582e-03      0.590 (TRAH MIcro)
   16     dE    -2.602669e-03     2.018108e-02    -6.0830e-03      0.590 (TRAH MIcro)
   16     dE    -1.930576e-03     9.093420e-03    -8.4033e-03      0.434 (TRAH MIcro)
   16     dE    -2.599350e-03     8.076958e-03    -8.9678e-03      0.498 (TRAH MIcro)
   16     dE    -3.690118e-03     9.624640e-03    -9.6522e-03      0.584 (TRAH MIcro)
   16     dE    -3.918836e-03     6.721160e-03    -1.0136e-02      0.590 (TRAH MIcro)
   16     dE    -3.959844e-03     4.808941e-03    -1.0267e-02      0.590 (TRAH MIcro)
   16     dE    -3.984985e-03     2.272712e-03    -1.0348e-02      0.590 (TRAH MIcro)
   17       -379.390823152164     2.943841e-02                     0.590 (TRAH MAcro)   No
   17     dE    -3.643289e-04     3.579627e-02    -3.6427e-04      0.012 (TRAH MIcro)
   17     dE    -7.573524e-04     1.226246e-02    -7.5603e-04      0.042 (TRAH MIcro)
   17     dE    -1.332976e-03     2.570360e-02    -1.3123e-03      0.126 (TRAH MIcro)
   17     dE    -1.989920e-03     2.973657e-02    -1.8705e-03      0.253 (TRAH MIcro)
   17     dE    -4.148730e-03     2.565546e-02    -3.1169e-03      0.575 (TRAH MIcro)
   17     dE    -4.739224e-03     1.657128e-02    -4.6888e-03      0.590 (TRAH MIcro)
   17     dE    -4.906233e-03     9.932400e-03    -5.2360e-03      0.590 (TRAH MIcro)
   17     dE    -4.960832e-03     5.727108e-03    -5.4112e-03      0.590 (TRAH MIcro)
   17     dE    -5.004657e-03     4.955069e-03    -5.5498e-03      0.590 (TRAH MIcro)
   17     dE    -5.029665e-03     4.544089e-03    -5.6399e-03      0.590 (TRAH MIcro)
   17     dE    -5.053281e-03     4.079013e-03    -5.7406e-03      0.590 (TRAH MIcro)
   17     dE    -5.079627e-03     5.029620e-03    -5.8665e-03      0.590 (TRAH MIcro)
   17     dE    -5.110131e-03     4.249438e-03    -6.0182e-03      0.590 (TRAH MIcro)
   17     dE    -5.136291e-03     4.318342e-03    -6.1577e-03      0.590 (TRAH MIcro)
   18       -379.394877829495     2.107705e-02                     0.708 (TRAH MAcro)   No
   18     dE    -1.625011e-04     2.961092e-02    -1.6249e-04      0.008 (TRAH MIcro)
   18     dE    -3.698153e-04     1.010655e-02    -3.6947e-04      0.031 (TRAH MIcro)
   18     dE    -5.171021e-04     9.917771e-03    -5.1553e-04      0.055 (TRAH MIcro)
   18     dE    -6.033222e-04     8.940932e-03    -5.9924e-04      0.083 (TRAH MIcro)
   18     dE    -7.589576e-04     1.041683e-02    -7.4295e-04      0.147 (TRAH MIcro)
   18     dE    -8.791595e-04     1.127765e-02    -8.4593e-04      0.198 (TRAH MIcro)
   18     dE    -9.800474e-04     7.933345e-03    -9.2649e-04      0.240 (TRAH MIcro)
   18     dE    -1.078165e-03     7.789115e-03    -9.9931e-04      0.281 (TRAH MIcro)
   18     dE    -1.180944e-03     1.082633e-02    -1.0694e-03      0.323 (TRAH MIcro)
   18     dE    -1.285950e-03     9.101021e-03    -1.1347e-03      0.365 (TRAH MIcro)
   18     dE    -1.431051e-03     8.857864e-03    -1.2149e-03      0.422 (TRAH MIcro)
   18     dE    -1.625538e-03     1.218435e-02    -1.3072e-03      0.493 (TRAH MIcro)
   18     dE    -2.157013e-03     1.147369e-02    -1.4976e-03      0.664 (TRAH MIcro)
   18     dE    -2.417852e-03     1.171771e-02    -1.8025e-03      0.708 (TRAH MIcro)
   19       -379.395687843724     2.600901e-02                     0.708 (TRAH MAcro)   No
   19     dE    -9.518778e-05     3.660093e-02    -9.5187e-05      0.004 (TRAH MIcro)
   19     dE    -6.449600e-04     1.508897e-02    -6.4325e-04      0.052 (TRAH MIcro)
   19     dE    -1.058407e-03     1.203560e-02    -1.0478e-03      0.101 (TRAH MIcro)
   19     dE    -1.127017e-03     7.169291e-03    -1.1123e-03      0.115 (TRAH MIcro)
   19     dE    -1.177019e-03     3.992537e-03    -1.1582e-03      0.128 (TRAH MIcro)
   19     dE    -1.190563e-03     3.757053e-03    -1.1703e-03      0.132 (TRAH MIcro)
   19     dE    -1.209082e-03     3.104676e-03    -1.1866e-03      0.138 (TRAH MIcro)
   19     dE    -1.241148e-03     4.634518e-03    -1.2132e-03      0.152 (TRAH MIcro)
   19     dE    -1.261277e-03     4.390455e-03    -1.2287e-03      0.163 (TRAH MIcro)
   19     dE    -1.297262e-03     3.285685e-03    -1.2537e-03      0.186 (TRAH MIcro)
   19     dE    -1.313030e-03     3.219203e-03    -1.2640e-03      0.197 (TRAH MIcro)
   19     dE    -1.330247e-03     2.438757e-03    -1.2746e-03      0.209 (TRAH MIcro)
   20       -379.397142234619     4.046886e-03                     0.850 (TRAH MAcro)   No
   20     dE    -3.118032e-06     7.073624e-03    -3.1180e-06      0.001 (TRAH MIcro)
   20     dE    -2.981441e-05     3.994371e-03    -2.9809e-05      0.013 (TRAH MIcro)
   20     dE    -6.278222e-05     5.171250e-03    -6.2708e-05      0.034 (TRAH MIcro)
   20     dE    -7.770720e-05     3.363786e-03    -7.7546e-05      0.046 (TRAH MIcro)
   20     dE    -8.846953e-05     2.406818e-03    -8.8202e-05      0.055 (TRAH MIcro)
   20     dE    -1.019498e-04     3.771161e-03    -1.0148e-04      0.068 (TRAH MIcro)
   20     dE    -1.193948e-04     4.700983e-03    -1.1846e-04      0.089 (TRAH MIcro)
   20     dE    -1.620534e-04     4.950041e-03    -1.5860e-04      0.148 (TRAH MIcro)
   20     dE    -1.970910e-04     4.634210e-03    -1.8970e-04      0.197 (TRAH MIcro)
   20     dE    -2.195702e-04     3.383432e-03    -2.0865e-04      0.229 (TRAH MIcro)
   20     dE    -2.328041e-04     2.246295e-03    -2.1939e-04      0.247 (TRAH MIcro)
   20     dE    -2.392959e-04     2.069672e-03    -2.2455e-04      0.256 (TRAH MIcro)
   20     dE    -2.440225e-04     1.177275e-03    -2.2829e-04      0.263 (TRAH MIcro)
   20     dE    -2.464543e-04     9.024150e-04    -2.3021e-04      0.266 (TRAH MIcro)
   21       -379.397433147846     4.662198e-03                     1.019 (TRAH MAcro)   No
   21     dE    -4.818011e-06     5.205281e-03    -4.8180e-06      0.001 (TRAH MIcro)
   21     dE    -1.694854e-05     2.524675e-03    -1.6947e-05      0.008 (TRAH MIcro)
   21     dE    -2.590376e-05     1.931005e-03    -2.5898e-05      0.014 (TRAH MIcro)
   21     dE    -2.847546e-05     1.612789e-03    -2.8467e-05      0.017 (TRAH MIcro)
   21     dE    -3.369072e-05     1.886051e-03    -3.3668e-05      0.026 (TRAH MIcro)
   21     dE    -3.738050e-05     2.452300e-03    -3.7340e-05      0.033 (TRAH MIcro)
   21     dE    -4.223929e-05     1.724476e-03    -4.2160e-05      0.043 (TRAH MIcro)
   21     dE    -4.902370e-05     2.705693e-03    -4.8849e-05      0.060 (TRAH MIcro)
   21     dE    -5.556032e-05     3.467255e-03    -5.5231e-05      0.077 (TRAH MIcro)
   21     dE    -6.446160e-05     2.341727e-03    -6.3793e-05      0.102 (TRAH MIcro)
   21     dE    -7.140168e-05     2.240332e-03    -7.0342e-05      0.123 (TRAH MIcro)
   21     dE    -7.486226e-05     2.118203e-03    -7.3557e-05      0.133 (TRAH MIcro)
   21     dE    -7.780159e-05     1.131746e-03    -7.6259e-05      0.142 (TRAH MIcro)
   21     dE    -7.934960e-05     1.057111e-03    -7.7669e-05      0.147 (TRAH MIcro)
   22       -379.397525875663     2.015731e-03                     1.223 (TRAH MAcro)   No
   22     dE    -4.117248e-07     3.169029e-03    -4.1173e-07      0.000 (TRAH MIcro)
   22     dE    -2.325134e-06     1.090178e-03    -2.3251e-06      0.003 (TRAH MIcro)
   22     dE    -3.911626e-06     1.106852e-03    -3.9115e-06      0.006 (TRAH MIcro)
   22     dE    -4.629231e-06     1.292848e-03    -4.6290e-06      0.008 (TRAH MIcro)
   22     dE    -6.066368e-06     9.084783e-04    -6.0653e-06      0.013 (TRAH MIcro)
   22     dE    -7.173475e-06     1.069687e-03    -7.1711e-06      0.018 (TRAH MIcro)
   22     dE    -8.268256e-06     1.035800e-03    -8.2637e-06      0.023 (TRAH MIcro)
   22     dE    -9.338168e-06     9.382180e-04    -9.3304e-06      0.029 (TRAH MIcro)
   22     dE    -1.122270e-05     1.837520e-03    -1.1205e-05      0.040 (TRAH MIcro)
   22     dE    -1.343189e-05     1.497168e-03    -1.3394e-05      0.053 (TRAH MIcro)
   22     dE    -1.560015e-05     9.945520e-04    -1.5531e-05      0.067 (TRAH MIcro)
   22     dE    -1.737779e-05     1.545339e-03    -1.7272e-05      0.078 (TRAH MIcro)
   22     dE    -2.077960e-05     1.705353e-03    -2.0571e-05      0.101 (TRAH MIcro)
   22     dE    -2.586842e-05     1.628928e-03    -2.5404e-05      0.135 (TRAH MIcro)
   23       -379.397543496094     1.934402e-03                     1.223 (TRAH MAcro)   No
   23     dE    -4.335868e-07     3.817317e-03    -4.3359e-07      0.000 (TRAH MIcro)
   23     dE    -2.283226e-06     1.189585e-03    -2.2832e-06      0.002 (TRAH MIcro)
   23     dE    -3.673327e-06     7.292009e-04    -3.6733e-06      0.004 (TRAH MIcro)
   23     dE    -4.448813e-06     7.402154e-04    -4.4486e-06      0.006 (TRAH MIcro)
   23     dE    -4.861038e-06     6.201260e-04    -4.8607e-06      0.008 (TRAH MIcro)
   23     dE    -5.332734e-06     4.008114e-04    -5.3321e-06      0.011 (TRAH MIcro)
   23     dE    -5.535335e-06     2.859458e-04    -5.5346e-06      0.012 (TRAH MIcro)
   23     dE    -5.627953e-06     3.070674e-04    -5.6271e-06      0.013 (TRAH MIcro)
   23     dE    -5.791836e-06     3.232659e-04    -5.7907e-06      0.014 (TRAH MIcro)
   23     dE    -5.929504e-06     3.352281e-04    -5.9282e-06      0.015 (TRAH MIcro)
   23     dE    -6.031248e-06     1.863228e-04    -6.0297e-06      0.016 (TRAH MIcro)
   24       -379.397549489358     1.863232e-04                           (NR   MAcro)
   24     dE    -2.452363e-08     1.065952e-04                           (NR   MIcro)
   24     dE    -5.205183e-08     1.338336e-04                           (NR   MIcro)
   24     dE    -9.281883e-08     1.733692e-04                           (NR   MIcro)
   24     dE    -1.436598e-07     1.946818e-04                           (NR   MIcro)
   24     dE    -2.185374e-07     2.243854e-04                           (NR   MIcro)
   24     dE    -3.360192e-07     2.758219e-04                           (NR   MIcro)
   24     dE    -4.225136e-07     2.832263e-04                           (NR   MIcro)
   24     dE    -5.778013e-07     2.856592e-04                           (NR   MIcro)
   24     dE    -7.458934e-07     3.643650e-04                           (NR   MIcro)
   24     dE    -1.029014e-06     4.613770e-04                           (NR   MIcro)
   24     dE    -1.325188e-06     5.396388e-04                           (NR   MIcro)
   24     dE    -1.971891e-06     5.845984e-04                           (NR   MIcro)
   24     dE    -2.518883e-06     5.938196e-04                           (NR   MIcro)
   24     dE    -3.169018e-06     6.815622e-04                           (NR   MIcro)
   24     dE    -4.006593e-06     7.879885e-04                           (NR   MIcro)
   25       -379.397547114061     1.339461e-03                     1.468 (TRAH MAcro)   No
   25     dE    -1.969890e-07     2.455537e-03    -1.9700e-07      0.000 (TRAH MIcro)
   25     dE    -1.889929e-06     7.542038e-04    -1.8899e-06      0.003 (TRAH MIcro)
   25     dE    -2.837638e-06     9.526094e-04    -2.8376e-06      0.005 (TRAH MIcro)
   25     dE    -3.228781e-06     6.800426e-04    -3.2286e-06      0.007 (TRAH MIcro)
   25     dE    -3.635513e-06     4.707149e-04    -3.6352e-06      0.009 (TRAH MIcro)
   25     dE    -3.938670e-06     7.059265e-04    -3.9382e-06      0.010 (TRAH MIcro)
   25     dE    -4.309173e-06     6.016793e-04    -4.3085e-06      0.013 (TRAH MIcro)
   25     dE    -4.826002e-06     6.375727e-04    -4.8246e-06      0.017 (TRAH MIcro)
   25     dE    -5.299411e-06     7.180174e-04    -5.2971e-06      0.021 (TRAH MIcro)
   25     dE    -5.616256e-06     4.958598e-04    -5.6131e-06      0.024 (TRAH MIcro)
   25     dE    -5.950693e-06     4.527519e-04    -5.9463e-06      0.027 (TRAH MIcro)
   25     dE    -6.215140e-06     6.180689e-04    -6.2096e-06      0.030 (TRAH MIcro)
   25     dE    -6.466577e-06     5.482797e-04    -6.4597e-06      0.033 (TRAH MIcro)
   25     dE    -6.742074e-06     3.806928e-04    -6.7335e-06      0.036 (TRAH MIcro)
   26       -379.397553639850     4.026204e-04                           (NR   MAcro)
   26     dE    -1.001735e-07     2.388194e-04                           (NR   MIcro)
   26     dE    -1.826987e-07     2.309650e-04                           (NR   MIcro)
   26     dE    -2.395796e-07     2.442044e-04                           (NR   MIcro)
   26     dE    -3.087532e-07     1.928557e-04                           (NR   MIcro)
   26     dE    -3.565109e-07     1.785908e-04                           (NR   MIcro)
   26     dE    -4.009525e-07     2.198567e-04                           (NR   MIcro)
   26     dE    -4.416024e-07     1.944077e-04                           (NR   MIcro)
   26     dE    -4.958998e-07     1.755746e-04                           (NR   MIcro)
   26     dE    -5.531441e-07     1.979164e-04                           (NR   MIcro)
   26     dE    -5.982815e-07     1.714644e-04                           (NR   MIcro)
   26     dE    -6.377058e-07     1.536306e-04                           (NR   MIcro)
   26     dE    -6.764910e-07     1.850260e-04                           (NR   MIcro)
   26     dE    -7.238972e-07     2.141286e-04                           (NR   MIcro)
   26     dE    -8.366716e-07     3.460382e-04                           (NR   MIcro)
   26     dE    -9.588730e-07     2.552188e-04                           (NR   MIcro)
   27       -379.397554455132     2.488954e-04                           (NR   MAcro)
   27     dE    -4.925195e-08     1.236681e-04                           (NR   MIcro)
   27     dE    -8.601508e-08     1.675348e-04                           (NR   MIcro)
   27     dE    -1.075707e-07     1.777714e-04                           (NR   MIcro)
   27     dE    -1.351036e-07     1.105040e-04                           (NR   MIcro)
   27     dE    -1.615787e-07     1.577118e-04                           (NR   MIcro)
   27     dE    -1.780712e-07     1.588129e-04                           (NR   MIcro)
   27     dE    -2.012945e-07     9.394770e-05                           (NR   MIcro)
   27     dE    -2.136311e-07     1.231528e-04                           (NR   MIcro)
   27     dE    -2.280961e-07     1.007548e-04                           (NR   MIcro)
   27     dE    -2.356526e-07     6.712426e-05                           (NR   MIcro)
   27     dE    -2.465328e-07     9.914140e-05                           (NR   MIcro)
   27     dE    -2.548704e-07     6.503102e-05                           (NR   MIcro)
   27     dE    -2.590863e-07     5.404051e-05                           (NR   MIcro)
   27     dE    -2.647693e-07     7.312790e-05                           (NR   MIcro)
   27     dE    -2.724619e-07     6.421366e-05                           (NR   MIcro)
   28       -379.397554737303     6.836912e-05                           (NR   MAcro)
   28     dE    -3.879258e-09     3.995301e-05                           (NR   MIcro)
   28     dE    -9.301632e-09     6.385348e-05                           (NR   MIcro)
   28     dE    -1.526087e-08     7.977611e-05                           (NR   MIcro)
   28     dE    -2.090025e-08     7.619370e-05                           (NR   MIcro)
   28     dE    -3.031751e-08     1.005864e-04                           (NR   MIcro)
   28     dE    -3.870573e-08     1.156922e-04                           (NR   MIcro)
   28     dE    -5.176477e-08     1.002841e-04                           (NR   MIcro)
   28     dE    -6.341485e-08     9.676274e-05                           (NR   MIcro)
   28     dE    -8.082171e-08     1.299724e-04                           (NR   MIcro)
   28     dE    -1.052230e-07     1.098698e-04                           (NR   MIcro)
   28     dE    -1.215292e-07     1.335901e-04                           (NR   MIcro)
   28     dE    -1.465053e-07     1.375585e-04                           (NR   MIcro)
   28     dE    -1.654890e-07     1.305924e-04                           (NR   MIcro)
   28     dE    -1.948216e-07     1.242129e-04                           (NR   MIcro)
   28     dE    -2.169284e-07     1.172752e-04                           (NR   MIcro)
   29       -379.397554959561     1.186065e-04                           (NR   MAcro)
   29     dE    -1.848482e-08     7.947184e-05                           (NR   MIcro)
   29     dE    -4.045917e-08     1.531815e-04                           (NR   MIcro)
   29     dE    -6.079357e-08     1.400826e-04                           (NR   MIcro)
   29     dE    -8.140550e-08     1.018486e-04                           (NR   MIcro)
   29     dE    -9.708929e-08     1.000421e-04                           (NR   MIcro)
   29     dE    -1.053396e-07     8.791971e-05                           (NR   MIcro)
   29     dE    -1.149674e-07     6.457551e-05                           (NR   MIcro)
   29     dE    -1.210108e-07     6.969702e-05                           (NR   MIcro)
   29     dE    -1.274402e-07     6.265667e-05                           (NR   MIcro)
   29     dE    -1.310234e-07     5.184823e-05                           (NR   MIcro)
   29     dE    -1.357894e-07     4.676797e-05                           (NR   MIcro)
   29     dE    -1.383673e-07     3.980409e-05                           (NR   MIcro)
   29     dE    -1.404943e-07     3.879119e-05                           (NR   MIcro)
   29     dE    -1.430451e-07     3.385752e-05                           (NR   MIcro)
   29     dE    -1.446039e-07     3.625187e-05                           (NR   MIcro)
   30       -379.397555106886     3.942154e-05                           (NR   MAcro)
   30     dE    -1.571991e-09     2.798100e-05                           (NR   MIcro)
   30     dE    -4.550611e-09     4.988212e-05                           (NR   MIcro)
   30     dE    -7.260750e-09     5.387983e-05                           (NR   MIcro)
   30     dE    -1.070328e-08     4.545195e-05                           (NR   MIcro)
   30     dE    -1.456182e-08     5.693743e-05                           (NR   MIcro)
   30     dE    -1.975528e-08     7.317919e-05                           (NR   MIcro)
   30     dE    -2.676099e-08     7.205812e-05                           (NR   MIcro)
   30     dE    -3.332736e-08     5.761297e-05                           (NR   MIcro)
   30     dE    -4.133645e-08     7.320460e-05                           (NR   MIcro)
   30     dE    -4.908949e-08     7.225996e-05                           (NR   MIcro)
   30     dE    -6.010638e-08     7.955429e-05                           (NR   MIcro)
   30     dE    -6.958166e-08     9.022934e-05                           (NR   MIcro)
   30     dE    -7.838096e-08     9.479261e-05                           (NR   MIcro)
   30     dE    -8.721245e-08     5.631386e-05                           (NR   MIcro)
   30     dE    -9.356458e-08     5.926622e-05                           (NR   MIcro)
   31       -379.397555220663     6.528535e-05                           (NR   MAcro)
   31     dE    -6.042049e-09     5.130510e-05                           (NR   MIcro)
   31     dE    -1.276686e-08     8.731800e-05                           (NR   MIcro)
   31     dE    -1.981938e-08     8.305477e-05                           (NR   MIcro)
   31     dE    -2.772003e-08     6.021026e-05                           (NR   MIcro)
   31     dE    -3.411968e-08     5.634139e-05                           (NR   MIcro)
   31     dE    -3.728853e-08     5.508074e-05                           (NR   MIcro)
   31     dE    -4.061494e-08     4.352417e-05                           (NR   MIcro)
   31     dE    -4.367908e-08     3.757703e-05                           (NR   MIcro)
   31     dE    -4.662605e-08     4.216718e-05                           (NR   MIcro)
   31     dE    -4.833885e-08     3.729170e-05                           (NR   MIcro)
   31     dE    -5.011757e-08     3.232606e-05                           (NR   MIcro)
   31     dE    -5.174307e-08     3.292991e-05                           (NR   MIcro)
   31     dE    -5.303228e-08     3.741959e-05                           (NR   MIcro)
   31     dE    -5.483451e-08     2.587343e-05                           (NR   MIcro)
   31     dE    -5.632779e-08     3.631894e-05                           (NR   MIcro)
   32       -379.397555278898     3.736590e-05                           (NR   MAcro)
   32     dE    -1.219536e-09     2.415965e-05                           (NR   MIcro)
   32     dE    -3.277267e-09     3.972890e-05                           (NR   MIcro)
   32     dE    -4.697731e-09     3.925360e-05                           (NR   MIcro)
   32     dE    -6.733524e-09     3.339877e-05                           (NR   MIcro)
   32     dE    -8.632388e-09     4.046329e-05                           (NR   MIcro)
   32     dE    -1.113147e-08     4.701909e-05                           (NR   MIcro)
   32     dE    -1.406669e-08     4.349584e-05                           (NR   MIcro)
   32     dE    -1.660486e-08     3.787892e-05                           (NR   MIcro)
   32     dE    -2.001484e-08     5.019702e-05                           (NR   MIcro)
   32     dE    -2.390796e-08     4.919353e-05                           (NR   MIcro)
   32     dE    -2.856598e-08     5.416879e-05                           (NR   MIcro)
   32     dE    -3.486417e-08     6.624179e-05                           (NR   MIcro)
   32     dE    -3.870004e-08     6.387982e-05                           (NR   MIcro)
   32     dE    -4.293401e-08     3.481868e-05                           (NR   MIcro)
   32     dE    -4.569739e-08     4.522987e-05                           (NR   MIcro)
   33       -379.397555329568     5.127066e-05                           (NR   MAcro)
   33     dE    -2.650289e-09     3.701591e-05                           (NR   MIcro)
   33     dE    -6.613441e-09     6.675080e-05                           (NR   MIcro)
   33     dE    -9.811976e-09     7.000871e-05                           (NR   MIcro)
   33     dE    -1.595433e-08     4.690305e-05                           (NR   MIcro)
   33     dE    -1.916575e-08     4.255489e-05                           (NR   MIcro)
   33     dE    -2.169966e-08     3.992357e-05                           (NR   MIcro)
   33     dE    -2.365210e-08     2.638635e-05                           (NR   MIcro)
   33     dE    -2.481818e-08     2.926598e-05                           (NR   MIcro)
   33     dE    -2.591045e-08     2.970070e-05                           (NR   MIcro)
   33     dE    -2.716708e-08     2.486519e-05                           (NR   MIcro)
   33     dE    -2.803909e-08     2.491413e-05                           (NR   MIcro)
   33     dE    -2.919732e-08     2.758015e-05                           (NR   MIcro)
   33     dE    -3.004912e-08     2.464648e-05                           (NR   MIcro)
   33     dE    -3.100150e-08     2.323280e-05                           (NR   MIcro)
   33     dE    -3.182423e-08     3.171992e-05                           (NR   MIcro)
   34       -379.397555362025     3.261749e-05                           (NR   MAcro)
   34     dE    -7.896531e-10     2.147376e-05                           (NR   MIcro)
   34     dE    -1.779845e-09     2.629616e-05                           (NR   MIcro)
   34     dE    -2.683677e-09     3.066146e-05                           (NR   MIcro)
   34     dE    -4.110007e-09     2.679195e-05                           (NR   MIcro)
   34     dE    -5.209548e-09     2.849812e-05                           (NR   MIcro)
   34     dE    -6.782212e-09     3.326690e-05                           (NR   MIcro)
   34     dE    -8.396756e-09     2.751433e-05                           (NR   MIcro)
   34     dE    -1.038173e-08     3.429949e-05                           (NR   MIcro)
   34     dE    -1.188530e-08     3.970206e-05                           (NR   MIcro)
   34     dE    -1.375903e-08     3.715780e-05                           (NR   MIcro)
   34     dE    -1.612873e-08     4.098199e-05                           (NR   MIcro)
   34     dE    -2.007500e-08     5.182979e-05                           (NR   MIcro)
   34     dE    -2.183690e-08     4.505053e-05                           (NR   MIcro)
   34     dE    -2.382302e-08     2.554484e-05                           (NR   MIcro)
   34     dE    -2.508941e-08     3.446610e-05                           (NR   MIcro)
   35       -379.397555390537     3.919619e-05                           (NR   MAcro)
   35     dE    -1.402056e-09     2.678444e-05                           (NR   MIcro)
   35     dE    -3.231739e-09     4.706662e-05                           (NR   MIcro)
   35     dE    -4.843504e-09     5.244955e-05                           (NR   MIcro)
   35     dE    -8.347888e-09     3.454452e-05                           (NR   MIcro)
   35     dE    -1.004054e-08     3.230452e-05                           (NR   MIcro)
   35     dE    -1.129220e-08     3.191634e-05                           (NR   MIcro)
   35     dE    -1.217795e-08     2.516595e-05                           (NR   MIcro)
   35     dE    -1.315858e-08     1.895562e-05                           (NR   MIcro)
   35     dE    -1.384777e-08     2.107675e-05                           (NR   MIcro)
   35     dE    -1.455081e-08     1.946958e-05                           (NR   MIcro)
   35     dE    -1.511061e-08     1.985925e-05                           (NR   MIcro)
   35     dE    -1.582019e-08     2.265953e-05                           (NR   MIcro)
   35     dE    -1.627418e-08     2.131282e-05                           (NR   MIcro)
   35     dE    -1.703262e-08     1.717622e-05                           (NR   MIcro)
   35     dE    -1.761720e-08     2.580513e-05                           (NR   MIcro)
   36       -379.397555408522     2.630644e-05                           (NR   MAcro)
   36     dE    -5.728673e-10     1.564077e-05                           (NR   MIcro)
   36     dE    -1.318211e-09     2.225686e-05                           (NR   MIcro)
   36     dE    -1.800327e-09     2.414589e-05                           (NR   MIcro)
   36     dE    -2.595518e-09     2.114603e-05                           (NR   MIcro)
   36     dE    -3.274226e-09     2.175470e-05                           (NR   MIcro)
   36     dE    -4.092174e-09     2.311720e-05                           (NR   MIcro)
   36     dE    -4.853251e-09     2.043918e-05                           (NR   MIcro)
   36     dE    -5.612406e-09     2.189618e-05                           (NR   MIcro)
   36     dE    -6.538149e-09     2.965738e-05                           (NR   MIcro)
   36     dE    -7.786879e-09     2.836752e-05                           (NR   MIcro)
   36     dE    -9.166660e-09     3.017770e-05                           (NR   MIcro)
   36     dE    -1.147823e-08     3.961995e-05                           (NR   MIcro)
   36     dE    -1.241124e-08     3.228145e-05                           (NR   MIcro)
   36     dE    -1.338267e-08     1.943293e-05                           (NR   MIcro)
   36     dE    -1.408536e-08     2.710818e-05                           (NR   MIcro)
   37       -379.397555424423     3.051744e-05                           (NR   MAcro)
   37     dE    -7.798209e-10     1.999629e-05                           (NR   MIcro)
   37     dE    -1.685420e-09     3.362963e-05                           (NR   MIcro)
   37     dE    -2.540160e-09     3.922802e-05                           (NR   MIcro)
   37     dE    -4.554062e-09     2.578014e-05                           (NR   MIcro)
   37     dE    -5.546321e-09     2.549085e-05                           (NR   MIcro)
   37     dE    -6.351575e-09     2.503756e-05                           (NR   MIcro)
   37     dE    -6.873237e-09     1.893387e-05                           (NR   MIcro)
   37     dE    -7.407662e-09     1.404014e-05                           (NR   MIcro)
   37     dE    -7.773517e-09     1.541737e-05                           (NR   MIcro)
   37     dE    -8.136684e-09     1.525658e-05                           (NR   MIcro)
   37     dE    -8.491261e-09     1.532003e-05                           (NR   MIcro)
   37     dE    -8.860223e-09     1.707068e-05                           (NR   MIcro)
   37     dE    -9.231443e-09     1.783984e-05                           (NR   MIcro)
   37     dE    -9.784725e-09     1.416765e-05                           (NR   MIcro)
   37     dE    -1.021330e-08     2.168200e-05                           (NR   MIcro)
   38       -379.397555434745     2.214330e-05                           (NR   MAcro)
   38     dE    -4.089584e-10     1.278250e-05                           (NR   MIcro)
   38     dE    -9.179262e-10     1.803595e-05                           (NR   MIcro)
   38     dE    -1.309048e-09     1.751145e-05                           (NR   MIcro)
   38     dE    -1.704968e-09     1.591819e-05                           (NR   MIcro)
   38     dE    -2.129573e-09     1.691640e-05                           (NR   MIcro)
   38     dE    -2.533383e-09     1.683083e-05                           (NR   MIcro)
   38     dE    -2.925514e-09     1.519814e-05                           (NR   MIcro)
   38     dE    -3.344765e-09     1.654366e-05                           (NR   MIcro)
[...]
      f+1     :     0.000009
      f-1     :     0.000009
      f+2     :     0.000001
      f-2     :     0.000021
      f+3     :     0.000034
      f-3     :     0.000033
  8 H s       :     0.935989  s :     0.935989
      pz      :     0.001403  p :     0.004450
      px      :     0.000197
      py      :     0.002850
  9 H s       :     0.940416  s :     0.940416
      pz      :     0.001075  p :     0.004373
      px      :     0.000229
      py      :     0.003069
 10 H s       :     0.934193  s :     0.934193
      pz      :     0.001332  p :     0.004514
      px      :     0.000122
      py      :     0.003060
 11 H s       :     0.942263  s :     0.942263
      pz      :     0.001328  p :     0.004732
      px      :     0.000049
      py      :     0.003355

SPIN
  0 O s       :     0.000505  s :     0.000505
      pz      :     0.732346  p :     1.751638
      px      :     0.290529
      py      :     0.728764
      dz2     :    -0.000782  d :    -0.000764
      dxz     :    -0.000058
      dyz     :    -0.000102
      dx2y2   :     0.000038
      dxy     :     0.000139
      f0      :    -0.000007  f :     0.000100
      f+1     :     0.000009
      f-1     :     0.000001
      f+2     :     0.000006
      f-2     :     0.000019
      f+3     :     0.000037
      f-3     :     0.000036
  1 C s       :     0.006704  s :     0.006704
      pz      :    -0.658190  p :    -1.497005
      px      :    -0.326793
      py      :    -0.512022
      dz2     :     0.003878  d :     0.007606
      dxz     :    -0.000170
      dyz     :     0.002205
      dx2y2   :     0.001681
      dxy     :     0.000012
      f0      :     0.000168  f :     0.000223
      f+1     :    -0.000005
      f-1     :     0.000011
      f+2     :     0.000045
      f-2     :    -0.000003
      f+3     :    -0.000001
      f-3     :     0.000008
  2 C s       :    -0.004545  s :    -0.004545
      pz      :     0.223160  p :     1.385632
      px      :     0.606892
      py      :     0.555580
      dz2     :     0.001024  d :    -0.008219
      dxz     :     0.000342
      dyz     :    -0.004631
      dx2y2   :    -0.004771
      dxy     :    -0.000183
      f0      :    -0.000032  f :    -0.000302
      f+1     :     0.000009
      f-1     :    -0.000008
      f+2     :    -0.000182
      f-2     :    -0.000005
      f+3     :    -0.000005
      f-3     :    -0.000080
  3 C s       :     0.000071  s :     0.000071
      pz      :    -0.361664  p :    -1.271573
      px      :    -0.690252
      py      :    -0.219657
      dz2     :     0.003074  d :     0.008917
      dxz     :     0.000127
      dyz     :     0.004243
      dx2y2   :     0.001569
      dxy     :    -0.000097
      f0      :     0.000131  f :     0.000327
      f+1     :     0.000011
      f-1     :     0.000016
      f+2     :     0.000097
      f-2     :     0.000000
      f+3     :     0.000001
      f-3     :     0.000070
  4 C s       :    -0.015966  s :    -0.015966
      pz      :     0.528903  p :     1.165188
      px      :     0.096928
      py      :     0.539356
      dz2     :    -0.003713  d :    -0.015399
      dxz     :    -0.001210
      dyz     :    -0.005482
      dx2y2   :    -0.004694
      dxy     :    -0.000300
      f0      :    -0.000165  f :    -0.000415
      f+1     :    -0.000033
      f-1     :    -0.000021
      f+2     :    -0.000143
      f-2     :    -0.000007
      f+3     :    -0.000006
      f-3     :    -0.000040
  5 C s       :    -0.007817  s :    -0.007817
      pz      :     0.387837  p :     1.359414
      px      :     0.391142
      py      :     0.580436
      dz2     :    -0.000589  d :    -0.008495
      dxz     :     0.000690
      dyz     :    -0.003913
      dx2y2   :    -0.004410
      dxy     :    -0.000274
      f0      :    -0.000080  f :    -0.000264
      f+1     :     0.000027
      f-1     :     0.000010
      f+2     :    -0.000148
      f-2     :    -0.000008
      f+3     :    -0.000006
      f-3     :    -0.000059
  6 C s       :     0.014628  s :     0.014628
      pz      :    -0.575957  p :    -1.445417
      px      :    -0.595099
      py      :    -0.274361
      dz2     :     0.005786  d :     0.012135
      dxz     :     0.000651
      dyz     :     0.003080
      dx2y2   :     0.002188
      dxy     :     0.000429
      f0      :     0.000259  f :     0.000439
      f+1     :     0.000025
      f-1     :     0.000026
      f+2     :     0.000081
      f-2     :     0.000008
      f+3     :     0.000015
      f-3     :     0.000027
  7 O s       :     0.001509  s :     0.001509
      pz      :     0.639676  p :     1.679072
      px      :     0.612678
      py      :     0.426718
      dz2     :    -0.000913  d :    -0.001034
      dxz     :    -0.000175
      dyz     :    -0.000106
      dx2y2   :     0.000007
      dxy     :     0.000153
      f0      :    -0.000014  f :     0.000074
      f+1     :    -0.000001
      f-1     :     0.000003
      f+2     :     0.000001
      f-2     :     0.000020
      f+3     :     0.000033
      f-3     :     0.000033
  8 H s       :    -0.529533  s :    -0.529533
      pz      :     0.000655  p :     0.001952
      px      :     0.000191
      py      :     0.001106
  9 H s       :     0.497103  s :     0.497103
      pz      :    -0.000428  p :    -0.001910
      px      :    -0.000222
      py      :    -0.001260
 10 H s       :    -0.539678  s :    -0.539678
      pz      :     0.000670  p :     0.002066
      px      :     0.000117
      py      :     0.001280
 11 H s       :    -0.549034  s :    -0.549034
      pz      :     0.000671  p :     0.002065
      px      :     0.000034
      py      :     0.001360


                      *****************************
                      * MAYER POPULATION ANALYSIS *
                      *****************************

  NA   - Mulliken gross atomic population
  ZA   - Total nuclear charge
  QA   - Mulliken gross atomic charge
  VA   - Mayer's total valence
  BVA  - Mayer's bonded valence
  FA   - Mayer's free valence

  ATOM       NA         ZA         QA         VA         BVA        FA
  0 O      8.1372     8.0000    -0.1372     2.0754     0.4970     1.5785
  1 C      5.8700     6.0000     0.1300     2.3142     1.1627     1.1515
  2 C      6.0333     6.0000    -0.0333     2.5288     1.5042     1.0246
  3 C      6.0376     6.0000    -0.0376     2.4979     1.4298     1.0681
  4 C      5.9730     6.0000     0.0270     2.1577     1.2011     0.9566
  5 C      5.9960     6.0000     0.0040     2.4015     1.4409     0.9605
  6 C      5.8802     6.0000     0.1198     2.2926     1.0875     1.2051
  7 O      8.1705     8.0000    -0.1705     2.1179     0.6854     1.4325
  8 H      0.9741     1.0000     0.0259     0.9856     0.6272     0.3584
  9 H      0.9789     1.0000     0.0211     0.9861     0.6685     0.3177
 10 H      0.9712     1.0000     0.0288     0.9855     0.6141     0.3714
 11 H      0.9781     1.0000     0.0219     0.9852     0.6005     0.3847

  Mayer bond orders larger than 0.100000
B(  0-O ,  1-C ) :   0.4650 B(  1-C ,  2-C ) :   0.2572 B(  1-C ,  3-C ) :   0.3612 
B(  2-C ,  5-C ) :   0.6090 B(  2-C ,  8-H ) :   0.5840 B(  3-C ,  4-C ) :   0.3887 
B(  3-C ,  9-H ) :   0.6229 B(  4-C ,  6-C ) :   0.1849 B(  4-C , 11-H ) :   0.5683 
B(  5-C ,  6-C ) :   0.1910 B(  5-C , 10-H ) :   0.5792 B(  6-C ,  7-O ) :   0.6506 


-------
TIMINGS
-------

Total SCF time: 0 days 0 hours 25 min 20 sec 

Total time                  ....    1520.082 sec
Sum of individual times     ....    1501.491 sec  ( 98.8%)

Fock matrix formation       ....    1492.252 sec  ( 98.2%)
  Split-RI-J                ....     229.866 sec  ( 15.4% of F)
  Chain of spheres X        ....    1089.040 sec  ( 73.0% of F)
  XC integration            ....     172.596 sec  ( 11.6% of F)
    Basis function eval.    ....      38.736 sec  ( 22.4% of XC)
    Density eval.           ....      49.513 sec  ( 28.7% of XC)
    XC-Functional eval.     ....       9.901 sec  (  5.7% of XC)
    XC-Potential eval.      ....      64.343 sec  ( 37.3% of XC)
Diagonalization             ....       0.823 sec  (  0.1%)
Density matrix formation    ....       0.362 sec  (  0.0%)
Population analysis         ....       0.036 sec  (  0.0%)
Initial guess               ....       0.480 sec  (  0.0%)
Orbital Transformation      ....       4.897 sec  (  0.3%)
Orbital Orthonormalization  ....       0.000 sec  (  0.0%)
DIIS solution               ....       0.618 sec  (  0.0%)
Grid generation             ....       2.021 sec  (  0.1%)

Maximum memory used throughout the entire SCF-calculation: 126.3 MB

-------------------------   --------------------
FINAL SINGLE POINT ENERGY      -379.397578649319
-------------------------   --------------------

   --->>> g-tensor requested, so NeedSOC=true

                            ***************************************
                            *     ORCA property calculations      *
                            ***************************************

                                    ---------------------
                                    Active property flags
                                    ---------------------
   (+) Dipole Moment
   (+) g-tensor
   (+) Spin-Orbit Integrals are needed


------------------------------------------------------------------------------
                       ORCA ELECTRIC PROPERTIES CALCULATION
------------------------------------------------------------------------------

Dipole Moment Calculation                       ... on
Quadrupole Moment Calculation                   ... off
Polarizability Calculation                      ... off
GBWName                                         ... benzoquinone_orca_dft.gbw
Electron density                                ... benzoquinone_orca_dft.scfp
The origin for moment calculation is the CENTER OF MASS  = ( 0.000000,  0.000000 -0.000000)

-------------
DIPOLE MOMENT
-------------
                                X             Y             Z
Electronic contribution:      0.00646       0.00248       0.05653
Nuclear contribution   :      0.00000       0.00000      -0.13111
                        -----------------------------------------
Total Dipole Moment    :      0.00646       0.00248      -0.07459
                        -----------------------------------------
Magnitude (a.u.)       :      0.07491
Magnitude (Debye)      :      0.19040



--------------------
Rotational spectrum 
--------------------
 
Rotational constants in cm-1:     0.051088     0.015288     0.011767 
Rotational constants in MHz :  1531.584654   458.316856   352.756687 

 Dipole components along the rotational axes: 
x,y,z [a.u.] :    -0.074587     0.002483     0.006465 
x,y,z [Debye]:    -0.189584     0.006312     0.016432 

 
------------------------------------------------------------------------------
                         ORCA SPIN-ORBIT COUPLING CALCULATION
------------------------------------------------------------------------------

GBW file                                    ... benzoquinone_orca_dft.gbw
Input density                               ... benzoquinone_orca_dft.scfp
Output integrals                            ... benzoquinone_orca_dft
Operator type                               ... Mean-field/Effective potential
   One-Electron Terms                       ... 1
   Coulomb Contribution                     ... 2
   Exchange Contribution                    ... 3
   Correlation Contribution                 ... 0
   Maximum number of centers                ... 4
Setting up the integration grid             ... done
Evaluating density on the grid              ... (NumEl=   56.000038) done
Evaluating Coulomb term semi-analytically   ... done
SHARK 2-electron DoJ,X=0,1 MaxCenter=1      ... done (  1.6 sec)
Evaluating the spin-orbit operator          ... done

Maximum memory used throughout the entire SOC-calculation: 107.1 MB
Total time for SOC: 34.140
------------------------------------------------------------------------------
                                ORCA EPR/NMR CALCULATION
------------------------------------------------------------------------------

GBWName                      ... benzoquinone_orca_dft.gbw
Electron density             ... benzoquinone_orca_dft.scfp
Spin density                 ... benzoquinone_orca_dft.scfr
Spin-orbit integrals         ... benzoquinone_orca_dft
Origin for angular momentum  ... Center of electronic charge
Coordinates of the origin    ...   -0.00011544   -0.00004435   -0.00100949 (bohrs)
Details of the CP(SCF) procedure:
       Solver   = POPLE   
       MaxIter  =   300   
       Tolerance=    1.000e-08
       COSX Grid=     1   
       Op-0     =   0- 28 =>  29-271
       Op-1     =   0- 26 =>  27-271
Multiplicity                 ... 3
g-tensor                     ... 1
NMR chemical shifts          ... 0
NMR spin-spin couplings      ... 0
NMR spectrum                 ... 0
Forming RHS of the CP-SCF equations         ... 
Calc. angular momentum integrals (SHARK)    ... done

------------------------------------------------------------------------------
                           ORCA CP-SCF CALCULATION
------------------------------------------------------------------------------

Input orbitals are from        ... benzoquinone_orca_dft.gbw
Input Perturbation             ... benzoquinone_orca_dft.pin.tmp
Wavefunction output            ... benzoquinone_orca_dft.pout.tmp
Perturbation mode              ... Imaginary perturbation
Solver                         ... POPLE
Max. number of iterations      ... 300
Convergence tolerance          ... 1.000e-08
Integral handling              ... Direct
DFT GridXC                     ... 1
COSX GridX                     ... 1
COSX IntAccX                   ... 3.067
COSX Algorithm                 ... Auto
Number of perturbations        ... 3
Number of operators            ... 2
Orbital ranges used for CP-SCF:
 Operator 0:  Orbitals   0... 28  to  29...271
 Operator 1:  Orbitals   0... 26  to  27...271
Variables per perturbation     ... 13662
DFT calculation                         ... on
XC functional terms                     ... off
Hybrid DFT                              ... on
   Exchange mixing (SCF)                ...  0.200
   Exchange mixing (CP-SCF)             ...  0.200
   GGA exch. scaling(SCF)               ...  0.720
   GGA exch. scaling (CP-SCF)           ...  0.720
   GGA corr. scaling (SCF)              ...  0.810
   GGA corr. scaling (CP-SCF)           ...  0.810

CP-SCF GRID
-----------

General Integration Accuracy     IntAcc      ... 3.467
Radial Grid Type                 RadialGrid  ... OptM3 with GC (2021)
Angular Grid (max. ang.)         AngularGrid ... 1 (Lebedev-50)
Angular grid pruning method      GridPruning ... 4 (adaptive)
Weight generation scheme         WeightScheme... Becke
Basis function cutoff            BFCut       ... 1.0000e-10
Integration weight cutoff        WCut        ... 1.0000e-14
Angular grids for H and He will be reduced by one unit
Partially contracted basis set               ... off
Rotationally invariant grid construction     ... off

Total number of grid points                  ...     9398
Total number of batches                      ...      154
Average number of points per batch           ...       61
Average number of grid points per atom       ...      783

CP-SCF GRIDX
------------

General Integration Accuracy     IntAcc      ... 3.067
Radial Grid Type                 RadialGrid  ... OptM3 with GC (2021)
Angular Grid (max. ang.)         AngularGrid ... 1 (Lebedev-50)
Angular grid pruning method      GridPruning ... 4 (adaptive)
Weight generation scheme         WeightScheme... Becke
Basis function cutoff            BFCut       ... 1.0000e-10
Integration weight cutoff        WCut        ... 1.0000e-14
Angular grids for H and He will be reduced by one unit
Partially contracted basis set               ... on
Rotationally invariant grid construction     ... off

Total number of grid points                  ...     4227
Total number of batches                      ...       72
Average number of points per batch           ...       58
Average number of grid points per atom       ...      352

Memory available               ... 900.3 MB
Memory needed per perturbation ...  65.8 MB
Perturbations treated per batch... 3
Number of batches              ... 1
     CP-SCF ITERATION   0:   7.2762e+00 (   2.4 sec   0/  3 done)
     CP-SCF ITERATION   1:   2.8363e+00 (   2.3 sec   0/  3 done)
     CP-SCF ITERATION   2:   7.3095e-01 (   2.3 sec   0/  3 done)
     CP-SCF ITERATION   3:   3.4460e-01 (   2.3 sec   0/  3 done)
     CP-SCF ITERATION   4:   1.3660e-01 (   2.3 sec   0/  3 done)
     CP-SCF ITERATION   5:   7.4947e-02 (   2.3 sec   0/  3 done)
     CP-SCF ITERATION   6:   2.3407e-02 (   2.3 sec   0/  3 done)
     CP-SCF ITERATION   7:   8.8442e-03 (   2.3 sec   0/  3 done)
     CP-SCF ITERATION   8:   3.7530e-03 (   2.3 sec   0/  3 done)
     CP-SCF ITERATION   9:   1.5005e-03 (   2.3 sec   0/  3 done)
     CP-SCF ITERATION  10:   6.8316e-04 (   2.3 sec   0/  3 done)
     CP-SCF ITERATION  11:   2.6758e-04 (   2.3 sec   0/  3 done)
     CP-SCF ITERATION  12:   7.8350e-05 (   2.3 sec   0/  3 done)
     CP-SCF ITERATION  13:   2.7773e-05 (   2.3 sec   0/  3 done)
     CP-SCF ITERATION  14:   1.1028e-05 (   2.3 sec   0/  3 done)
     CP-SCF ITERATION  15:   4.7822e-06 (   2.3 sec   0/  3 done)
     CP-SCF ITERATION  16:   1.6635e-06 (   2.3 sec   0/  3 done)
     CP-SCF ITERATION  17:   5.8874e-07 (   2.3 sec   0/  3 done)
     CP-SCF ITERATION  18:   2.1882e-07 (   2.3 sec   0/  3 done)
     CP-SCF ITERATION  19:   7.5630e-08 (   2.3 sec   0/  3 done)
     CP-SCF ITERATION  20:   4.9063e-08 (   2.3 sec   0/  3 done)
     CP-SCF ITERATION  21:   1.5122e-08 (   2.3 sec   0/  3 done)
     CP-SCF ITERATION  22:   5.6148e-09 (   2.4 sec   3/  3 done)
                    *** THE CP-SCF HAS CONVERGED ***

Forming final perturbed densities           ... done
Transforming perturbed density to AO basis  ... done

Magnetic field perturbation calculated in 53.131 sec
Diamagnetic terms                           (SHARK) ...ORIGIN= -0.000115 -0.000044 -0.001009
done
terms done

-------------------
ELECTRONIC G-MATRIX
-------------------

 The g-matrix: 
              2.0224957   -0.0012074    0.0001658
             -0.0013862    2.0201866   -0.0015556
              0.0004521   -0.0019296    2.0399233

 gel          2.0023193    2.0023193    2.0023193
 gRMC        -0.0004759   -0.0004759   -0.0004759
 gDSO(tot)    0.0003109    0.0003227    0.0001580
 gPSO(tot)    0.0173443    0.0208549    0.0380848
             ----------   ----------   ----------
 g(tot)       2.0194986    2.0230210    2.0400861 iso=  2.0275352
 Delta-g      0.0171793    0.0207017    0.0377669 iso=  0.0252159
 Orientation: 
  X           0.3897846    0.9205934   -0.0239945
  Y           0.9180553   -0.3863975    0.0887214
  Z           0.0724049   -0.0566105   -0.9957674

Notes:  (1) The g-matrix conforms to the "BgS" spin Hamiltonian convention. 
        (2) The principal values are square roots of the eigenvalues of g*gT.
        (3) Orientations are eigenvectors of g*gT written as column vectors.
        (4) Individual contributions are projections of the full matrices onto the eigenvectors of g*gT.
        (5) Tensor is right-handed.


Maximum memory used throughout the entire EPRNMR-calculation: 152.6 MB

Timings for individual modules:

Sum of individual times         ...     1609.515 sec (=  26.825 min)
GTO integral calculation        ...        1.640 sec (=   0.027 min)   0.1 %
Spin-Orbit-Coupling Matrices    ...       34.136 sec (=   0.569 min)   2.1 %
SCF iterations                  ...     1520.313 sec (=  25.339 min)  94.5 %
EPR/NMR calculation             ...       53.426 sec (=   0.890 min)   3.3 %
                             ****ORCA TERMINATED NORMALLY****
TOTAL RUN TIME: 0 days 0 hours 26 minutes 50 seconds 190 msec
