
                                 *****************
                                 * O   R   C   A *
                                 *****************

                                            #,                                       
                                            ###                                      
                                            ####                                     
                                            #####                                    
                                            ######                                   
                                           ########,                                 
                                     ,,################,,,,,                         
                               ,,#################################,,                 
                          ,,##########################################,,             
                       ,#########################################, ''#####,          
                    ,#############################################,,   '####,        
                  ,##################################################,,,,####,       
                ,###########''''           ''''###############################       
              ,#####''   ,,,,##########,,,,          '''####'''          '####       
            ,##' ,,,,###########################,,,                        '##       
           ' ,,###''''                  '''############,,,                           
         ,,##''                                '''############,,,,        ,,,,,,###''
      ,#''                                            '''#######################'''  
     '                                                          ''''####''''         
             ,#######,   #######,   ,#######,      ##                                
            ,#'     '#,  ##    ##  ,#'     '#,    #''#        ######   ,####,        
            ##       ##  ##   ,#'  ##            #'  '#       #        #'  '#        
            ##       ##  #######   ##           ,######,      #####,   #    #        
            '#,     ,#'  ##    ##  '#,     ,#' ,#      #,         ##   #,  ,#        
             '#######'   ##     ##  '#######'  #'      '#     #####' # '####'        



                  #######################################################
                  #                        -***-                        #
                  #          Department of theory and spectroscopy      #
                  #    Directorship and core code : Frank Neese         #
                  #        Max Planck Institute fuer Kohlenforschung    #
                  #                Kaiser Wilhelm Platz 1               #
                  #                 D-45470 Muelheim/Ruhr               #
                  #                      Germany                        #
                  #                                                     #
                  #                  All rights reserved                #
                  #                        -***-                        #
                  #######################################################


                         Program Version 5.0.3 -  RELEASE  -


 With contributions from (in alphabetic order):
   Daniel Aravena         : Magnetic Suceptibility
   Michael Atanasov       : Ab Initio Ligand Field Theory (pilot matlab implementation)
   Alexander A. Auer      : GIAO ZORA, VPT2 properties, NMR spectrum
   Ute Becker             : Parallelization
   Giovanni Bistoni       : ED, misc. LED, open-shell LED, HFLD
   Martin Brehm           : Molecular dynamics
   Dmytro Bykov           : SCF Hessian
   Vijay G. Chilkuri      : MRCI spin determinant printing, contributions to CSF-ICE
   Dipayan Datta          : RHF DLPNO-CCSD density
   Achintya Kumar Dutta   : EOM-CC, STEOM-CC
   Dmitry Ganyushin       : Spin-Orbit,Spin-Spin,Magnetic field MRCI
   Miquel Garcia          : C-PCM and meta-GGA Hessian, CC/C-PCM, Gaussian charge scheme
   Yang Guo               : DLPNO-NEVPT2, F12-NEVPT2, CIM, IAO-localization
   Andreas Hansen         : Spin unrestricted coupled pair/coupled cluster methods
   Benjamin Helmich-Paris : MC-RPA, TRAH-SCF, COSX integrals
   Lee Huntington         : MR-EOM, pCC
   Robert Izsak           : Overlap fitted RIJCOSX, COSX-SCS-MP3, EOM
   Marcus Kettner         : VPT2
   Christian Kollmar      : KDIIS, OOCD, Brueckner-CCSD(T), CCSD density, CASPT2, CASPT2-K
   Simone Kossmann        : Meta GGA functionals, TD-DFT gradient, OOMP2, MP2 Hessian
   Martin Krupicka        : Initial AUTO-CI
   Lucas Lang             : DCDCAS
   Marvin Lechner         : AUTO-CI (C++ implementation), FIC-MRCC
   Dagmar Lenk            : GEPOL surface, SMD
   Dimitrios Liakos       : Extrapolation schemes; Compound Job, initial MDCI parallelization
   Dimitrios Manganas     : Further ROCIS development; embedding schemes
   Dimitrios Pantazis     : SARC Basis sets
   Anastasios Papadopoulos: AUTO-CI, single reference methods and gradients
   Taras Petrenko         : DFT Hessian,TD-DFT gradient, ASA, ECA, R-Raman, ABS, FL, XAS/XES, NRVS
   Peter Pinski           : DLPNO-MP2, DLPNO-MP2 Gradient
   Christoph Reimann      : Effective Core Potentials
   Marius Retegan         : Local ZFS, SOC
   Christoph Riplinger    : Optimizer, TS searches, QM/MM, DLPNO-CCSD(T), (RO)-DLPNO pert. Triples
   Tobias Risthaus        : Range-separated hybrids, TD-DFT gradient, RPA, STAB
   Michael Roemelt        : Original ROCIS implementation
   Masaaki Saitow         : Open-shell DLPNO-CCSD energy and density
   Barbara Sandhoefer     : DKH picture change effects
   Avijit Sen             : IP-ROCIS
   Kantharuban Sivalingam : CASSCF convergence, NEVPT2, FIC-MRCI
   Bernardo de Souza      : ESD, SOC TD-DFT
   Georgi Stoychev        : AutoAux, RI-MP2 NMR, DLPNO-MP2 response
   Willem Van den Heuvel  : Paramagnetic NMR
   Boris Wezisla          : Elementary symmetry handling
   Frank Wennmohs         : Technical directorship


 We gratefully acknowledge several colleagues who have allowed us to
 interface, adapt or use parts of their codes:
   Stefan Grimme, W. Hujo, H. Kruse, P. Pracht,  : VdW corrections, initial TS optimization,
                  C. Bannwarth, S. Ehlert          DFT functionals, gCP, sTDA/sTD-DF
   Ed Valeev, F. Pavosevic, A. Kumar             : LibInt (2-el integral package), F12 methods
   Garnet Chan, S. Sharma, J. Yang, R. Olivares  : DMRG
   Ulf Ekstrom                                   : XCFun DFT Library
   Mihaly Kallay                                 : mrcc  (arbitrary order and MRCC methods)
   Jiri Pittner, Ondrej Demel                    : Mk-CCSD
   Frank Weinhold                                : gennbo (NPA and NBO analysis)
   Christopher J. Cramer and Donald G. Truhlar   : smd solvation model
   Lars Goerigk                                  : TD-DFT with DH, B97 family of functionals
   V. Asgeirsson, H. Jonsson                     : NEB implementation
   FAccTs GmbH                                   : IRC, NEB, NEB-TS, DLPNO-Multilevel, CI-OPT
                                                   MM, QMMM, 2- and 3-layer-ONIOM, Crystal-QMMM,
                                                   LR-CPCM, SF, NACMEs, symmetry and pop. for TD-DFT,
                                                   nearIR, NL-DFT gradient (VV10), updates on ESD,
                                                   ML-optimized integration grids
   S Lehtola, MJT Oliveira, MAL Marques          : LibXC Library
   Liviu Ungur et al                             : ANISO software


 Your calculation uses the libint2 library for the computation of 2-el integrals
 For citations please refer to: http://libint.valeyev.net

 Your ORCA version has been built with support for libXC version: 5.1.0
 For citations please refer to: https://tddft.org/programs/libxc/

 This ORCA versions uses:
   CBLAS   interface :  Fast vector & matrix operations
   LAPACKE interface :  Fast linear algebra routines
   SCALAPACK package :  Parallel linear algebra routines
   Shared memory     :  Shared parallel matrices
   BLAS/LAPACK       :  OpenBLAS 0.3.15  USE64BITINT DYNAMIC_ARCH NO_AFFINITY Haswell SINGLE_THREADED
        Core in use  :  Haswell
   Copyright (c) 2011-2014, The OpenBLAS Project




***************************************
The coordinates will be read from file: pentacene_opt.xyz
***************************************


================================================================================

----- Orbital basis set information -----
Your calculation utilizes the basis: def2-TZVP
   F. Weigend and R. Ahlrichs, Phys. Chem. Chem. Phys. 7, 3297 (2005).

----- AuxJ basis set information -----
Your calculation utilizes the auxiliary basis: def2/J
   F. Weigend, Phys. Chem. Chem. Phys. 8, 1057 (2006).

================================================================================
                                        WARNINGS
                       Please study these warnings very carefully!
================================================================================


WARNING: your system is open-shell and RHF/RKS was chosen
  ===> : WILL SWITCH to UHF/UKS


INFO   : the flag for use of the SHARK integral package has been found!

================================================================================
                                       INPUT FILE
================================================================================
NAME = pentacene_opt_orca_dft.inp
|  1> # List of keywords
|  2> !B3LYP def2-TZVP SOMF(1X) SMALLPRINT #DKH
|  3> 
|  4> %METHOD 			# DFT input block
|  5> END	
|  6> 
|  7> %SCF                            # Control of the SCF procedure
|  8>  maxiter 500                    # max. number of SCF iterations
|  9>  TolE 1e-8                      # energy change between two cycles
| 10>  TolErr 5e-7                    # DIIS error convergence
| 11>  ConvForced 1                   # 0: converg. not mandatory; 1: break if not meet convergence
| 12> END
| 13> 
| 14> %EPRNMR 			# Control of EPR and NMR calculations
| 15>  gtensor 1			# Calculate the g-tensor 
| 16>  maxiter 300			# max. number of iterations
| 17>  Tol 1e-8			# g-tensor convergence
| 18>  ori CenterOfElCharge		# origin for magnetic properties
| 19>  printlevel 2			# detailed information
| 20> END
| 21> 
| 22> * XYZFILE 0 3 pentacene_opt.xyz 		# Coordinates
| 23> 
| 24> 
| 25>                          ****END OF INPUT****
================================================================================

                       ****************************
                       * Single Point Calculation *
                       ****************************

---------------------------------
CARTESIAN COORDINATES (ANGSTROEM)
---------------------------------
  C      1.153056   -0.893189    0.001130
  C      2.361602   -1.559227    0.004541
  H      2.370140   -2.644095    0.007996
  C     -0.084853   -1.575884    0.000028
  H     -0.080814   -2.660067    0.000250
  C     -1.327813   -0.902431   -0.001288
  C     -2.531365   -1.577456   -0.003989
  H     -2.531821   -2.662359   -0.006752
  C     -3.778290   -0.896006   -0.002720
  C     -5.005631   -1.582801   -0.006027
  H     -4.997779   -2.666743   -0.010998
  C     -6.197885   -0.895919   -0.003004
  H     -7.134995   -1.437025   -0.005751
  C     -6.203109    0.506529    0.003737
  H     -7.144224    1.040637    0.006801
  C     -5.016006    1.202277    0.006372
  H     -5.016229    2.286246    0.011346
  C     -3.783582    0.524646    0.002688
  C      3.603416   -0.868507    0.003142
  C      4.835839   -1.546135    0.007509
  H      4.836062   -2.630099    0.013583
  C      6.022943   -0.850392    0.004191
  H      6.964058   -1.384498    0.007837
  C      6.017720    0.552048   -0.004003
  H      6.954831    1.093150   -0.007431
  C      4.825468    1.238929   -0.007588
  H      4.817616    2.322865   -0.013661
  C      3.598125    0.552139   -0.003475
  C      2.351200    1.233590   -0.005075
  H      2.351656    2.318491   -0.008554
  C      1.147648    0.558568   -0.001776
  C     -0.095312    1.232022   -0.000724
  H     -0.099350    2.316205   -0.001002
  C     -0.238661    2.638406    0.004476
  C     -1.474199    3.252936    0.003422
  H     -2.371016    2.642444   -0.003069

----------------------------
CARTESIAN COORDINATES (A.U.)
----------------------------
  NO LB      ZA    FRAG     MASS         X           Y           Z
   0 C     6.0000    0    12.011    2.178960   -1.687883    0.002135
   1 C     6.0000    0    12.011    4.462781   -2.946512    0.008582
   2 H     1.0000    0     1.008    4.478916   -4.996615    0.015111
   3 C     6.0000    0    12.011   -0.160349   -2.977989    0.000053
   4 H     1.0000    0     1.008   -0.152717   -5.026799    0.000472
   5 C     6.0000    0    12.011   -2.509204   -1.705348   -0.002435
   6 C     6.0000    0    12.011   -4.783586   -2.980960   -0.007538
   7 H     1.0000    0     1.008   -4.784448   -5.031130   -0.012760
   8 C     6.0000    0    12.011   -7.139933   -1.693206   -0.005140
   9 C     6.0000    0    12.011   -9.459272   -2.991061   -0.011390
  10 H     1.0000    0     1.008   -9.444434   -5.039413   -0.020784
  11 C     6.0000    0    12.011  -11.712305   -1.693042   -0.005677
  12 H     1.0000    0     1.008  -13.483187   -2.715584   -0.010869
  13 C     6.0000    0    12.011  -11.722177    0.957201    0.007062
  14 H     1.0000    0     1.008  -13.500627    1.966520    0.012852
  15 C     6.0000    0    12.011   -9.478878    2.271973    0.012042
  16 H     1.0000    0     1.008   -9.479298    4.320379    0.021440
  17 C     6.0000    0    12.011   -7.149935    0.991437    0.005079
  18 C     6.0000    0    12.011    6.809470   -1.641241    0.005937
  19 C     6.0000    0    12.011    9.138411   -2.921772    0.014190
  20 H     1.0000    0     1.008    9.138832   -4.970167    0.025669
  21 C     6.0000    0    12.011   11.381712   -1.607008    0.007920
  22 H     1.0000    0     1.008   13.160162   -2.616321    0.014810
  23 C     6.0000    0    12.011   11.371843    1.043220   -0.007565
  24 H     1.0000    0     1.008   13.142726    2.065754   -0.014043
  25 C     6.0000    0    12.011    9.118812    2.341237   -0.014339
  26 H     1.0000    0     1.008    9.103974    4.389579   -0.025816
  27 C     6.0000    0    12.011    6.799471    1.043392   -0.006567
  28 C     6.0000    0    12.011    4.443125    2.331147   -0.009590
  29 H     1.0000    0     1.008    4.443985    4.381314   -0.016165
  30 C     6.0000    0    12.011    2.168741    1.055540   -0.003355
  31 C     6.0000    0    12.011   -0.180113    2.328184   -0.001367
  32 H     1.0000    0     1.008   -0.187745    4.376994   -0.001893
  33 C     6.0000    0    12.011   -0.451004    4.985864    0.008458
  34 C     6.0000    0    12.011   -2.785833    6.147159    0.006467
  35 H     1.0000    0     1.008   -4.480571    4.993496   -0.005800

--------------------------------
INTERNAL COORDINATES (ANGSTROEM)
--------------------------------
 C      0   0   0     0.000000000000     0.00000000     0.00000000
 C      1   0   0     1.379928000018     0.00000000     0.00000000
 H      2   1   0     1.084906999997   119.31062500     0.00000000
 C      1   2   3     1.413680000078   122.26425700   359.90691400
 H      4   1   2     1.084191000023   118.66285500   359.89840099
 C      4   1   2     1.413679999987   122.67428800   179.89542700
 C      6   4   1     1.379927999989   122.26424100   179.91988399
 H      7   6   4     1.084907000003   119.31061400   359.90329601
 C      7   6   4     1.420984999990   122.05665100   179.87707500
 C      9   7   6     1.406437000002   122.11246800   179.97318400
 H     10   9   7     1.083981000025   118.81575300   359.91919100
 C     10   9   7     1.375967000061   120.82183900   179.91800900
 H     12  10   9     1.082117999996   120.04930800   179.99110800
 C     12  10   9     1.402474000014   120.16081499     0.00000000
 H     14  12  10     1.082117999987   119.78991200   180.04371000
 C     14  12  10     1.375966999950   120.16081701     0.04757700
 H     16  14  12     1.083980999986   120.36248701   179.98564300
 C     16  14  12     1.406437000083   120.82182800     0.00000000
 C      2   1   3     1.420984999967   122.05663600   179.97441100
 C     19   2   1     1.406436999953   122.11248500   179.95701700
 H     20  19   2     1.083981000024   118.81576100   359.90970200
 C     20  19   2     1.375966999971   120.82183501   179.91126300
 H     22  20  19     1.082117999977   120.04930801   179.98662800
 C     22  20  19     1.402474000005   120.16081400     0.00000000
 H     24  22  20     1.082117999984   119.78990500   180.05227200
 C     24  22  20     1.375967000038   120.16081300     0.05662001
 H     26  24  22     1.083980999927   120.36250100   179.98418700
 C     26  24  22     1.406438000009   120.82182400     0.00000000
 C     28  26  24     1.420984999969   122.11248700   179.90752900
 H     29  28  26     1.084906999985   118.63283801   359.93583500
 C     29  28  26     1.379929000013   122.05660700   179.96374400
 C     31  29  28     1.413679999959   122.26426300   179.87416100
 H     32  31  29     1.084191000036   118.66288300   359.90497000
 C     33  32  31     0.351070484439   156.81418704   182.24891751
 C     34  33  32     1.379928999993   139.81779592   356.74816281
 H     35  34  33     1.084906999977   119.31054700     1.06886826

---------------------------
INTERNAL COORDINATES (A.U.)
---------------------------
 C      0   0   0     0.000000000000     0.00000000     0.00000000
 C      1   0   0     2.607686004564     0.00000000     0.00000000
 H      2   1   0     2.050177110769   119.31062500     0.00000000
 C      1   2   3     2.671468041149   122.26425700   359.90691400
 H      4   1   2     2.048824066907   118.66285500   359.89840099
 C      4   1   2     2.671468040978   122.67428800   179.89542700
 C      6   4   1     2.607686004510   122.26424100   179.91988399
 H      7   6   4     2.050177110780   119.31061400   359.90329601
 C      7   6   4     2.685272490392   122.05665100   179.87707500
 C      9   7   6     2.657780754617   122.11246800   179.97318400
 H     10   9   7     2.048427224422   118.81575300   359.91919100
 C     10   9   7     2.600200799429   120.82183900   179.91800900
 H     12  10   9     2.044906664580   120.04930800   179.99110800
 C     12  10   9     2.650291769971   120.16081499     0.00000000
 H     14  12  10     2.044906664562   119.78991200   180.04371000
 C     14  12  10     2.600200799219   120.16081701     0.04757700
 H     16  14  12     2.048427224347   120.36248701   179.98564300
 C     16  14  12     2.657780754770   120.82182800     0.00000000
 C      2   1   3     2.685272490348   122.05663600   179.97441100
 C     19   2   1     2.657780754525   122.11248500   179.95701700
 H     20  19   2     2.048427224419   118.81576100   359.90970200
 C     20  19   2     2.600200799259   120.82183501   179.91126300
 H     22  20  19     2.044906664543   120.04930801   179.98662800
 C     22  20  19     2.650291769955   120.16081400     0.00000000
 H     24  22  20     2.044906664556   119.78990500   180.05227200
 C     24  22  20     2.600200799386   120.16081300     0.05662001
 H     26  24  22     2.048427224236   120.36250100   179.98418700
 C     26  24  22     2.657782644357   120.82182400     0.00000000
 C     28  26  24     2.685272490351   122.11248700   179.90752900
 H     29  28  26     2.050177110747   118.63283801   359.93583500
 C     29  28  26     2.607687894280   122.05660700   179.96374400
 C     31  29  28     2.671468040925   122.26426300   179.87416100
 H     32  31  29     2.048824066930   118.66288300   359.90497000
 C     33  32  31     0.663427069292   156.81418704   182.24891751
 C     34  33  32     2.607687894243   139.81779592   356.74816281
 H     35  34  33     2.050177110731   119.31054700     1.06886826

---------------------
BASIS SET INFORMATION
---------------------
There are 2 groups of distinct atoms

 Group   1 Type C   : 11s6p2d1f contracted to 5s3p2d1f pattern {62111/411/11/1}
 Group   2 Type H   : 5s1p contracted to 3s1p pattern {311/1}

Atom   0C    basis set group =>   1
Atom   1C    basis set group =>   1
Atom   2H    basis set group =>   2
Atom   3C    basis set group =>   1
Atom   4H    basis set group =>   2
Atom   5C    basis set group =>   1
Atom   6C    basis set group =>   1
Atom   7H    basis set group =>   2
Atom   8C    basis set group =>   1
Atom   9C    basis set group =>   1
Atom  10H    basis set group =>   2
Atom  11C    basis set group =>   1
Atom  12H    basis set group =>   2
Atom  13C    basis set group =>   1
Atom  14H    basis set group =>   2
Atom  15C    basis set group =>   1
Atom  16H    basis set group =>   2
Atom  17C    basis set group =>   1
Atom  18C    basis set group =>   1
Atom  19C    basis set group =>   1
Atom  20H    basis set group =>   2
Atom  21C    basis set group =>   1
Atom  22H    basis set group =>   2
Atom  23C    basis set group =>   1
Atom  24H    basis set group =>   2
Atom  25C    basis set group =>   1
Atom  26H    basis set group =>   2
Atom  27C    basis set group =>   1
Atom  28C    basis set group =>   1
Atom  29H    basis set group =>   2
Atom  30C    basis set group =>   1
Atom  31C    basis set group =>   1
Atom  32H    basis set group =>   2
Atom  33C    basis set group =>   1
Atom  34C    basis set group =>   1
Atom  35H    basis set group =>   2
---------------------------------
AUXILIARY/J BASIS SET INFORMATION
---------------------------------
There are 2 groups of distinct atoms

 Group   1 Type C   : 12s5p4d2f1g contracted to 6s4p3d1f1g pattern {711111/2111/211/2/1}
 Group   2 Type H   : 5s2p1d contracted to 3s1p1d pattern {311/2/1}

Atom   0C    basis set group =>   1
Atom   1C    basis set group =>   1
Atom   2H    basis set group =>   2
Atom   3C    basis set group =>   1
Atom   4H    basis set group =>   2
Atom   5C    basis set group =>   1
Atom   6C    basis set group =>   1
Atom   7H    basis set group =>   2
Atom   8C    basis set group =>   1
Atom   9C    basis set group =>   1
Atom  10H    basis set group =>   2
Atom  11C    basis set group =>   1
Atom  12H    basis set group =>   2
Atom  13C    basis set group =>   1
Atom  14H    basis set group =>   2
Atom  15C    basis set group =>   1
Atom  16H    basis set group =>   2
Atom  17C    basis set group =>   1
Atom  18C    basis set group =>   1
Atom  19C    basis set group =>   1
Atom  20H    basis set group =>   2
Atom  21C    basis set group =>   1
Atom  22H    basis set group =>   2
Atom  23C    basis set group =>   1
Atom  24H    basis set group =>   2
Atom  25C    basis set group =>   1
Atom  26H    basis set group =>   2
Atom  27C    basis set group =>   1
Atom  28C    basis set group =>   1
Atom  29H    basis set group =>   2
Atom  30C    basis set group =>   1
Atom  31C    basis set group =>   1
Atom  32H    basis set group =>   2
Atom  33C    basis set group =>   1
Atom  34C    basis set group =>   1
Atom  35H    basis set group =>   2
------------------------------------------------------------------------------
                           ORCA GTO INTEGRAL CALCULATION
                           -- RI-GTO INTEGRALS CHOSEN --
------------------------------------------------------------------------------
------------------------------------------------------------------------------
                   ___                                                        
                  /   \      - P O W E R E D   B Y -                         
                 /     \                                                     
                 |  |  |   _    _      __       _____    __    __             
                 |  |  |  | |  | |    /  \     |  _  \  |  |  /  |          
                  \  \/   | |  | |   /    \    | | | |  |  | /  /          
                 / \  \   | |__| |  /  /\  \   | |_| |  |  |/  /          
                |  |  |   |  __  | /  /__\  \  |    /   |      \           
                |  |  |   | |  | | |   __   |  |    \   |  |\   \          
                \     /   | |  | | |  |  |  |  | |\  \  |  | \   \       
                 \___/    |_|  |_| |__|  |__|  |_| \__\ |__|  \__/        
                                                                              
                      - O R C A' S   B I G   F R I E N D -                    
                                      &                                       
                       - I N T E G R A L  F E E D E R -                       
                                                                              
 v1 FN, 2020, v2 2021                                                         
------------------------------------------------------------------------------


Reading SHARK input file pentacene_opt_orca_dft.SHARKINP.tmp ... ok
----------------------
SHARK INTEGRAL PACKAGE
----------------------

Number of atoms                             ...     36
Number of basis functions                   ...    766
Number of shells                            ...    298
Maximum angular momentum                    ...      3
Integral batch strategy                     ... SHARK/LIBINT Hybrid
RI-J (if used) integral strategy            ... SPLIT-RIJ (Revised 2003 algorithm where possible)
Printlevel                                  ...      1
Contraction scheme used                     ... SEGMENTED contraction
Coulomb Range Separation                    ... NOT USED
Exchange Range Separation                   ... NOT USED
Finite Nucleus Model                        ... NOT USED
Auxiliary Coulomb fitting basis             ... AVAILABLE
   # of basis functions in Aux-J            ...   1232
   # of shells in Aux-J                     ...    400
   Maximum angular momentum in Aux-J        ...      4
Auxiliary J/K fitting basis                 ... NOT available
Auxiliary Correlation fitting basis         ... NOT available
Auxiliary 'external' fitting basis          ... NOT available
Integral threshold                          ...     1.000000e-10
Primitive cut-off                           ...     1.000000e-11
Primitive pair pre-selection threshold      ...     1.000000e-11

Calculating pre-screening integrals         ... done (  0.3 sec) Dimension = 298
Organizing shell pair data                  ... done (  0.3 sec)
Shell pair information
Total number of shell pairs                 ...     44551
Shell pairs after pre-screening             ...     28769
Total number of primitive shell pairs       ...    138076
Primitive shell pairs kept                  ...     59393
          la=0 lb=0:   7083 shell pairs
          la=1 lb=0:   8263 shell pairs
          la=1 lb=1:   2375 shell pairs
          la=2 lb=0:   4190 shell pairs
          la=2 lb=1:   2413 shell pairs
          la=2 lb=2:    625 shell pairs
          la=3 lb=0:   1950 shell pairs
          la=3 lb=1:   1143 shell pairs
          la=3 lb=2:    578 shell pairs
          la=3 lb=3:    149 shell pairs

Calculating one electron integrals          ... done (  0.3 sec)
Calculating RI/J V-Matrix + Cholesky decomp.... done (  0.1 sec)
Calculating Nuclear repulsion               ... done (  0.0 sec) ENN=   1451.442696121477 Eh

SHARK setup successfully completed in   2.6 seconds

Maximum memory used throughout the entire GTOINT-calculation: 391.5 MB
-------------------------------------------------------------------------------
                                 ORCA SCF
-------------------------------------------------------------------------------

------------
SCF SETTINGS
------------
Hamiltonian:
 Density Functional     Method          .... DFT(GTOs)
 Exchange Functional    Exchange        .... B88
   X-Alpha parameter    XAlpha          ....  0.666667
   Becke's b parameter  XBeta           ....  0.004200
 Correlation Functional Correlation     .... LYP
 LDA part of GGA corr.  LDAOpt          .... VWN-5
 Gradients option       PostSCFGGA      .... off
 Hybrid DFT is turned on
   Fraction HF Exchange ScalHFX         ....  0.200000
   Scaling of DF-GGA-X  ScalDFX         ....  0.720000
   Scaling of DF-GGA-C  ScalDFC         ....  0.810000
   Scaling of DF-LDA-C  ScalLDAC        ....  1.000000
   Perturbative correction              ....  0.000000
   Density functional embedding theory  .... OFF
   NL short-range parameter             ....  4.800000
 RI-approximation to the Coulomb term is turned on
   Number of AuxJ basis functions       .... 1232
   RIJ-COSX (HFX calculated with COS-X)).... on


General Settings:
 Integral files         IntName         .... pentacene_opt_orca_dft
 Hartree-Fock type      HFTyp           .... UHF
 Total Charge           Charge          ....    0
 Multiplicity           Mult            ....    3
 Number of Electrons    NEL             ....  146
 Basis Dimension        Dim             ....  766
 Nuclear Repulsion      ENuc            ....   1451.4426961215 Eh

Convergence Acceleration:
 DIIS                   CNVDIIS         .... on
   Start iteration      DIISMaxIt       ....    12
   Startup error        DIISStart       ....  0.200000
   # of expansion vecs  DIISMaxEq       ....     5
   Bias factor          DIISBfac        ....   1.050
   Max. coefficient     DIISMaxC        ....  10.000
 Trust-Rad. Augm. Hess. CNVTRAH         .... auto
   Auto Start mean grad. ratio tolernc. ....  1.125000
   Auto Start start iteration           ....    20
   Auto Start num. interpolation iter.  ....    10
   Max. Number of Micro iterations      ....    16
   Max. Number of Macro iterations      .... Maxiter - #DIIS iter
   Number of Davidson start vectors     ....     2
   Converg. threshold I  (grad. norm)   ....   5.000e-05
   Converg. threshold II (energy diff.) ....   1.000e-08
   Grad. Scal. Fac. for Micro threshold ....   0.100
   Minimum threshold for Micro iter.    ....   0.010
   NR start threshold (gradient norm)   ....   0.001
   Initial trust radius                 ....   0.400
   Minimum AH scaling param. (alpha)    ....   1.000
   Maximum AH scaling param. (alpha)    .... 1000.000
   Orbital update algorithm             .... Taylor
   White noise on init. David. guess    .... on
   Maximum white noise                  ....   0.010
   Quad. conv. algorithm                .... NR
 SOSCF                  CNVSOSCF        .... off
 Level Shifting         CNVShift        .... on
   Level shift para.    LevelShift      ....    0.2500
   Turn off err/grad.   ShiftErr        ....    0.0010
 Zerner damping         CNVZerner       .... off
 Static damping         CNVDamp         .... on
   Fraction old density DampFac         ....    0.7000
   Max. Damping (<1)    DampMax         ....    0.9800
   Min. Damping (>=0)   DampMin         ....    0.0000
   Turn off err/grad.   DampErr         ....    0.1000
 Fernandez-Rico         CNVRico         .... off

SCF Procedure:
 Maximum # iterations   MaxIter         ....   500
 SCF integral mode      SCFMode         .... Direct
   Integral package                     .... SHARK and LIBINT hybrid scheme
 Reset frequency        DirectResetFreq ....    20
 Integral Threshold     Thresh          ....  1.000e-10 Eh
 Primitive CutOff       TCut            ....  1.000e-11 Eh

Convergence Tolerance:
 Convergence Check Mode ConvCheckMode   .... Total+1el-Energy
 Convergence forced     ConvForced      .... 1
 Energy Change          TolE            ....  1.000e-08 Eh
 1-El. energy change                    ....  1.000e-05 Eh
 DIIS Error             TolErr          ....  5.000e-07


Diagonalization of the overlap matrix:
Smallest eigenvalue                        ... 5.018e-06
Time for diagonalization                   ...    0.137 sec
Threshold for overlap eigenvalues          ... 1.000e-08
Number of eigenvalues below threshold      ... 0
Time for construction of square roots      ...    0.055 sec
Total time needed                          ...    0.193 sec

Time for model grid setup =    1.461 sec

------------------------------
INITIAL GUESS: MODEL POTENTIAL
------------------------------
Loading Hartree-Fock densities                     ... done
Calculating cut-offs                               ... done
Initializing the effective Hamiltonian             ... done
Setting up the integral package (SHARK)            ... done
Starting the Coulomb interaction                   ... done (   3.8 sec)
Reading the grid                                   ... done
Mapping shells                                     ... done
Starting the XC term evaluation                    ... done (   2.1 sec)
  promolecular density results
     # of electrons  =    145.979500808
     EX              =   -117.302372908
     EC              =     -4.900202775
     EX+EC           =   -122.202575684
Transforming the Hamiltonian                       ... done (   0.1 sec)
Diagonalizing the Hamiltonian                      ... done (   0.1 sec)
Back transforming the eigenvectors                 ... done (   0.0 sec)
Now organizing SCF variables                       ... done
                      ------------------
                      INITIAL GUESS DONE (   7.7 sec)
                      ------------------
-------------------
DFT GRID GENERATION
-------------------

General Integration Accuracy     IntAcc      ... 4.388
Radial Grid Type                 RadialGrid  ... OptM3 with GC (2021)
Angular Grid (max. ang.)         AngularGrid ... 4 (Lebedev-302)
Angular grid pruning method      GridPruning ... 4 (adaptive)
Weight generation scheme         WeightScheme... Becke
Basis function cutoff            BFCut       ... 1.0000e-10
Integration weight cutoff        WCut        ... 1.0000e-14
Angular grids for H and He will be reduced by one unit
Partially contracted basis set               ... off
Rotationally invariant grid construction     ... off

Total number of grid points                  ...   175931
Total number of batches                      ...     2770
Average number of points per batch           ...       63
Average number of grid points per atom       ...     4887
Time for grid setup =    4.598 sec

--------------------
COSX GRID GENERATION
--------------------

GRIDX 1
-------
General Integration Accuracy     IntAcc      ... 3.816
Radial Grid Type                 RadialGrid  ... OptM3 with GC (2021)
Angular Grid (max. ang.)         AngularGrid ... 1 (Lebedev-50)
Angular grid pruning method      GridPruning ... 4 (adaptive)
Weight generation scheme         WeightScheme... Becke
Basis function cutoff            BFCut       ... 1.0000e-10
Integration weight cutoff        WCut        ... 1.0000e-14
Angular grids for H and He will be reduced by one unit
Partially contracted basis set               ... on
Rotationally invariant grid construction     ... off

Total number of grid points                  ...    22425
Total number of batches                      ...      364
Average number of points per batch           ...       61
Average number of grid points per atom       ...      623
UseSFitting                                  ... on

GRIDX 2
-------
General Integration Accuracy     IntAcc      ... 4.020
Radial Grid Type                 RadialGrid  ... OptM3 with GC (2021)
Angular Grid (max. ang.)         AngularGrid ... 2 (Lebedev-110)
Angular grid pruning method      GridPruning ... 4 (adaptive)
Weight generation scheme         WeightScheme... Becke
Basis function cutoff            BFCut       ... 1.0000e-10
Integration weight cutoff        WCut        ... 1.0000e-14
Angular grids for H and He will be reduced by one unit
Partially contracted basis set               ... on
Rotationally invariant grid construction     ... off

Total number of grid points                  ...    49070
Total number of batches                      ...      785
Average number of points per batch           ...       62
Average number of grid points per atom       ...     1363
UseSFitting                                  ... on

GRIDX 3
-------
General Integration Accuracy     IntAcc      ... 4.338
Radial Grid Type                 RadialGrid  ... OptM3 with GC (2021)
Angular Grid (max. ang.)         AngularGrid ... 3 (Lebedev-194)
Angular grid pruning method      GridPruning ... 4 (adaptive)
Weight generation scheme         WeightScheme... Becke
Basis function cutoff            BFCut       ... 1.0000e-10
Integration weight cutoff        WCut        ... 1.0000e-14
Angular grids for H and He will be reduced by one unit
Partially contracted basis set               ... on
Rotationally invariant grid construction     ... off

Total number of grid points                  ...   107708
Total number of batches                      ...     1703
Average number of points per batch           ...       63
Average number of grid points per atom       ...     2992
UseSFitting                                  ... on

Time for X-Grid setup             =    7.931 sec

--------------
SCF ITERATIONS
--------------
ITER       Energy         Delta-E        Max-DP      RMS-DP      [F,P]     Damp
               ***  Starting incremental Fock matrix formation  ***
  0   -842.5951338300   0.000000000000 0.37588031  0.00124182  0.2761380 0.7000
  1   -843.0559955120  -0.460861681952 0.60884868  0.00132903  0.1074554 0.7000
                               ***Turning on DIIS***
  2   -843.1904594975  -0.134463985562 1.56738696  0.00323028  0.0298449 0.0000
  3   -843.4694980291  -0.279038531579 0.42953347  0.00115811  0.0435039 0.0000
  4   -843.5136331262  -0.044135097112 0.23031644  0.00063001  0.0283349 0.0000
  5   -843.5284491377  -0.014816011471 0.10859777  0.00023968  0.0068223 0.0000
  6   -843.5296986706  -0.001249532963 0.05429876  0.00012997  0.0029745 0.0000
  7   -843.5301815935  -0.000482922878 0.02740812  0.00006172  0.0013842 0.0000
  8   -843.5304248746  -0.000243281118 0.01567920  0.00004071  0.0010945 0.0000
  9   -843.5306155217  -0.000190647033 0.12919913  0.00025753  0.0009689 0.0000
               *** Restarting incremental Fock matrix formation ***
                                   *** Resetting DIIS ***
 10   -843.5308801425  -0.000264620829 0.04652455  0.00010363  0.0016184 0.0000
 11   -843.5309394355  -0.000059293012 0.00850849  0.00002384  0.0016574 0.0000
 12   -843.5310550093  -0.000115573751 0.03615425  0.00008807  0.0005992 0.0000
 13   -843.5311425275  -0.000087518228 0.00423377  0.00000792  0.0015314 0.0000
 14   -843.5311729410  -0.000030413548 0.00736099  0.00001367  0.0012548 0.0000
 15   -843.5312098321  -0.000036891022 0.00665882  0.00001263  0.0010531 0.0000
 16   -843.5312359107  -0.000026078673 0.02760682  0.00005708  0.0008881 0.0000
 17   -843.5313290412  -0.000093130422 0.02519238  0.00004885  0.0007471 0.0000
 18   -843.5314085192  -0.000079478094 0.01227609  0.00003899  0.0006109 0.0000
 19   -843.5314359932  -0.000027473939 0.00202271  0.00000837  0.0010845 0.0000

 WARNING: the maximum gradient error descreased on average only by a factor   1.1
          during the last 20 iterations

                      *** Initiating the TRAH-SCF procedure ***


TRAH GRIDX
----------

General Integration Accuracy     IntAcc      ... 3.067
Radial Grid Type                 RadialGrid  ... OptM3 with GC (2021)
Angular Grid (max. ang.)         AngularGrid ... 1 (Lebedev-50)
Angular grid pruning method      GridPruning ... 4 (adaptive)
Weight generation scheme         WeightScheme... Becke
Basis function cutoff            BFCut       ... 1.0000e-10
Integration weight cutoff        WCut        ... 1.0000e-14
Angular grids for H and He will be reduced by one unit
Partially contracted basis set               ... on
Rotationally invariant grid construction     ... off

Total number of grid points                  ...    11908
Total number of batches                      ...      210
Average number of points per batch           ...       56
Average number of grid points per atom       ...      331


TRAH GRID
---------

General Integration Accuracy     IntAcc      ... 3.467
Radial Grid Type                 RadialGrid  ... OptM3 with GC (2021)
Angular Grid (max. ang.)         AngularGrid ... 1 (Lebedev-50)
Angular grid pruning method      GridPruning ... 4 (adaptive)
Weight generation scheme         WeightScheme... Becke
Basis function cutoff            BFCut       ... 1.0000e-10
Integration weight cutoff        WCut        ... 1.0000e-14
Angular grids for H and He will be reduced by one unit
Partially contracted basis set               ... off
Rotationally invariant grid construction     ... off

Total number of grid points                  ...    26024
Total number of batches                      ...      420
Average number of points per batch           ...       61
Average number of grid points per atom       ...      723

 --------------------------------------------------------------------------------------------
   Iter.        energy            ||Error||_2        Shift      TRadius  Mac/Mic        Rej.
 --------------------------------------------------------------------------------------------
    0       -843.531464761632     4.351086e-03                     0.400 (TRAH MAcro)   No
    0     dE    -1.116153e-05     5.460921e-03    -1.1161e-05      0.003 (TRAH MIcro)
    0     dE    -7.655326e-05     8.496731e-03    -7.6446e-05      0.037 (TRAH MIcro)
    0     dE    -1.160746e-03     1.969044e-02    -2.9171e-03      0.400 (TRAH MIcro)
    0     dE    -1.340121e-03     1.000467e-02    -5.3777e-03      0.367 (TRAH MIcro)
    0     dE    -1.860645e-03     1.766910e-02    -7.8893e-03      0.400 (TRAH MIcro)
    0     dE    -2.313449e-03     1.897780e-02    -1.1504e-02      0.400 (TRAH MIcro)
    0     dE    -2.513255e-03     1.280995e-02    -1.3157e-02      0.400 (TRAH MIcro)
    0     dE    -2.610523e-03     7.195549e-03    -1.3991e-02      0.400 (TRAH MIcro)
    0     dE    -6.728922e-04     4.067338e-03    -1.6660e-02      0.166 (TRAH MIcro)
    0     dE    -6.695738e-04     1.913348e-03    -1.6951e-02      0.163 (TRAH MIcro)
    0     dE    -6.533559e-04     1.470381e-03    -1.7035e-02      0.160 (TRAH MIcro)
    0     dE    -6.438368e-04     6.335391e-04    -1.7074e-02      0.158 (TRAH MIcro)
    0     dE    -6.394968e-04     5.936813e-04    -1.7090e-02      0.157 (TRAH MIcro)
    0     dE    -6.360141e-04     3.866760e-04    -1.7099e-02      0.156 (TRAH MIcro)
    1       -843.532075643438     3.709667e-03                     0.480 (TRAH MAcro)   No
    1     dE    -1.213479e-05     6.765969e-03    -1.2135e-05      0.003 (TRAH MIcro)
    1     dE    -3.882898e-03     2.989763e-02    -1.2061e-02      0.480 (TRAH MIcro)
    1     dE    -4.436625e-03     1.869423e-02    -1.4496e-02      0.480 (TRAH MIcro)
    1     dE    -4.615299e-03     1.305050e-02    -1.6451e-02      0.464 (TRAH MIcro)
    1     dE    -3.013012e-03     5.720844e-03    -1.8957e-02      0.343 (TRAH MIcro)
    1     dE    -3.069557e-03     3.380559e-03    -1.9158e-02      0.344 (TRAH MIcro)
    1     dE    -3.068714e-03     2.258270e-03    -1.9245e-02      0.343 (TRAH MIcro)
    1     dE    -3.054406e-03     1.788017e-03    -1.9288e-02      0.342 (TRAH MIcro)
    1     dE    -3.045589e-03     1.284782e-03    -1.9306e-02      0.341 (TRAH MIcro)
    1     dE    -3.042503e-03     9.771882e-04    -1.9317e-02      0.340 (TRAH MIcro)
    1     dE    -3.037907e-03     6.394567e-04    -1.9325e-02      0.340 (TRAH MIcro)
    1     dE    -3.036362e-03     3.841625e-04    -1.9327e-02      0.340 (TRAH MIcro)
    1     dE    -3.035006e-03     3.273271e-04    -1.9329e-02      0.340 (TRAH MIcro)
    2       -843.534748256841     2.181578e-02                     0.576 (TRAH MAcro)   No
    2     dE    -2.490573e-04     2.441861e-02    -2.4902e-04      0.011 (TRAH MIcro)
    2     dE    -6.664529e-03     6.003834e-02    -7.6579e-03      0.576 (TRAH MIcro)
    2     dE    -8.598807e-03     2.319301e-02    -1.5059e-02      0.561 (TRAH MIcro)
    2     dE    -9.771533e-03     2.101291e-02    -1.7487e-02      0.576 (TRAH MIcro)
    2     dE    -1.020509e-02     1.340165e-02    -1.8579e-02      0.576 (TRAH MIcro)
    2     dE    -1.037670e-02     9.494346e-03    -1.9098e-02      0.576 (TRAH MIcro)
    2     dE    -1.048783e-02     7.247826e-03    -1.9541e-02      0.576 (TRAH MIcro)
    2     dE    -1.056016e-02     5.012301e-03    -1.9841e-02      0.576 (TRAH MIcro)
    2     dE    -1.058546e-02     3.290186e-03    -1.9940e-02      0.576 (TRAH MIcro)
    2     dE    -1.059724e-02     2.187853e-03    -1.9995e-02      0.576 (TRAH MIcro)
    2     dE    -1.060150e-02     1.271234e-03    -2.0026e-02      0.576 (TRAH MIcro)
    3       -843.544252554873     3.729330e-02                     0.691 (TRAH MAcro)   No
    3     dE    -7.160499e-04     3.885390e-02    -7.1579e-04      0.019 (TRAH MIcro)
    3     dE    -5.537921e-03     5.901667e-02    -4.8280e-03      0.383 (TRAH MIcro)
    3     dE    -1.185741e-02     3.320746e-02    -8.3642e-03      0.691 (TRAH MIcro)
    3     dE    -1.327469e-02     2.050868e-02    -1.1204e-02      0.691 (TRAH MIcro)
    3     dE    -1.362443e-02     1.027180e-02    -1.1994e-02      0.691 (TRAH MIcro)
    3     dE    -1.368952e-02     5.541661e-03    -1.2192e-02      0.690 (TRAH MIcro)
    3     dE    -1.372778e-02     3.384803e-03    -1.2234e-02      0.691 (TRAH MIcro)
    4       -843.551769476289     5.441073e-02                     0.691 (TRAH MAcro)   No
    4     dE    -1.320920e-03     6.444227e-02    -1.3201e-03      0.024 (TRAH MIcro)
    4     dE    -2.246214e-03     1.780021e-02    -2.2384e-03      0.059 (TRAH MIcro)
    4     dE    -2.489245e-03     1.194492e-02    -2.4768e-03      0.071 (TRAH MIcro)
    4     dE    -2.620170e-03     8.050181e-03    -2.6019e-03      0.084 (TRAH MIcro)
    4     dE    -2.668428e-03     3.567190e-03    -2.6461e-03      0.092 (TRAH MIcro)
    5       -843.554419517194     3.875087e-03                     0.829 (TRAH MAcro)   No
    5     dE    -7.576593e-06     5.944083e-03    -7.5766e-06      0.002 (TRAH MIcro)
    5     dE    -4.399202e-05     4.054626e-03    -4.3972e-05      0.021 (TRAH MIcro)
    5     dE    -5.564424e-05     2.999874e-03    -5.5593e-05      0.030 (TRAH MIcro)
    5     dE    -6.328465e-05     2.153204e-03    -6.3190e-05      0.039 (TRAH MIcro)
    5     dE    -6.862320e-05     1.208160e-03    -6.8482e-05      0.045 (TRAH MIcro)
    5     dE    -6.976466e-05     6.900804e-04    -6.9610e-05      0.047 (TRAH MIcro)
    5     dE    -7.024284e-05     4.885936e-04    -7.0082e-05      0.048 (TRAH MIcro)
    5     dE    -7.087703e-05     8.789784e-04    -7.0709e-05      0.049 (TRAH MIcro)
    5     dE    -7.195884e-05     8.685669e-04    -7.1775e-05      0.051 (TRAH MIcro)
    5     dE    -7.279006e-05     6.016208e-04    -7.2589e-05      0.053 (TRAH MIcro)
    5     dE    -7.313219e-05     3.590292e-04    -7.2923e-05      0.054 (TRAH MIcro)
    6       -843.554492597462     4.742499e-04                           (NR   MAcro)
    6     dE    -1.424931e-07     2.394751e-04                           (NR   MIcro)
    6     dE    -2.173501e-07     2.224373e-04                           (NR   MIcro)
    6     dE    -2.711159e-07     1.764307e-04                           (NR   MIcro)
    6     dE    -3.121874e-07     1.678227e-04                           (NR   MIcro)
    6     dE    -3.657265e-07     2.183825e-04                           (NR   MIcro)
    6     dE    -4.429837e-07     2.446610e-04                           (NR   MIcro)
    6     dE    -5.141886e-07     2.370355e-04                           (NR   MIcro)
    6     dE    -5.909078e-07     1.841221e-04                           (NR   MIcro)
    6     dE    -6.187852e-07     1.207033e-04                           (NR   MIcro)
    6     dE    -6.330428e-07     7.916537e-05                           (NR   MIcro)
    6     dE    -6.406312e-07     5.548761e-05                           (NR   MIcro)
    6     dE    -6.428188e-07     2.719556e-05                           (NR   MIcro)
    6     dE    -6.433854e-07     1.267912e-05                           (NR   MIcro)
    6     dE    -6.435648e-07     9.119302e-06                           (NR   MIcro)
    6     dE    -6.436242e-07     5.387114e-06                           (NR   MIcro)
    7       -843.554493261629     1.846479e-05                           (NR   MAcro)
    7     dE    -2.843895e-10     1.408789e-05                           (NR   MIcro)
    7     dE    -6.164687e-10     1.797394e-05                           (NR   MIcro)
    7     dE    -9.645186e-10     2.602089e-05                           (NR   MIcro)
    7     dE    -2.370156e-09     3.327594e-05                           (NR   MIcro)
    7     dE    -3.368612e-09     2.358503e-05                           (NR   MIcro)
    7     dE    -3.897015e-09     1.638176e-05                           (NR   MIcro)
    7     dE    -4.167108e-09     1.087477e-05                           (NR   MIcro)
    7     dE    -4.271907e-09     6.577346e-06                           (NR   MIcro)
    7     dE    -4.307263e-09     3.977678e-06                           (NR   MIcro)
    8       -843.554493265756     3.827853e-06                           (NR   MAcro)

               *****************************************************
               *                     SUCCESS                       *
               *           SCF CONVERGED AFTER 114 CYCLES          *
               *****************************************************

Old exchange energy                            =    -23.834067914 Eh
New exchange energy                            =    -23.834014175 Eh
Exchange energy change after final integration =      0.000053739 Eh
Total energy after final integration           =   -843.554439527 Eh
Final COS-X integration done in                =   217.213 sec

----------------
TOTAL SCF ENERGY
----------------

Total Energy       :         -843.55443953 Eh          -22954.28327 eV

Components:
Nuclear Repulsion  :         1451.44269612 Eh           39495.76369 eV
Electronic Energy  :        -2294.99713565 Eh          -62450.04696 eV
One Electron Energy:        -4016.61610763 Eh         -109297.68088 eV
Two Electron Energy:         1721.61897198 Eh           46847.63392 eV
Max COSX asymmetry :            0.00000946 Eh               0.00026 eV

Virial components:
Potential Energy   :        -1688.22140311 Eh          -45938.83986 eV
Kinetic Energy     :          844.66696358 Eh           22984.55659 eV
Virial Ratio       :            1.99868288


DFT components:
N(Alpha)           :       74.000014362708 electrons
N(Beta)            :       72.000009798280 electrons
N(Total)           :      146.000024160988 electrons
E(X)               :      -94.766568115585 Eh       
E(C)               :       -5.766929962805 Eh       
E(XC)              :     -100.533498078390 Eh       
DFET-embed. en.    :        0.000000000000 Eh       

---------------
SCF CONVERGENCE
---------------

  Last Energy change         ...   -4.1272e-09  Tolerance :   1.0000e-08
  Last Orbital Gradient      ...    3.8279e-06  Tolerance :   5.0000e-05
  Last Orbital Rotation      ...    1.0191e-03

================================================================================
                                        WARNING
Check your MOs and check whether a frozen core calculation is appropriate
MO 0 should be a C  s core orbital but seems to be delocalized with a H  s orbital (89.3% vs.  7.3%)
================================================================================
================================================================================
                                        WARNING
Check your MOs and check whether a frozen core calculation is appropriate
MO 0 should be a C  s core orbital but seems to be delocalized with a H  s orbital (89.5% vs.  7.1%)
================================================================================
             **** THE GBW FILE WAS UPDATED (pentacene_opt_orca_dft.gbw) ****
             **** DENSITY pentacene_opt_orca_dft.scfp WAS UPDATED ****
             **** ENERGY FILE WAS UPDATED (pentacene_opt_orca_dft.en.tmp) ****
----------------------
UHF SPIN CONTAMINATION
----------------------

Warning: in a DFT calculation there is little theoretical justification to 
         calculate <S**2> as in Hartree-Fock theory. We will do it anyways
         but you should keep in mind that the values have only limited relevance

Expectation value of <S**2>     :     3.051818
Ideal value S*(S+1) for S=1.0   :     2.000000
Deviation                       :     1.051818

             **** THE GBW FILE WAS UPDATED (pentacene_opt_orca_dft.gbw) ****
             **** DENSITY pentacene_opt_orca_dft.scfp WAS UPDATED ****
----------------
ORBITAL ENERGIES
----------------
                 SPIN UP ORBITALS
  NO   OCC          E(Eh)            E(eV) 
   0   1.0000     -10.506682      -285.9014 
   1   1.0000     -10.296998      -280.1956 
   2   1.0000     -10.233632      -278.4713 
   3   1.0000     -10.211870      -277.8791 
   4   1.0000     -10.210826      -277.8507 
   5   1.0000     -10.209553      -277.8160 
   6   1.0000     -10.199811      -277.5510 
   7   1.0000     -10.196020      -277.4478 
   8   1.0000     -10.194489      -277.4061 
   9   1.0000     -10.194246      -277.3995 
  10   1.0000     -10.192205      -277.3440 
  11   1.0000     -10.187382      -277.2127 
  12   1.0000     -10.186367      -277.1851 
  13   1.0000     -10.184422      -277.1322 
  14   1.0000     -10.184152      -277.1249 
  15   1.0000     -10.183938      -277.1190 
  16   1.0000     -10.183684      -277.1121 
  17   1.0000     -10.183367      -277.1035 
  18   1.0000     -10.182827      -277.0888 
  19   1.0000     -10.181751      -277.0595 
  20   1.0000     -10.180862      -277.0353 
  21   1.0000     -10.180406      -277.0229 
  22   1.0000      -1.029348       -28.0100 
  23   1.0000      -0.892425       -24.2841 
  24   1.0000      -0.871489       -23.7144 
  25   1.0000      -0.850521       -23.1438 
  26   1.0000      -0.809437       -22.0259 
  27   1.0000      -0.790937       -21.5225 
  28   1.0000      -0.777860       -21.1666 
  29   1.0000      -0.756437       -20.5837 
  30   1.0000      -0.751142       -20.4396 
  31   1.0000      -0.733416       -19.9573 
  32   1.0000      -0.724844       -19.7240 
  33   1.0000      -0.678721       -18.4689 
  34   1.0000      -0.663263       -18.0483 
  35   1.0000      -0.627616       -17.0783 
  36   1.0000      -0.611969       -16.6525 
  37   1.0000      -0.611490       -16.6395 
  38   1.0000      -0.588602       -16.0167 
  39   1.0000      -0.562804       -15.3147 
  40   1.0000      -0.546729       -14.8773 
  41   1.0000      -0.526455       -14.3256 
  42   1.0000      -0.508514       -13.8374 
  43   1.0000      -0.500775       -13.6268 
  44   1.0000      -0.493585       -13.4311 
  45   1.0000      -0.480297       -13.0695 
  46   1.0000      -0.465999       -12.6805 
  47   1.0000      -0.456983       -12.4351 
  48   1.0000      -0.455459       -12.3937 
  49   1.0000      -0.442211       -12.0332 
  50   1.0000      -0.437014       -11.8918 
  51   1.0000      -0.429349       -11.6832 
  52   1.0000      -0.421621       -11.4729 
  53   1.0000      -0.420972       -11.4552 
  54   1.0000      -0.412804       -11.2330 
  55   1.0000      -0.390056       -10.6140 
  56   1.0000      -0.388294       -10.5660 
  57   1.0000      -0.385789       -10.4979 
  58   1.0000      -0.385034       -10.4773 
  59   1.0000      -0.383761       -10.4427 
  60   1.0000      -0.358719        -9.7612 
  61   1.0000      -0.354251        -9.6397 
  62   1.0000      -0.349061        -9.4984 
  63   1.0000      -0.345282        -9.3956 
  64   1.0000      -0.319731        -8.7003 
  65   1.0000      -0.302711        -8.2372 
  66   1.0000      -0.280175        -7.6240 
  67   1.0000      -0.279943        -7.6176 
  68   1.0000      -0.272269        -7.4088 
  69   1.0000      -0.265213        -7.2168 
  70   1.0000      -0.259720        -7.0674 
  71   1.0000      -0.232338        -6.3222 
  72   1.0000      -0.218247        -5.9388 
  73   1.0000      -0.203116        -5.5271 
  74   0.0000      -0.107653        -2.9294 
  75   0.0000      -0.103860        -2.8262 
  76   0.0000      -0.057271        -1.5584 
  77   0.0000      -0.044498        -1.2109 
  78   0.0000      -0.017633        -0.4798 
  79   0.0000      -0.003091        -0.0841 
  80   0.0000       0.009064         0.2467 
  81   0.0000       0.027957         0.7607 
  82   0.0000       0.048043         1.3073 
  83   0.0000       0.050061         1.3622 
  84   0.0000       0.055100         1.4993 
  85   0.0000       0.063521         1.7285 
  86   0.0000       0.063962         1.7405 
  87   0.0000       0.069604         1.8940 
  88   0.0000       0.079519         2.1638 
  89   0.0000       0.083364         2.2685 
  90   0.0000       0.092727         2.5232 
  91   0.0000       0.096840         2.6352 
  92   0.0000       0.102237         2.7820 
  93   0.0000       0.106806         2.9063 
  94   0.0000       0.113785         3.0963 
  95   0.0000       0.118362         3.2208 
  96   0.0000       0.130420         3.5489 
  97   0.0000       0.138155         3.7594 
  98   0.0000       0.138306         3.7635 
  99   0.0000       0.140209         3.8153 
 100   0.0000       0.148030         4.0281 
 101   0.0000       0.150236         4.0881 
 102   0.0000       0.160249         4.3606 
 103   0.0000       0.164226         4.4688 
 104   0.0000       0.172512         4.6943 
 105   0.0000       0.181475         4.9382 
 106   0.0000       0.181649         4.9429 
 107   0.0000       0.183622         4.9966 
 108   0.0000       0.194121         5.2823 
 109   0.0000       0.197330         5.3696 
 110   0.0000       0.202942         5.5223 
 111   0.0000       0.210468         5.7271 
 112   0.0000       0.210932         5.7397 
 113   0.0000       0.215559         5.8657 
 114   0.0000       0.220888         6.0107 
 115   0.0000       0.226427         6.1614 
 116   0.0000       0.230514         6.2726 
 117   0.0000       0.234281         6.3751 
 118   0.0000       0.235437         6.4066 
 119   0.0000       0.239687         6.5222 
 120   0.0000       0.245451         6.6790 
 121   0.0000       0.246635         6.7113 
 122   0.0000       0.247046         6.7225 
 123   0.0000       0.251263         6.8372 
 124   0.0000       0.257150         6.9974 
 125   0.0000       0.258142         7.0244 
 126   0.0000       0.268633         7.3099 
 127   0.0000       0.269402         7.3308 
 128   0.0000       0.271506         7.3881 
 129   0.0000       0.274032         7.4568 
 130   0.0000       0.279664         7.6101 
 131   0.0000       0.290782         7.9126 
 132   0.0000       0.293748         7.9933 
 133   0.0000       0.298154         8.1132 
 134   0.0000       0.301956         8.2166 
 135   0.0000       0.302897         8.2422 
 136   0.0000       0.307743         8.3741 
 137   0.0000       0.313107         8.5201 
 138   0.0000       0.314407         8.5554 
 139   0.0000       0.317240         8.6326 
 140   0.0000       0.327359         8.9079 
 141   0.0000       0.328674         8.9437 
 142   0.0000       0.334231         9.0949 
 143   0.0000       0.335457         9.1283 
 144   0.0000       0.338399         9.2083 
 145   0.0000       0.343476         9.3464 
 146   0.0000       0.355438         9.6720 
 147   0.0000       0.360181         9.8010 
 148   0.0000       0.362373         9.8607 
 149   0.0000       0.367943        10.0122 
 150   0.0000       0.369459        10.0535 
 151   0.0000       0.373788        10.1713 
 152   0.0000       0.377674        10.2770 
 153   0.0000       0.379404        10.3241 
 154   0.0000       0.386258        10.5106 
 155   0.0000       0.390137        10.6162 
 156   0.0000       0.394287        10.7291 
 157   0.0000       0.402652        10.9567 
 158   0.0000       0.404243        11.0000 
 159   0.0000       0.404659        11.0113 
 160   0.0000       0.412893        11.2354 
 161   0.0000       0.417135        11.3508 
 162   0.0000       0.419787        11.4230 
 163   0.0000       0.420788        11.4502 
 164   0.0000       0.424204        11.5432 
 165   0.0000       0.428606        11.6630 
 166   0.0000       0.430644        11.7184 
 167   0.0000       0.431793        11.7497 
 168   0.0000       0.435562        11.8522 
 169   0.0000       0.451510        12.2862 
 170   0.0000       0.462702        12.5908 
 171   0.0000       0.466567        12.6959 
 172   0.0000       0.467687        12.7264 
 173   0.0000       0.471587        12.8325 
 174   0.0000       0.474253        12.9051 
 175   0.0000       0.476312        12.9611 
 176   0.0000       0.483301        13.1513 
 177   0.0000       0.484990        13.1972 
 178   0.0000       0.489516        13.3204 
 179   0.0000       0.491523        13.3750 
 180   0.0000       0.499734        13.5985 
 181   0.0000       0.506458        13.7814 
 182   0.0000       0.508838        13.8462 
 183   0.0000       0.511236        13.9114 
 184   0.0000       0.521688        14.1958 
 185   0.0000       0.530440        14.4340 
 186   0.0000       0.532283        14.4842 
 187   0.0000       0.533789        14.5251 
 188   0.0000       0.543733        14.7957 
 189   0.0000       0.555323        15.1111 
 190   0.0000       0.561232        15.2719 
 191   0.0000       0.566264        15.4088 
 192   0.0000       0.577045        15.7022 
 193   0.0000       0.591115        16.0851 
 194   0.0000       0.599641        16.3171 
 195   0.0000       0.609168        16.5763 
 196   0.0000       0.612456        16.6658 
 197   0.0000       0.620493        16.8845 
 198   0.0000       0.626290        17.0422 
 199   0.0000       0.634138        17.2558 
 200   0.0000       0.634810        17.2740 
 201   0.0000       0.643454        17.5093 
 202   0.0000       0.651738        17.7347 
 203   0.0000       0.654238        17.8027 
 204   0.0000       0.657417        17.8892 
 205   0.0000       0.668450        18.1895 
 206   0.0000       0.674538        18.3551 
 207   0.0000       0.677437        18.4340 
 208   0.0000       0.678169        18.4539 
 209   0.0000       0.689354        18.7583 
 210   0.0000       0.693915        18.8824 
 211   0.0000       0.694801        18.9065 
 212   0.0000       0.696586        18.9551 
 213   0.0000       0.702088        19.1048 
 214   0.0000       0.708617        19.2825 
 215   0.0000       0.711004        19.3474 
 216   0.0000       0.711192        19.3525 
 217   0.0000       0.714243        19.4355 
 218   0.0000       0.727129        19.7862 
 219   0.0000       0.735316        20.0090 
 220   0.0000       0.739944        20.1349 
 221   0.0000       0.740316        20.1450 
 222   0.0000       0.747986        20.3537 
 223   0.0000       0.750535        20.4231 
 224   0.0000       0.751620        20.4526 
 225   0.0000       0.763555        20.7774 
 226   0.0000       0.767538        20.8858 
 227   0.0000       0.774693        21.0805 
 228   0.0000       0.781285        21.2599 
 229   0.0000       0.785632        21.3781 
 230   0.0000       0.794466        21.6185 
 231   0.0000       0.795520        21.6472 
 232   0.0000       0.798033        21.7156 
 233   0.0000       0.808914        22.0117 
 234   0.0000       0.816053        22.2059 
 235   0.0000       0.820550        22.3283 
 236   0.0000       0.828684        22.5496 
 237   0.0000       0.836893        22.7730 
 238   0.0000       0.837944        22.8016 
 239   0.0000       0.840689        22.8763 
 240   0.0000       0.846769        23.0418 
 241   0.0000       0.852931        23.2094 
 242   0.0000       0.860036        23.4028 
 243   0.0000       0.861767        23.4499 
 244   0.0000       0.863309        23.4918 
 245   0.0000       0.873343        23.7649 
 246   0.0000       0.882640        24.0179 
 247   0.0000       0.895225        24.3603 
 248   0.0000       0.895873        24.3779 
 249   0.0000       0.903420        24.5833 
 250   0.0000       0.913793        24.8656 
 251   0.0000       0.923768        25.1370 
 252   0.0000       0.929655        25.2972 
 253   0.0000       0.939329        25.5604 
 254   0.0000       0.939760        25.5722 
 255   0.0000       0.951315        25.8866 
 256   0.0000       0.956732        26.0340 
 257   0.0000       0.969820        26.3901 
 258   0.0000       0.976329        26.5673 
 259   0.0000       0.978042        26.6139 
 260   0.0000       0.992709        27.0130 
 261   0.0000       0.998735        27.1770 
 262   0.0000       1.009408        27.4674 
 263   0.0000       1.013644        27.5827 
 264   0.0000       1.020018        27.7561 
 265   0.0000       1.027669        27.9643 
 266   0.0000       1.040437        28.3117 
 267   0.0000       1.055145        28.7120 
 268   0.0000       1.059695        28.8358 
 269   0.0000       1.071202        29.1489 
 270   0.0000       1.071739        29.1635 
 271   0.0000       1.078098        29.3365 
 272   0.0000       1.095464        29.8091 
 273   0.0000       1.100654        29.9503 
 274   0.0000       1.102138        29.9907 
 275   0.0000       1.112697        30.2780 
 276   0.0000       1.119105        30.4524 
 277   0.0000       1.128326        30.7033 
 278   0.0000       1.134484        30.8709 
 279   0.0000       1.138398        30.9774 
 280   0.0000       1.147647        31.2291 
 281   0.0000       1.163796        31.6685 
 282   0.0000       1.167939        31.7812 
 283   0.0000       1.178404        32.0660 
 284   0.0000       1.191279        32.4164 
 285   0.0000       1.195489        32.5309 
 286   0.0000       1.199491        32.6398 
 287   0.0000       1.203786        32.7567 
 288   0.0000       1.204398        32.7733 
 289   0.0000       1.212981        33.0069 
 290   0.0000       1.234599        33.5951 
 291   0.0000       1.242272        33.8039 
 292   0.0000       1.242838        33.8193 
 293   0.0000       1.245798        33.8999 
 294   0.0000       1.252371        34.0787 
 295   0.0000       1.256327        34.1864 
 296   0.0000       1.257782        34.2260 
 297   0.0000       1.261209        34.3192 
 298   0.0000       1.268976        34.5306 
 299   0.0000       1.275157        34.6988 
 300   0.0000       1.278736        34.7962 
 301   0.0000       1.284683        34.9580 
 302   0.0000       1.291184        35.1349 
 303   0.0000       1.306316        35.5467 
 304   0.0000       1.307531        35.5797 
 305   0.0000       1.313303        35.7368 
 306   0.0000       1.317426        35.8490 
 307   0.0000       1.338489        36.4222 
 308   0.0000       1.346032        36.6274 
 309   0.0000       1.350193        36.7406 
 310   0.0000       1.351970        36.7890 
 311   0.0000       1.370822        37.3020 
 312   0.0000       1.371532        37.3213 
 313   0.0000       1.379673        37.5428 
 314   0.0000       1.386032        37.7159 
 315   0.0000       1.388427        37.7810 
 316   0.0000       1.408788        38.3351 
 317   0.0000       1.408994        38.3407 
 318   0.0000       1.423520        38.7359 
 319   0.0000       1.428615        38.8746 
 320   0.0000       1.432225        38.9728 
 321   0.0000       1.442811        39.2609 
 322   0.0000       1.445687        39.3391 
 323   0.0000       1.453998        39.5653 
 324   0.0000       1.460841        39.7515 
 325   0.0000       1.470794        40.0223 
 326   0.0000       1.474893        40.1339 
 327   0.0000       1.479685        40.2643 
 328   0.0000       1.485090        40.4114 
 329   0.0000       1.486458        40.4486 
 330   0.0000       1.486894        40.4604 
 331   0.0000       1.501209        40.8500 
 332   0.0000       1.501685        40.8629 
 333   0.0000       1.517162        41.2841 
 334   0.0000       1.527571        41.5673 
 335   0.0000       1.533093        41.7176 
 336   0.0000       1.541988        41.9596 
 337   0.0000       1.543642        42.0046 
 338   0.0000       1.549463        42.1630 
 339   0.0000       1.555717        42.3332 
 340   0.0000       1.562926        42.5294 
 341   0.0000       1.565750        42.6062 
 342   0.0000       1.578213        42.9454 
 343   0.0000       1.580208        42.9996 
 344   0.0000       1.585218        43.1360 
 345   0.0000       1.587927        43.2097 
 346   0.0000       1.597014        43.4570 
 347   0.0000       1.610739        43.8304 
 348   0.0000       1.610951        43.8362 
 349   0.0000       1.626116        44.2489 
 350   0.0000       1.635604        44.5070 
 351   0.0000       1.635702        44.5097 
 352   0.0000       1.642721        44.7007 
 353   0.0000       1.651396        44.9368 
 354   0.0000       1.659768        45.1646 
 355   0.0000       1.663603        45.2689 
 356   0.0000       1.675518        45.5932 
 357   0.0000       1.686033        45.8793 
 358   0.0000       1.686848        45.9015 
 359   0.0000       1.689402        45.9710 
 360   0.0000       1.705830        46.4180 
 361   0.0000       1.711430        46.5704 
 362   0.0000       1.717980        46.7486 
 363   0.0000       1.732213        47.1359 
 364   0.0000       1.736181        47.2439 
 365   0.0000       1.742076        47.4043 
 366   0.0000       1.744351        47.4662 
 367   0.0000       1.754553        47.7438 
 368   0.0000       1.775523        48.3144 
 369   0.0000       1.790556        48.7235 
 370   0.0000       1.812127        49.3105 
 371   0.0000       1.819204        49.5031 
 372   0.0000       1.824850        49.6567 
 373   0.0000       1.838444        50.0266 
 374   0.0000       1.842244        50.1300 
 375   0.0000       1.850686        50.3597 
 376   0.0000       1.854110        50.4529 
 377   0.0000       1.867378        50.8139 
 378   0.0000       1.873085        50.9692 
 379   0.0000       1.887588        51.3639 
 380   0.0000       1.900278        51.7092 
 381   0.0000       1.916952        52.1629 
 382   0.0000       1.930387        52.5285 
 383   0.0000       1.932754        52.5929 
 384   0.0000       1.951395        53.1001 
 385   0.0000       1.952690        53.1354 
 386   0.0000       1.964320        53.4519 
 387   0.0000       1.971572        53.6492 
 388   0.0000       1.982475        53.9459 
 389   0.0000       1.996236        54.3203 
 390   0.0000       1.999551        54.4105 
 391   0.0000       2.003393        54.5151 
 392   0.0000       2.029748        55.2323 
 393   0.0000       2.030920        55.2641 
 394   0.0000       2.033621        55.3376 
 395   0.0000       2.050985        55.8101 
 396   0.0000       2.072446        56.3941 
 397   0.0000       2.079404        56.5834 
 398   0.0000       2.089980        56.8712 
 399   0.0000       2.104582        57.2686 
 400   0.0000       2.107570        57.3499 
 401   0.0000       2.119438        57.6728 
 402   0.0000       2.122512        57.7565 
 403   0.0000       2.137193        58.1560 
 404   0.0000       2.147174        58.4276 
 405   0.0000       2.159610        58.7660 
 406   0.0000       2.160286        58.7844 
 407   0.0000       2.173322        59.1391 
 408   0.0000       2.180103        59.3236 
 409   0.0000       2.185002        59.4569 
 410   0.0000       2.190120        59.5962 
 411   0.0000       2.200620        59.8819 
 412   0.0000       2.214456        60.2584 
 413   0.0000       2.218460        60.3674 
 414   0.0000       2.225454        60.5577 
 415   0.0000       2.226879        60.5965 
 416   0.0000       2.263574        61.5950 
 417   0.0000       2.270708        61.7891 
 418   0.0000       2.273419        61.8629 
 419   0.0000       2.279260        62.0218 
 420   0.0000       2.290638        62.3314 
 421   0.0000       2.312906        62.9374 
 422   0.0000       2.316534        63.0361 
 423   0.0000       2.324488        63.2525 
 424   0.0000       2.339814        63.6696 
 425   0.0000       2.352849        64.0243 
 426   0.0000       2.357687        64.1559 
 427   0.0000       2.377509        64.6953 
 428   0.0000       2.385937        64.9246 
 429   0.0000       2.410280        65.5871 
 430   0.0000       2.431744        66.1711 
 431   0.0000       2.437456        66.3265 
 432   0.0000       2.438762        66.3621 
 433   0.0000       2.449811        66.6627 
 434   0.0000       2.472131        67.2701 
 435   0.0000       2.480902        67.5088 
 436   0.0000       2.482760        67.5593 
 437   0.0000       2.487474        67.6876 
 438   0.0000       2.493627        67.8550 
 439   0.0000       2.497049        67.9482 
 440   0.0000       2.501046        68.0569 
 441   0.0000       2.515520        68.4508 
 442   0.0000       2.515756        68.4572 
 443   0.0000       2.526930        68.7613 
 444   0.0000       2.540812        69.1390 
 445   0.0000       2.546626        69.2972 
 446   0.0000       2.552861        69.4669 
 447   0.0000       2.558929        69.6320 
 448   0.0000       2.573757        70.0355 
 449   0.0000       2.575915        70.0942 
 450   0.0000       2.598534        70.7097 
 451   0.0000       2.601162        70.7812 
 452   0.0000       2.604539        70.8731 
 453   0.0000       2.615261        71.1649 
 454   0.0000       2.617858        71.2355 
 455   0.0000       2.630468        71.5787 
 456   0.0000       2.636326        71.7381 
 457   0.0000       2.636551        71.7442 
 458   0.0000       2.647046        72.0298 
 459   0.0000       2.651426        72.1490 
 460   0.0000       2.657653        72.3184 
 461   0.0000       2.662660        72.4547 
 462   0.0000       2.668332        72.6090 
 463   0.0000       2.671029        72.6824 
 464   0.0000       2.687179        73.1219 
 465   0.0000       2.691853        73.2490 
 466   0.0000       2.697207        73.3947 
 467   0.0000       2.712903        73.8218 
 468   0.0000       2.714811        73.8738 
 469   0.0000       2.718075        73.9626 
 470   0.0000       2.732523        74.3557 
 471   0.0000       2.735138        74.4269 
 472   0.0000       2.740675        74.5776 
 473   0.0000       2.745433        74.7070 
 474   0.0000       2.746068        74.7243 
 475   0.0000       2.752803        74.9076 
 476   0.0000       2.756928        75.0198 
 477   0.0000       2.764420        75.2237 
 478   0.0000       2.769374        75.3585 
 479   0.0000       2.775678        75.5300 
 480   0.0000       2.785366        75.7937 
 481   0.0000       2.789351        75.9021 
 482   0.0000       2.796824        76.1054 
 483   0.0000       2.801620        76.2360 
 484   0.0000       2.819633        76.7261 
 485   0.0000       2.820113        76.7392 
 486   0.0000       2.832421        77.0741 
 487   0.0000       2.832715        77.0821 
 488   0.0000       2.843553        77.3770 
 489   0.0000       2.845383        77.4268 
 490   0.0000       2.849291        77.5331 
 491   0.0000       2.854699        77.6803 
 492   0.0000       2.856921        77.7408 
 493   0.0000       2.864955        77.9594 
 494   0.0000       2.869392        78.0801 
 495   0.0000       2.878383        78.3248 
 496   0.0000       2.882983        78.4499 
 497   0.0000       2.886450        78.5443 
 498   0.0000       2.888503        78.6001 
 499   0.0000       2.890894        78.6652 
 500   0.0000       2.901558        78.9554 
 501   0.0000       2.901843        78.9632 
 502   0.0000       2.909886        79.1820 
 503   0.0000       2.930146        79.7333 
 504   0.0000       2.935359        79.8752 
 505   0.0000       2.943142        80.0870 
 506   0.0000       2.944136        80.1140 
 507   0.0000       2.949842        80.2693 
 508   0.0000       2.958893        80.5156 
 509   0.0000       2.961521        80.5871 
 510   0.0000       2.978077        81.0376 
 511   0.0000       2.980148        81.0939 
 512   0.0000       2.987552        81.2954 
 513   0.0000       2.997288        81.5604 
 514   0.0000       2.998101        81.5825 
 515   0.0000       3.002614        81.7053 
 516   0.0000       3.013293        81.9959 
 517   0.0000       3.015664        82.0604 
 518   0.0000       3.016946        82.0953 
 519   0.0000       3.023178        82.2648 
 520   0.0000       3.040094        82.7252 
 521   0.0000       3.042276        82.7845 
 522   0.0000       3.047021        82.9137 
 523   0.0000       3.055581        83.1466 
 524   0.0000       3.061956        83.3201 
 525   0.0000       3.063644        83.3660 
 526   0.0000       3.071320        83.5749 
 527   0.0000       3.074572        83.6634 
 528   0.0000       3.078539        83.7713 
 529   0.0000       3.093261        84.1719 
 530   0.0000       3.094069        84.1939 
 531   0.0000       3.100815        84.3775 
 532   0.0000       3.111021        84.6552 
 533   0.0000       3.125057        85.0371 
 534   0.0000       3.128586        85.1331 
 535   0.0000       3.133339        85.2625 
 536   0.0000       3.142604        85.5146 
 537   0.0000       3.146960        85.6331 
 538   0.0000       3.149660        85.7066 
 539   0.0000       3.150984        85.7426 
 540   0.0000       3.157867        85.9299 
 541   0.0000       3.164099        86.0995 
 542   0.0000       3.165636        86.1413 
 543   0.0000       3.181560        86.5746 
 544   0.0000       3.192543        86.8735 
 545   0.0000       3.194665        86.9313 
 546   0.0000       3.198745        87.0423 
 547   0.0000       3.202339        87.1401 
 548   0.0000       3.204329        87.1942 
 549   0.0000       3.218439        87.5782 
 550   0.0000       3.219473        87.6063 
 551   0.0000       3.230389        87.9033 
 552   0.0000       3.231923        87.9451 
 553   0.0000       3.236499        88.0696 
 554   0.0000       3.245371        88.3110 
 555   0.0000       3.256206        88.6059 
 556   0.0000       3.260805        88.7310 
 557   0.0000       3.264084        88.8203 
 558   0.0000       3.267169        88.9042 
 559   0.0000       3.270910        89.0060 
 560   0.0000       3.290981        89.5521 
 561   0.0000       3.291578        89.5684 
 562   0.0000       3.295190        89.6667 
 563   0.0000       3.299286        89.7781 
 564   0.0000       3.308915        90.0401 
 565   0.0000       3.310084        90.0720 
 566   0.0000       3.311831        90.1195 
 567   0.0000       3.316609        90.2495 
 568   0.0000       3.327604        90.5487 
 569   0.0000       3.330912        90.6387 
 570   0.0000       3.340586        90.9020 
 571   0.0000       3.343427        90.9793 
 572   0.0000       3.345437        91.0340 
 573   0.0000       3.354527        91.2813 
 574   0.0000       3.363665        91.5300 
 575   0.0000       3.370233        91.7087 
 576   0.0000       3.372472        91.7696 
 577   0.0000       3.374173        91.8159 
 578   0.0000       3.380333        91.9835 
 579   0.0000       3.394975        92.3820 
 580   0.0000       3.397223        92.4431 
 581   0.0000       3.398244        92.4709 
 582   0.0000       3.414124        92.9030 
 583   0.0000       3.419391        93.0464 
 584   0.0000       3.425009        93.1992 
 585   0.0000       3.425585        93.2149 
 586   0.0000       3.429192        93.3131 
 587   0.0000       3.442373        93.6717 
 588   0.0000       3.457893        94.0940 
 589   0.0000       3.469429        94.4080 
 590   0.0000       3.483506        94.7910 
 591   0.0000       3.484065        94.8062 
 592   0.0000       3.491064        94.9967 
 593   0.0000       3.491915        95.0198 
 594   0.0000       3.492312        95.0306 
 595   0.0000       3.503809        95.3435 
 596   0.0000       3.507633        95.4476 
 597   0.0000       3.512206        95.5720 
 598   0.0000       3.514140        95.6246 
 599   0.0000       3.525014        95.9205 
 600   0.0000       3.532130        96.1142 
 601   0.0000       3.540441        96.3403 
[...]
      dxy     :     0.001428
      f0      :     0.000501  f :     0.003876
      f+1     :     0.000071
      f-1     :     0.000079
      f+2     :     0.001088
      f-2     :     0.001814
      f+3     :     0.000146
      f-3     :     0.000176
 28 C s       :     0.006060  s :     0.006060
      pz      :     0.181816  p :     0.189859
      px      :     0.004301
      py      :     0.003742
      dz2     :    -0.000886  d :    -0.017359
      dxz     :    -0.013106
      dyz     :    -0.001175
      dx2y2   :    -0.001572
      dxy     :    -0.000620
      f0      :    -0.000579  f :    -0.002722
      f+1     :    -0.000184
      f-1     :    -0.000193
      f+2     :    -0.000215
      f-2     :    -0.001124
      f+3     :    -0.000236
      f-3     :    -0.000192
 29 H s       :    -0.004516  s :    -0.004516
      pz      :     0.003990  p :     0.004920
      px      :     0.000047
      py      :     0.000882
 30 C s       :    -0.005366  s :    -0.005366
      pz      :    -0.087642  p :    -0.103148
      px      :    -0.009936
      py      :    -0.005571
      dz2     :     0.000714  d :     0.061934
      dxz     :     0.047426
      dyz     :     0.012252
      dx2y2   :    -0.000624
      dxy     :     0.002165
      f0      :     0.000870  f :     0.006964
      f+1     :     0.000083
      f-1     :     0.000100
      f+2     :     0.001341
      f-2     :     0.004228
      f+3     :    -0.000015
      f-3     :     0.000356
 31 C s       :     0.021662  s :     0.021662
      pz      :     0.300109  p :     0.294533
      px      :    -0.002586
      py      :    -0.002990
      dz2     :     0.003375  d :    -0.017594
      dxz     :    -0.004816
      dyz     :    -0.011323
      dx2y2   :     0.001750
      dxy     :    -0.006581
      f0      :    -0.000377  f :    -0.002934
      f+1     :    -0.000182
      f-1     :    -0.000326
      f+2     :    -0.001162
      f-2     :    -0.000182
      f+3     :    -0.000606
      f-3     :    -0.000099
 32 H s       :    -0.004582  s :    -0.004582
      pz      :    -0.026464  p :    -0.019552
      px      :    -0.005751
      py      :     0.012663
 33 C s       :     0.001321  s :     0.001321
      pz      :    -0.107119  p :    -0.120921
      px      :    -0.006585
      py      :    -0.007217
      dz2     :     0.004063  d :     0.126761
      dxz     :     0.026968
      dyz     :     0.045208
      dx2y2   :     0.031247
      dxy     :     0.019274
      f0      :     0.001160  f :     0.016609
      f+1     :     0.000175
      f-1     :     0.000261
      f+2     :     0.006020
      f-2     :     0.001332
      f+3     :     0.005721
      f-3     :     0.001940
 34 C s       :     0.129425  s :     0.129425
      pz      :     0.446621  p :     1.056579
      px      :     0.017858
      py      :     0.592099
      dz2     :     0.001177  d :     0.010178
      dxz     :    -0.005872
      dyz     :    -0.002270
      dx2y2   :     0.013787
      dxy     :     0.003357
      f0      :    -0.000697  f :    -0.001251
      f+1     :    -0.000328
      f-1     :    -0.000058
      f+2     :    -0.000466
      f-2     :    -0.000679
      f+3     :     0.000867
      f-3     :     0.000110
 35 H s       :     0.021472  s :     0.021472
      pz      :     0.008638  p :     0.018681
      px      :     0.003149
      py      :     0.006894


                      *****************************
                      * MAYER POPULATION ANALYSIS *
                      *****************************

  NA   - Mulliken gross atomic population
  ZA   - Total nuclear charge
  QA   - Mulliken gross atomic charge
  VA   - Mayer's total valence
  BVA  - Mayer's bonded valence
  FA   - Mayer's free valence

  ATOM       NA         ZA         QA         VA         BVA        FA
  0 C      5.7844     6.0000     0.2156     3.7002     3.6855     0.0147
  1 C      6.2656     6.0000    -0.2656     3.8793     3.8269     0.0524
  2 H      0.9042     1.0000     0.0958     0.9872     0.9871     0.0002
  3 C      6.2856     6.0000    -0.2856     3.9902     3.8493     0.1409
  4 H      0.9030     1.0000     0.0970     0.9876     0.9865     0.0011
  5 C      5.8641     6.0000     0.1359     3.7507     3.6899     0.0608
  6 C      6.2947     6.0000    -0.2947     3.9565     3.8468     0.1097
  7 H      0.9002     1.0000     0.0998     0.9860     0.9851     0.0009
  8 C      5.8276     6.0000     0.1724     3.7623     3.7560     0.0064
  9 C      6.1921     6.0000    -0.1921     3.9469     3.9403     0.0066
 10 H      0.8938     1.0000     0.1062     0.9778     0.9776     0.0002
 11 C      6.0974     6.0000    -0.0974     3.9356     3.9351     0.0004
 12 H      0.8899     1.0000     0.1101     0.9698     0.9698     0.0000
 13 C      6.1085     6.0000    -0.1085     3.9097     3.9007     0.0091
 14 H      0.8849     1.0000     0.1151     0.9695     0.9693     0.0003
 15 C      6.1856     6.0000    -0.1856     3.9825     3.9795     0.0030
 16 H      0.8798     1.0000     0.1202     0.9683     0.9681     0.0002
 17 C      5.9638     6.0000     0.0362     3.8757     3.1841     0.6916
 18 C      5.8385     6.0000     0.1615     3.7602     3.7505     0.0097
 19 C      6.1881     6.0000    -0.1881     3.9122     3.9034     0.0088
 20 H      0.8983     1.0000     0.1017     0.9781     0.9781     0.0000
 21 C      6.0956     6.0000    -0.0956     3.9050     3.8952     0.0098
 22 H      0.8891     1.0000     0.1109     0.9688     0.9687     0.0000
 23 C      6.1023     6.0000    -0.1023     3.9030     3.8932     0.0098
 24 H      0.8891     1.0000     0.1109     0.9696     0.9695     0.0000
 25 C      6.1990     6.0000    -0.1990     3.9385     3.9295     0.0090
 26 H      0.8936     1.0000     0.1064     0.9786     0.9786     0.0000
 27 C      5.8103     6.0000     0.1897     3.6949     3.6850     0.0100
 28 C      6.2850     6.0000    -0.2850     3.9149     3.8583     0.0566
 29 H      0.8723     1.0000     0.1277     0.9862     0.9860     0.0002
 30 C      5.8737     6.0000     0.1263     3.8396     3.8207     0.0189
 31 C      6.5244     6.0000    -0.5244     3.9436     3.7921     0.1516
 32 H      1.2966     1.0000    -0.2966    -0.6832    -0.7077     0.0244
 33 C      5.1388     6.0000     0.8612     0.7335     0.6587     0.0748
 34 C      6.2222     6.0000    -0.2222     3.7570     2.8143     0.9427
 35 H      0.8581     1.0000     0.1419     0.9736     0.9710     0.0026

  Mayer bond orders larger than 0.100000
B(  0-C ,  1-C ) :   1.3726 B(  0-C ,  3-C ) :   1.2004 B(  0-C , 30-C ) :   1.0984 
B(  1-C ,  2-H ) :   0.9784 B(  1-C , 18-C ) :   1.2319 B(  3-C ,  4-H ) :   0.9402 
B(  3-C ,  5-C ) :   1.3981 B(  5-C ,  6-C ) :   1.5111 B(  5-C , 31-C ) :   0.5829 
B(  5-C , 32-H ) :  -0.4816 B(  5-C , 33-C ) :   0.6094 B(  6-C ,  7-H ) :   0.9316 
B(  6-C ,  8-C ) :   1.1031 B(  8-C ,  9-C ) :   1.2590 B(  8-C , 17-C ) :   1.3849 
B(  9-C , 10-H ) :   0.9624 B(  9-C , 11-C ) :   1.4864 B( 11-C , 12-H ) :   0.9678 
B( 11-C , 13-C ) :   1.3759 B( 13-C , 14-H ) :   0.9583 B( 13-C , 15-C ) :   1.3830 
B( 15-C , 16-H ) :   0.9574 B( 15-C , 17-C ) :   1.5049 B( 18-C , 19-C ) :   1.2276 
B( 18-C , 27-C ) :   1.2047 B( 19-C , 20-H ) :   0.9814 B( 19-C , 21-C ) :   1.5131 
B( 21-C , 22-H ) :   0.9714 B( 21-C , 23-C ) :   1.2750 B( 23-C , 24-H ) :   0.9721 
B( 23-C , 25-C ) :   1.5153 B( 25-C , 26-H ) :   0.9798 B( 25-C , 27-C ) :   1.2310 
B( 27-C , 28-C ) :   1.1916 B( 28-C , 29-H ) :   0.9677 B( 28-C , 30-C ) :   1.4083 
B( 28-C , 33-C ) :   0.1023 B( 30-C , 31-C ) :   1.2432 B( 31-C , 32-H ) :   1.7785 
B( 31-C , 33-C ) :  -0.1758 B( 31-C , 34-C ) :   0.1354 B( 32-H , 33-C ) :  -1.7187 
B( 32-H , 34-C ) :  -0.1089 B( 33-C , 34-C ) :   1.7094 B( 34-C , 35-H ) :   0.9462 


-------
TIMINGS
-------

Total SCF time: 0 days 1 hours 47 min 36 sec 

Total time                  ....    6456.118 sec
Sum of individual times     ....    6446.514 sec  ( 99.9%)

Fock matrix formation       ....    6401.447 sec  ( 99.2%)
  Split-RI-J                ....     866.513 sec  ( 13.5% of F)
  Chain of spheres X        ....    4960.276 sec  ( 77.5% of F)
  XC integration            ....     573.057 sec  (  9.0% of F)
    Basis function eval.    ....      81.407 sec  ( 14.2% of XC)
    Density eval.           ....     209.989 sec  ( 36.6% of XC)
    XC-Functional eval.     ....      10.856 sec  (  1.9% of XC)
    XC-Potential eval.      ....     253.192 sec  ( 44.2% of XC)
Diagonalization             ....       8.617 sec  (  0.1%)
Density matrix formation    ....       1.275 sec  (  0.0%)
Population analysis         ....       0.339 sec  (  0.0%)
Initial guess               ....       6.219 sec  (  0.1%)
Orbital Transformation      ....      11.540 sec  (  0.2%)
Orbital Orthonormalization  ....       0.000 sec  (  0.0%)
DIIS solution               ....       3.082 sec  (  0.0%)
Grid generation             ....      13.991 sec  (  0.2%)

Maximum memory used throughout the entire SCF-calculation: 554.8 MB

-------------------------   --------------------
FINAL SINGLE POINT ENERGY      -843.554439527041
-------------------------   --------------------

   --->>> g-tensor requested, so NeedSOC=true

                            ***************************************
                            *     ORCA property calculations      *
                            ***************************************

                                    ---------------------
                                    Active property flags
                                    ---------------------
   (+) Dipole Moment
   (+) g-tensor
   (+) Spin-Orbit Integrals are needed


------------------------------------------------------------------------------
                       ORCA ELECTRIC PROPERTIES CALCULATION
------------------------------------------------------------------------------

Dipole Moment Calculation                       ... on
Quadrupole Moment Calculation                   ... off
Polarizability Calculation                      ... off
GBWName                                         ... pentacene_opt_orca_dft.gbw
Electron density                                ... pentacene_opt_orca_dft.scfp
The origin for moment calculation is the CENTER OF MASS  = ( 0.007299,  0.013932  0.000063)

-------------
DIPOLE MOMENT
-------------
                                X             Y             Z
Electronic contribution:      1.28331       1.06105       0.00400
Nuclear contribution   :     -1.06572      -2.03402      -0.00927
                        -----------------------------------------
Total Dipole Moment    :      0.21760      -0.97297      -0.00527
                        -----------------------------------------
Magnitude (a.u.)       :      0.99702
Magnitude (Debye)      :      2.53423



--------------------
Rotational spectrum 
--------------------
 
Rotational constants in cm-1:     0.029322     0.003991     0.003513 
Rotational constants in MHz :   879.040019   119.633669   105.302694 

 Dipole components along the rotational axes: 
x,y,z [a.u.] :     0.217799    -0.972930    -0.005184 
x,y,z [Debye]:     0.553602    -2.472992    -0.013176 

 
------------------------------------------------------------------------------
                         ORCA SPIN-ORBIT COUPLING CALCULATION
------------------------------------------------------------------------------

GBW file                                    ... pentacene_opt_orca_dft.gbw
Input density                               ... pentacene_opt_orca_dft.scfp
Output integrals                            ... pentacene_opt_orca_dft
Operator type                               ... Mean-field/Effective potential
   One-Electron Terms                       ... 1
   Coulomb Contribution                     ... 2
   Exchange Contribution                    ... 3
   Correlation Contribution                 ... 0
   Maximum number of centers                ... 4
Setting up the integration grid             ... done
Evaluating density on the grid              ... (NumEl=  146.000024) done
Evaluating Coulomb term semi-analytically   ... done
SHARK 2-electron DoJ,X=0,1 MaxCenter=1      ... done ( 19.9 sec)
Evaluating the spin-orbit operator          ... done

Maximum memory used throughout the entire SOC-calculation: 723.2 MB
Total time for SOC: 607.767
------------------------------------------------------------------------------
                                ORCA EPR/NMR CALCULATION
------------------------------------------------------------------------------

GBWName                      ... pentacene_opt_orca_dft.gbw
Electron density             ... pentacene_opt_orca_dft.scfp
Spin density                 ... pentacene_opt_orca_dft.scfr
Spin-orbit integrals         ... pentacene_opt_orca_dft
Origin for angular momentum  ... Center of electronic charge
Coordinates of the origin    ...   -0.00149039    0.00666421    0.00003609 (bohrs)
Details of the CP(SCF) procedure:
       Solver   = POPLE   
       MaxIter  =   300   
       Tolerance=    1.000e-08
       COSX Grid=     1   
       Op-0     =   0- 73 =>  74-765
       Op-1     =   0- 71 =>  72-765
Multiplicity                 ... 3
g-tensor                     ... 1
NMR chemical shifts          ... 0
NMR spin-spin couplings      ... 0
NMR spectrum                 ... 0
Forming RHS of the CP-SCF equations         ... 
Calc. angular momentum integrals (SHARK)    ... done

------------------------------------------------------------------------------
                           ORCA CP-SCF CALCULATION
------------------------------------------------------------------------------

Input orbitals are from        ... pentacene_opt_orca_dft.gbw
Input Perturbation             ... pentacene_opt_orca_dft.pin.tmp
Wavefunction output            ... pentacene_opt_orca_dft.pout.tmp
Perturbation mode              ... Imaginary perturbation
Solver                         ... POPLE
Max. number of iterations      ... 300
Convergence tolerance          ... 1.000e-08
Integral handling              ... Direct
DFT GridXC                     ... 1
COSX GridX                     ... 1
COSX IntAccX                   ... 3.067
COSX Algorithm                 ... Auto
Number of perturbations        ... 3
Number of operators            ... 2
Orbital ranges used for CP-SCF:
 Operator 0:  Orbitals   0... 73  to  74...765
 Operator 1:  Orbitals   0... 71  to  72...765
Variables per perturbation     ... 101176
DFT calculation                         ... on
XC functional terms                     ... off
Hybrid DFT                              ... on
   Exchange mixing (SCF)                ...  0.200
   Exchange mixing (CP-SCF)             ...  0.200
   GGA exch. scaling(SCF)               ...  0.720
   GGA exch. scaling (CP-SCF)           ...  0.720
   GGA corr. scaling (SCF)              ...  0.810
   GGA corr. scaling (CP-SCF)           ...  0.810

CP-SCF GRID
-----------

General Integration Accuracy     IntAcc      ... 3.467
Radial Grid Type                 RadialGrid  ... OptM3 with GC (2021)
Angular Grid (max. ang.)         AngularGrid ... 1 (Lebedev-50)
Angular grid pruning method      GridPruning ... 4 (adaptive)
Weight generation scheme         WeightScheme... Becke
Basis function cutoff            BFCut       ... 1.0000e-10
Integration weight cutoff        WCut        ... 1.0000e-14
Angular grids for H and He will be reduced by one unit
Partially contracted basis set               ... off
Rotationally invariant grid construction     ... off

Total number of grid points                  ...    26024
Total number of batches                      ...      420
Average number of points per batch           ...       61
Average number of grid points per atom       ...      723

CP-SCF GRIDX
------------

General Integration Accuracy     IntAcc      ... 3.067
Radial Grid Type                 RadialGrid  ... OptM3 with GC (2021)
Angular Grid (max. ang.)         AngularGrid ... 1 (Lebedev-50)
Angular grid pruning method      GridPruning ... 4 (adaptive)
Weight generation scheme         WeightScheme... Becke
Basis function cutoff            BFCut       ... 1.0000e-10
Integration weight cutoff        WCut        ... 1.0000e-14
Angular grids for H and He will be reduced by one unit
Partially contracted basis set               ... on
Rotationally invariant grid construction     ... off

Total number of grid points                  ...    11908
Total number of batches                      ...      210
Average number of points per batch           ...       56
Average number of grid points per atom       ...      331


WARNING - LOW MEMORY !!!

    CURRENTLY USED: 833.6 MB
    MAXCORE:        1024.0 MB
    USING 81.4% OF MAXCORE.

INSUFFICIENT MEMORY MAY LEAD TO SLOW PERFORMANCE OR CRASHES.

Memory available               ... 182.7 MB
Memory needed per perturbation ...  24.7 MB
Perturbations treated per batch... 3
Number of batches              ... 1
     CP-SCF ITERATION   0:   5.7748e+00 (  40.5 sec   0/  3 done)
     CP-SCF ITERATION   1:   5.7097e-01 (  39.7 sec   0/  3 done)
     CP-SCF ITERATION   2:   1.1238e-01 (  39.1 sec   0/  3 done)
     CP-SCF ITERATION   3:   2.2983e-02 (  39.0 sec   0/  3 done)
     CP-SCF ITERATION   4:   4.0068e-03 (  38.6 sec   0/  3 done)
     CP-SCF ITERATION   5:   5.6188e-04 (  39.4 sec   0/  3 done)
     CP-SCF ITERATION   6:   5.5547e-05 (  40.4 sec   0/  3 done)
     CP-SCF ITERATION   7:   1.1597e-05 (  40.3 sec   0/  3 done)
     CP-SCF ITERATION   8:   2.0137e-06 (  42.3 sec   0/  3 done)
     CP-SCF ITERATION   9:   2.3109e-07 (  44.5 sec   0/  3 done)
     CP-SCF ITERATION  10:   3.1408e-08 (  43.2 sec   0/  3 done)
     CP-SCF ITERATION  11:   2.8114e-09 (  41.5 sec   3/  3 done)
                    *** THE CP-SCF HAS CONVERGED ***

WARNING - LOW MEMORY !!!

    CURRENTLY USED: 837.5 MB
    MAXCORE:        1024.0 MB
    USING 81.8% OF MAXCORE.

INSUFFICIENT MEMORY MAY LEAD TO SLOW PERFORMANCE OR CRASHES.


Forming final perturbed densities           ... done
Transforming perturbed density to AO basis  ... done

Magnetic field perturbation calculated in 490.790 sec
Diamagnetic terms                           (SHARK) ...ORIGIN= -0.001490  0.006664  0.000036
done
terms done

-------------------
ELECTRONIC G-MATRIX
-------------------

 The g-matrix: 
              2.0014543    0.0004015   -0.0000019
             -0.0000026    2.0021202   -0.0000018
              0.0000044   -0.0000018    2.0030371

 gel          2.0023193    2.0023193    2.0023193
 gRMC        -0.0001660   -0.0001660   -0.0001660
 gDSO(tot)    0.0001376    0.0000770    0.0001683
 gPSO(tot)   -0.0008917   -0.0000549    0.0007155
             ----------   ----------   ----------
 g(tot)       2.0013992    2.0021754    2.0030371 iso=  2.0022039
 Delta-g     -0.0009201   -0.0001439    0.0007178 iso= -0.0001154
 Orientation: 
  X          -0.9637893    0.2666643   -0.0005334
  Y           0.2666629    0.9637881    0.0018404
  Z           0.0010049    0.0016315   -0.9999982

Notes:  (1) The g-matrix conforms to the "BgS" spin Hamiltonian convention. 
        (2) The principal values are square roots of the eigenvalues of g*gT.
        (3) Orientations are eigenvectors of g*gT written as column vectors.
        (4) Individual contributions are projections of the full matrices onto the eigenvectors of g*gT.
        (5) Tensor is right-handed.


Maximum memory used throughout the entire EPRNMR-calculation: 943.8 MB

Timings for individual modules:

Sum of individual times         ...     7560.879 sec (= 126.015 min)
GTO integral calculation        ...        2.862 sec (=   0.048 min)   0.0 %
Spin-Orbit-Coupling Matrices    ...      607.695 sec (=  10.128 min)   8.0 %
SCF iterations                  ...     6456.212 sec (= 107.604 min)  85.4 %
EPR/NMR calculation             ...      494.109 sec (=   8.235 min)   6.5 %
                             ****ORCA TERMINATED NORMALLY****
TOTAL RUN TIME: 0 days 2 hours 6 minutes 2 seconds 864 msec
