
                                 *****************
                                 * O   R   C   A *
                                 *****************

                                            #,                                       
                                            ###                                      
                                            ####                                     
                                            #####                                    
                                            ######                                   
                                           ########,                                 
                                     ,,################,,,,,                         
                               ,,#################################,,                 
                          ,,##########################################,,             
                       ,#########################################, ''#####,          
                    ,#############################################,,   '####,        
                  ,##################################################,,,,####,       
                ,###########''''           ''''###############################       
              ,#####''   ,,,,##########,,,,          '''####'''          '####       
            ,##' ,,,,###########################,,,                        '##       
           ' ,,###''''                  '''############,,,                           
         ,,##''                                '''############,,,,        ,,,,,,###''
      ,#''                                            '''#######################'''  
     '                                                          ''''####''''         
             ,#######,   #######,   ,#######,      ##                                
            ,#'     '#,  ##    ##  ,#'     '#,    #''#        ######   ,####,        
            ##       ##  ##   ,#'  ##            #'  '#       #        #'  '#        
            ##       ##  #######   ##           ,######,      #####,   #    #        
            '#,     ,#'  ##    ##  '#,     ,#' ,#      #,         ##   #,  ,#        
             '#######'   ##     ##  '#######'  #'      '#     #####' # '####'        



                  #######################################################
                  #                        -***-                        #
                  #          Department of theory and spectroscopy      #
                  #    Directorship and core code : Frank Neese         #
                  #        Max Planck Institute fuer Kohlenforschung    #
                  #                Kaiser Wilhelm Platz 1               #
                  #                 D-45470 Muelheim/Ruhr               #
                  #                      Germany                        #
                  #                                                     #
                  #                  All rights reserved                #
                  #                        -***-                        #
                  #######################################################


                         Program Version 5.0.3 -  RELEASE  -


 With contributions from (in alphabetic order):
   Daniel Aravena         : Magnetic Suceptibility
   Michael Atanasov       : Ab Initio Ligand Field Theory (pilot matlab implementation)
   Alexander A. Auer      : GIAO ZORA, VPT2 properties, NMR spectrum
   Ute Becker             : Parallelization
   Giovanni Bistoni       : ED, misc. LED, open-shell LED, HFLD
   Martin Brehm           : Molecular dynamics
   Dmytro Bykov           : SCF Hessian
   Vijay G. Chilkuri      : MRCI spin determinant printing, contributions to CSF-ICE
   Dipayan Datta          : RHF DLPNO-CCSD density
   Achintya Kumar Dutta   : EOM-CC, STEOM-CC
   Dmitry Ganyushin       : Spin-Orbit,Spin-Spin,Magnetic field MRCI
   Miquel Garcia          : C-PCM and meta-GGA Hessian, CC/C-PCM, Gaussian charge scheme
   Yang Guo               : DLPNO-NEVPT2, F12-NEVPT2, CIM, IAO-localization
   Andreas Hansen         : Spin unrestricted coupled pair/coupled cluster methods
   Benjamin Helmich-Paris : MC-RPA, TRAH-SCF, COSX integrals
   Lee Huntington         : MR-EOM, pCC
   Robert Izsak           : Overlap fitted RIJCOSX, COSX-SCS-MP3, EOM
   Marcus Kettner         : VPT2
   Christian Kollmar      : KDIIS, OOCD, Brueckner-CCSD(T), CCSD density, CASPT2, CASPT2-K
   Simone Kossmann        : Meta GGA functionals, TD-DFT gradient, OOMP2, MP2 Hessian
   Martin Krupicka        : Initial AUTO-CI
   Lucas Lang             : DCDCAS
   Marvin Lechner         : AUTO-CI (C++ implementation), FIC-MRCC
   Dagmar Lenk            : GEPOL surface, SMD
   Dimitrios Liakos       : Extrapolation schemes; Compound Job, initial MDCI parallelization
   Dimitrios Manganas     : Further ROCIS development; embedding schemes
   Dimitrios Pantazis     : SARC Basis sets
   Anastasios Papadopoulos: AUTO-CI, single reference methods and gradients
   Taras Petrenko         : DFT Hessian,TD-DFT gradient, ASA, ECA, R-Raman, ABS, FL, XAS/XES, NRVS
   Peter Pinski           : DLPNO-MP2, DLPNO-MP2 Gradient
   Christoph Reimann      : Effective Core Potentials
   Marius Retegan         : Local ZFS, SOC
   Christoph Riplinger    : Optimizer, TS searches, QM/MM, DLPNO-CCSD(T), (RO)-DLPNO pert. Triples
   Tobias Risthaus        : Range-separated hybrids, TD-DFT gradient, RPA, STAB
   Michael Roemelt        : Original ROCIS implementation
   Masaaki Saitow         : Open-shell DLPNO-CCSD energy and density
   Barbara Sandhoefer     : DKH picture change effects
   Avijit Sen             : IP-ROCIS
   Kantharuban Sivalingam : CASSCF convergence, NEVPT2, FIC-MRCI
   Bernardo de Souza      : ESD, SOC TD-DFT
   Georgi Stoychev        : AutoAux, RI-MP2 NMR, DLPNO-MP2 response
   Willem Van den Heuvel  : Paramagnetic NMR
   Boris Wezisla          : Elementary symmetry handling
   Frank Wennmohs         : Technical directorship


 We gratefully acknowledge several colleagues who have allowed us to
 interface, adapt or use parts of their codes:
   Stefan Grimme, W. Hujo, H. Kruse, P. Pracht,  : VdW corrections, initial TS optimization,
                  C. Bannwarth, S. Ehlert          DFT functionals, gCP, sTDA/sTD-DF
   Ed Valeev, F. Pavosevic, A. Kumar             : LibInt (2-el integral package), F12 methods
   Garnet Chan, S. Sharma, J. Yang, R. Olivares  : DMRG
   Ulf Ekstrom                                   : XCFun DFT Library
   Mihaly Kallay                                 : mrcc  (arbitrary order and MRCC methods)
   Jiri Pittner, Ondrej Demel                    : Mk-CCSD
   Frank Weinhold                                : gennbo (NPA and NBO analysis)
   Christopher J. Cramer and Donald G. Truhlar   : smd solvation model
   Lars Goerigk                                  : TD-DFT with DH, B97 family of functionals
   V. Asgeirsson, H. Jonsson                     : NEB implementation
   FAccTs GmbH                                   : IRC, NEB, NEB-TS, DLPNO-Multilevel, CI-OPT
                                                   MM, QMMM, 2- and 3-layer-ONIOM, Crystal-QMMM,
                                                   LR-CPCM, SF, NACMEs, symmetry and pop. for TD-DFT,
                                                   nearIR, NL-DFT gradient (VV10), updates on ESD,
                                                   ML-optimized integration grids
   S Lehtola, MJT Oliveira, MAL Marques          : LibXC Library
   Liviu Ungur et al                             : ANISO software


 Your calculation uses the libint2 library for the computation of 2-el integrals
 For citations please refer to: http://libint.valeyev.net

 Your ORCA version has been built with support for libXC version: 5.1.0
 For citations please refer to: https://tddft.org/programs/libxc/

 This ORCA versions uses:
   CBLAS   interface :  Fast vector & matrix operations
   LAPACKE interface :  Fast linear algebra routines
   SCALAPACK package :  Parallel linear algebra routines
   Shared memory     :  Shared parallel matrices
   BLAS/LAPACK       :  OpenBLAS 0.3.15  USE64BITINT DYNAMIC_ARCH NO_AFFINITY Haswell SINGLE_THREADED
        Core in use  :  Haswell
   Copyright (c) 2011-2014, The OpenBLAS Project




***************************************
The coordinates will be read from file: tetracene_opt.xyz
***************************************


================================================================================

----- Orbital basis set information -----
Your calculation utilizes the basis: def2-TZVP
   F. Weigend and R. Ahlrichs, Phys. Chem. Chem. Phys. 7, 3297 (2005).

----- AuxJ basis set information -----
Your calculation utilizes the auxiliary basis: def2/J
   F. Weigend, Phys. Chem. Chem. Phys. 8, 1057 (2006).

================================================================================
                                        WARNINGS
                       Please study these warnings very carefully!
================================================================================


WARNING: your system is open-shell and RHF/RKS was chosen
  ===> : WILL SWITCH to UHF/UKS


INFO   : the flag for use of the SHARK integral package has been found!

================================================================================
                                       INPUT FILE
================================================================================
NAME = tetracene_opt_orca_dft.inp
|  1> # List of keywords
|  2> !B3LYP def2-TZVP SOMF(1X) SMALLPRINT #DKH
|  3> 
|  4> %METHOD 			# DFT input block
|  5> END	
|  6> 
|  7> %SCF                            # Control of the SCF procedure
|  8>  maxiter 500                    # max. number of SCF iterations
|  9>  TolE 1e-8                      # energy change between two cycles
| 10>  TolErr 5e-7                    # DIIS error convergence
| 11>  ConvForced 1                   # 0: converg. not mandatory; 1: break if not meet convergence
| 12> END
| 13> 
| 14> %EPRNMR 			# Control of EPR and NMR calculations
| 15>  gtensor 1			# Calculate the g-tensor 
| 16>  maxiter 300			# max. number of iterations
| 17>  Tol 1e-8			# g-tensor convergence
| 18>  ori CenterOfElCharge		# origin for magnetic properties
| 19>  printlevel 2			# detailed information
| 20> END
| 21> 
| 22> * XYZFILE 0 3 tetracene_opt.xyz 		# Coordinates
| 23> 
| 24> 
| 25>                          ****END OF INPUT****
================================================================================

                       ****************************
                       * Single Point Calculation *
                       ****************************

---------------------------------
CARTESIAN COORDINATES (ANGSTROEM)
---------------------------------
  C      0.000000   -0.728254    0.000802
  C     -1.220705   -1.399228   -0.001801
  H     -1.226143   -2.483677   -0.003376
  C      1.220708   -1.399226    0.003305
  H      1.226147   -2.483675    0.005199
  C      2.472871   -0.710929    0.002659
  C      3.693384   -1.389547    0.005499
  H      3.691270   -2.473522    0.010198
  C      4.895163   -0.695114    0.002232
  H      5.831703   -1.237047    0.004587
  C      4.895170    0.695086   -0.004222
  H      5.831716    1.237005   -0.007761
  C      3.693399    1.389541   -0.006071
  H      3.691288    2.473516   -0.010727
  C      2.472875    0.710941   -0.001979
  C     -2.472868   -0.710932   -0.002063
  C     -3.693378   -1.389549   -0.006137
  H     -3.691259   -2.473524   -0.010851
  C     -4.895159   -0.695115   -0.004187
  H     -5.831696   -1.237047   -0.007684
  C     -4.895173    0.695085    0.002327
  H     -5.831722    1.237004    0.004815
  C     -3.693404    1.389539    0.005510
  H     -3.691298    2.473513    0.010233
  C     -2.472877    0.710939    0.002573
  C     -1.220718    1.399246    0.003174
  H     -1.226159    2.483696    0.004973
  C     -0.000001    0.728278    0.000773
  C      1.220714    1.399248   -0.001766
  H      1.226153    2.483698   -0.003365

----------------------------
CARTESIAN COORDINATES (A.U.)
----------------------------
  NO LB      ZA    FRAG     MASS         X           Y           Z
   0 C     6.0000    0    12.011    0.000000   -1.376201    0.001515
   1 C     6.0000    0    12.011   -2.306799   -2.644158   -0.003404
   2 H     1.0000    0     1.008   -2.317074   -4.693470   -0.006381
   3 C     6.0000    0    12.011    2.306804   -2.644154    0.006246
   4 H     1.0000    0     1.008    2.317083   -4.693465    0.009825
   5 C     6.0000    0    12.011    4.673048   -1.343461    0.005024
   6 C     6.0000    0    12.011    6.979485   -2.625863    0.010392
   7 H     1.0000    0     1.008    6.975489   -4.674278    0.019272
   8 C     6.0000    0    12.011    9.250517   -1.313574    0.004217
   9 H     1.0000    0     1.008   11.020321   -2.337679    0.008669
  10 C     6.0000    0    12.011    9.250530    1.313523   -0.007978
  11 H     1.0000    0     1.008   11.020346    2.337600   -0.014665
  12 C     6.0000    0    12.011    6.979512    2.625852   -0.011473
  13 H     1.0000    0     1.008    6.975524    4.674268   -0.020272
  14 C     6.0000    0    12.011    4.673056    1.343484   -0.003739
  15 C     6.0000    0    12.011   -4.673044   -1.343467   -0.003898
  16 C     6.0000    0    12.011   -6.979473   -2.625867   -0.011598
  17 H     1.0000    0     1.008   -6.975469   -4.674283   -0.020506
  18 C     6.0000    0    12.011   -9.250511   -1.313576   -0.007913
  19 H     1.0000    0     1.008  -11.020309   -2.337679   -0.014521
  20 C     6.0000    0    12.011   -9.250536    1.313520    0.004398
  21 H     1.0000    0     1.008  -11.020357    2.337599    0.009099
  22 C     6.0000    0    12.011   -6.979522    2.625848    0.010412
  23 H     1.0000    0     1.008   -6.975542    4.674263    0.019337
  24 C     6.0000    0    12.011   -4.673060    1.343480    0.004861
  25 C     6.0000    0    12.011   -2.306823    2.644192    0.005998
  26 H     1.0000    0     1.008   -2.317105    4.693505    0.009397
  27 C     6.0000    0    12.011   -0.000002    1.376246    0.001461
  28 C     6.0000    0    12.011    2.306815    2.644196   -0.003337
  29 H     1.0000    0     1.008    2.317094    4.693510   -0.006359

--------------------------------
INTERNAL COORDINATES (ANGSTROEM)
--------------------------------
 C      0   0   0     0.000000000000     0.00000000     0.00000000
 C      1   0   0     1.392959000013     0.00000000     0.00000000
 H      2   1   0     1.084463999952   119.08323900     0.00000000
 C      1   2   3     1.392959999997   122.40848600   359.91029600
 H      4   1   2     1.084463999959   119.08322800   359.88136201
 C      4   1   2     1.428867999967   122.40712200   179.84246500
 C      6   4   1     1.396490000036   122.12834599   179.98454200
 H      7   6   4     1.083986999918   118.96295001   359.88442600
 C      7   6   4     1.387991000034   120.90405600   179.87687100
 H      9   7   6     1.082036999978   119.92252400   179.99501800
 C      9   7   6     1.390215000000   120.02153200     0.00000000
 H     11   9   7     1.082038000088   120.05594400   180.06050899
 C     11   9   7     1.387993000048   120.02158800     0.06346300
 H     13  11   9     1.083986999989   120.13345700   179.97717700
 C     13  11   9     1.396493000035   120.90403499     0.00000000
 C      2   1   3     1.428868000056   122.40712600   179.98014500
 C     16   2   1     1.396488999995   122.12836600   179.92932200
 H     17  16   2     1.083987000048   118.96296200   359.90038001
 C     17  16   2     1.387992000047   120.90405300   179.89871400
 H     19  17  16     1.082036999928   119.92252000   179.98305100
 C     19  17  16     1.390215000055   120.02152699     0.00000000
 H     21  19  17     1.082037999999   120.05593100   180.05899800
 C     21  19  17     1.387992999973   120.02159400     0.06558900
 H     23  21  19     1.083987000038   120.13346300   179.97818899
 C     23  21  19     1.396492999951   120.90403400     0.00000000
 C     25  23  21     1.428869999971   122.12882000   179.87889400
 H     26  25  23     1.084464999998   118.50997100   359.93760700
 C     26  25  23     1.392965999935   122.40701800   179.97480900
 C     28  26  25     1.392965000015   122.40911400   179.84774100
 H     29  28  26     1.084465000012   119.08302000   359.91076600

---------------------------
INTERNAL COORDINATES (A.U.)
---------------------------
 C      0   0   0     0.000000000000     0.00000000     0.00000000
 C      1   0   0     2.632311025805     0.00000000     0.00000000
 H      2   1   0     2.049339962006   119.08323900     0.00000000
 C      1   2   3     2.632312915500   122.40848600   359.91029600
 H      4   1   2     2.049339962019   119.08322800   359.88136201
 C      4   1   2     2.700169201461   122.40712200   179.84246500
 C      6   4   1     2.638983648828   122.12834599   179.98454200
 H      7   6   4     2.048438562577   118.96295001   359.88442600
 C      7   6   4     2.622922866412   120.90405600   179.87687100
 H      9   7   6     2.044753596728   119.92252400   179.99501800
 C      9   7   6     2.627125617270   120.02153200     0.00000000
 H     11   9   7     2.044755486662   120.05594400   180.06050899
 C     11   9   7     2.622926645890   120.02158800     0.06346300
 H     13  11   9     2.048438562710   120.13345700   179.97717700
 C     13  11   9     2.638989318005   120.90403499     0.00000000
 C      2   1   3     2.700169201630   122.40712600   179.98014500
 C     16   2   1     2.638981759023   122.12836600   179.92932200
 H     17  16   2     2.048438562822   118.96296200   359.90038001
 C     17  16   2     2.622924756163   120.90405300   179.89871400
 H     19  17  16     2.044753596634   119.92252000   179.98305100
 C     19  17  16     2.627125617373   120.02152699     0.00000000
 H     21  19  17     2.044755486494   120.05593100   180.05899800
 C     21  19  17     2.622926645748   120.02159400     0.06558900
 H     23  21  19     2.048438562803   120.13346300   179.97818899
 C     23  21  19     2.638989317845   120.90403400     0.00000000
 C     25  23  21     2.700172980921   122.12882000   179.87889400
 H     26  25  23     2.049341851818   118.50997100   359.93760700
 C     26  25  23     2.632324253741   122.40701800   179.97480900
 C     28  26  25     2.632322364167   122.40911400   179.84774100
 H     29  28  26     2.049341851846   119.08302000   359.91076600

---------------------
BASIS SET INFORMATION
---------------------
There are 2 groups of distinct atoms

 Group   1 Type C   : 11s6p2d1f contracted to 5s3p2d1f pattern {62111/411/11/1}
 Group   2 Type H   : 5s1p contracted to 3s1p pattern {311/1}

Atom   0C    basis set group =>   1
Atom   1C    basis set group =>   1
Atom   2H    basis set group =>   2
Atom   3C    basis set group =>   1
Atom   4H    basis set group =>   2
Atom   5C    basis set group =>   1
Atom   6C    basis set group =>   1
Atom   7H    basis set group =>   2
Atom   8C    basis set group =>   1
Atom   9H    basis set group =>   2
Atom  10C    basis set group =>   1
Atom  11H    basis set group =>   2
Atom  12C    basis set group =>   1
Atom  13H    basis set group =>   2
Atom  14C    basis set group =>   1
Atom  15C    basis set group =>   1
Atom  16C    basis set group =>   1
Atom  17H    basis set group =>   2
Atom  18C    basis set group =>   1
Atom  19H    basis set group =>   2
Atom  20C    basis set group =>   1
Atom  21H    basis set group =>   2
Atom  22C    basis set group =>   1
Atom  23H    basis set group =>   2
Atom  24C    basis set group =>   1
Atom  25C    basis set group =>   1
Atom  26H    basis set group =>   2
Atom  27C    basis set group =>   1
Atom  28C    basis set group =>   1
Atom  29H    basis set group =>   2
---------------------------------
AUXILIARY/J BASIS SET INFORMATION
---------------------------------
There are 2 groups of distinct atoms

 Group   1 Type C   : 12s5p4d2f1g contracted to 6s4p3d1f1g pattern {711111/2111/211/2/1}
 Group   2 Type H   : 5s2p1d contracted to 3s1p1d pattern {311/2/1}

Atom   0C    basis set group =>   1
Atom   1C    basis set group =>   1
Atom   2H    basis set group =>   2
Atom   3C    basis set group =>   1
Atom   4H    basis set group =>   2
Atom   5C    basis set group =>   1
Atom   6C    basis set group =>   1
Atom   7H    basis set group =>   2
Atom   8C    basis set group =>   1
Atom   9H    basis set group =>   2
Atom  10C    basis set group =>   1
Atom  11H    basis set group =>   2
Atom  12C    basis set group =>   1
Atom  13H    basis set group =>   2
Atom  14C    basis set group =>   1
Atom  15C    basis set group =>   1
Atom  16C    basis set group =>   1
Atom  17H    basis set group =>   2
Atom  18C    basis set group =>   1
Atom  19H    basis set group =>   2
Atom  20C    basis set group =>   1
Atom  21H    basis set group =>   2
Atom  22C    basis set group =>   1
Atom  23H    basis set group =>   2
Atom  24C    basis set group =>   1
Atom  25C    basis set group =>   1
Atom  26H    basis set group =>   2
Atom  27C    basis set group =>   1
Atom  28C    basis set group =>   1
Atom  29H    basis set group =>   2
------------------------------------------------------------------------------
                           ORCA GTO INTEGRAL CALCULATION
                           -- RI-GTO INTEGRALS CHOSEN --
------------------------------------------------------------------------------
------------------------------------------------------------------------------
                   ___                                                        
                  /   \      - P O W E R E D   B Y -                         
                 /     \                                                     
                 |  |  |   _    _      __       _____    __    __             
                 |  |  |  | |  | |    /  \     |  _  \  |  |  /  |          
                  \  \/   | |  | |   /    \    | | | |  |  | /  /          
                 / \  \   | |__| |  /  /\  \   | |_| |  |  |/  /          
                |  |  |   |  __  | /  /__\  \  |    /   |      \           
                |  |  |   | |  | | |   __   |  |    \   |  |\   \          
                \     /   | |  | | |  |  |  |  | |\  \  |  | \   \       
                 \___/    |_|  |_| |__|  |__|  |_| \__\ |__|  \__/        
                                                                              
                      - O R C A' S   B I G   F R I E N D -                    
                                      &                                       
                       - I N T E G R A L  F E E D E R -                       
                                                                              
 v1 FN, 2020, v2 2021                                                         
------------------------------------------------------------------------------


Reading SHARK input file tetracene_opt_orca_dft.SHARKINP.tmp ... ok
----------------------
SHARK INTEGRAL PACKAGE
----------------------

Number of atoms                             ...     30
Number of basis functions                   ...    630
Number of shells                            ...    246
Maximum angular momentum                    ...      3
Integral batch strategy                     ... SHARK/LIBINT Hybrid
RI-J (if used) integral strategy            ... SPLIT-RIJ (Revised 2003 algorithm where possible)
Printlevel                                  ...      1
Contraction scheme used                     ... SEGMENTED contraction
Coulomb Range Separation                    ... NOT USED
Exchange Range Separation                   ... NOT USED
Finite Nucleus Model                        ... NOT USED
Auxiliary Coulomb fitting basis             ... AVAILABLE
   # of basis functions in Aux-J            ...   1014
   # of shells in Aux-J                     ...    330
   Maximum angular momentum in Aux-J        ...      4
Auxiliary J/K fitting basis                 ... NOT available
Auxiliary Correlation fitting basis         ... NOT available
Auxiliary 'external' fitting basis          ... NOT available
Integral threshold                          ...     1.000000e-10
Primitive cut-off                           ...     1.000000e-11
Primitive pair pre-selection threshold      ...     1.000000e-11

Calculating pre-screening integrals         ... done (  0.2 sec) Dimension = 246
Organizing shell pair data                  ... done (  0.2 sec)
Shell pair information
Total number of shell pairs                 ...     30381
Shell pairs after pre-screening             ...     22350
Total number of primitive shell pairs       ...     93960
Primitive shell pairs kept                  ...     47434
          la=0 lb=0:   5546 shell pairs
          la=1 lb=0:   6348 shell pairs
          la=1 lb=1:   1791 shell pairs
          la=2 lb=0:   3304 shell pairs
          la=2 lb=1:   1840 shell pairs
          la=2 lb=2:    496 shell pairs
          la=3 lb=0:   1548 shell pairs
          la=3 lb=1:    892 shell pairs
          la=3 lb=2:    464 shell pairs
          la=3 lb=3:    121 shell pairs

Calculating one electron integrals          ... done (  0.2 sec)
Calculating RI/J V-Matrix + Cholesky decomp.... done (  0.1 sec)
Calculating Nuclear repulsion               ... done (  0.0 sec) ENN=   1116.853113346856 Eh

SHARK setup successfully completed in   2.2 seconds

Maximum memory used throughout the entire GTOINT-calculation: 318.4 MB
-------------------------------------------------------------------------------
                                 ORCA SCF
-------------------------------------------------------------------------------

------------
SCF SETTINGS
------------
Hamiltonian:
 Density Functional     Method          .... DFT(GTOs)
 Exchange Functional    Exchange        .... B88
   X-Alpha parameter    XAlpha          ....  0.666667
   Becke's b parameter  XBeta           ....  0.004200
 Correlation Functional Correlation     .... LYP
 LDA part of GGA corr.  LDAOpt          .... VWN-5
 Gradients option       PostSCFGGA      .... off
 Hybrid DFT is turned on
   Fraction HF Exchange ScalHFX         ....  0.200000
   Scaling of DF-GGA-X  ScalDFX         ....  0.720000
   Scaling of DF-GGA-C  ScalDFC         ....  0.810000
   Scaling of DF-LDA-C  ScalLDAC        ....  1.000000
   Perturbative correction              ....  0.000000
   Density functional embedding theory  .... OFF
   NL short-range parameter             ....  4.800000
 RI-approximation to the Coulomb term is turned on
   Number of AuxJ basis functions       .... 1014
   RIJ-COSX (HFX calculated with COS-X)).... on


General Settings:
 Integral files         IntName         .... tetracene_opt_orca_dft
 Hartree-Fock type      HFTyp           .... UHF
 Total Charge           Charge          ....    0
 Multiplicity           Mult            ....    3
 Number of Electrons    NEL             ....  120
 Basis Dimension        Dim             ....  630
 Nuclear Repulsion      ENuc            ....   1116.8531133469 Eh

Convergence Acceleration:
 DIIS                   CNVDIIS         .... on
   Start iteration      DIISMaxIt       ....    12
   Startup error        DIISStart       ....  0.200000
   # of expansion vecs  DIISMaxEq       ....     5
   Bias factor          DIISBfac        ....   1.050
   Max. coefficient     DIISMaxC        ....  10.000
 Trust-Rad. Augm. Hess. CNVTRAH         .... auto
   Auto Start mean grad. ratio tolernc. ....  1.125000
   Auto Start start iteration           ....    20
   Auto Start num. interpolation iter.  ....    10
   Max. Number of Micro iterations      ....    16
   Max. Number of Macro iterations      .... Maxiter - #DIIS iter
   Number of Davidson start vectors     ....     2
   Converg. threshold I  (grad. norm)   ....   5.000e-05
   Converg. threshold II (energy diff.) ....   1.000e-08
   Grad. Scal. Fac. for Micro threshold ....   0.100
   Minimum threshold for Micro iter.    ....   0.010
   NR start threshold (gradient norm)   ....   0.001
   Initial trust radius                 ....   0.400
   Minimum AH scaling param. (alpha)    ....   1.000
   Maximum AH scaling param. (alpha)    .... 1000.000
   Orbital update algorithm             .... Taylor
   White noise on init. David. guess    .... on
   Maximum white noise                  ....   0.010
   Quad. conv. algorithm                .... NR
 SOSCF                  CNVSOSCF        .... off
 Level Shifting         CNVShift        .... on
   Level shift para.    LevelShift      ....    0.2500
   Turn off err/grad.   ShiftErr        ....    0.0010
 Zerner damping         CNVZerner       .... off
 Static damping         CNVDamp         .... on
   Fraction old density DampFac         ....    0.7000
   Max. Damping (<1)    DampMax         ....    0.9800
   Min. Damping (>=0)   DampMin         ....    0.0000
   Turn off err/grad.   DampErr         ....    0.1000
 Fernandez-Rico         CNVRico         .... off

SCF Procedure:
 Maximum # iterations   MaxIter         ....   500
 SCF integral mode      SCFMode         .... Direct
   Integral package                     .... SHARK and LIBINT hybrid scheme
 Reset frequency        DirectResetFreq ....    20
 Integral Threshold     Thresh          ....  1.000e-10 Eh
 Primitive CutOff       TCut            ....  1.000e-11 Eh

Convergence Tolerance:
 Convergence Check Mode ConvCheckMode   .... Total+1el-Energy
 Convergence forced     ConvForced      .... 1
 Energy Change          TolE            ....  1.000e-08 Eh
 1-El. energy change                    ....  1.000e-05 Eh
 DIIS Error             TolErr          ....  5.000e-07


Diagonalization of the overlap matrix:
Smallest eigenvalue                        ... 5.123e-06
Time for diagonalization                   ...    0.084 sec
Threshold for overlap eigenvalues          ... 1.000e-08
Number of eigenvalues below threshold      ... 0
Time for construction of square roots      ...    0.033 sec
Total time needed                          ...    0.119 sec

Time for model grid setup =    1.049 sec

------------------------------
INITIAL GUESS: MODEL POTENTIAL
------------------------------
Loading Hartree-Fock densities                     ... done
Calculating cut-offs                               ... done
Initializing the effective Hamiltonian             ... done
Setting up the integral package (SHARK)            ... done
Starting the Coulomb interaction                   ... done (   2.5 sec)
Reading the grid                                   ... done
Mapping shells                                     ... done
Starting the XC term evaluation                    ... done (   1.7 sec)
  promolecular density results
     # of electrons  =    119.982713768
     EX              =    -96.172399252
     EC              =     -4.039832943
     EX+EC           =   -100.212232195
Transforming the Hamiltonian                       ... done (   0.0 sec)
Diagonalizing the Hamiltonian                      ... done (   0.1 sec)
Back transforming the eigenvectors                 ... done (   0.0 sec)
Now organizing SCF variables                       ... done
                      ------------------
                      INITIAL GUESS DONE (   5.4 sec)
                      ------------------
-------------------
DFT GRID GENERATION
-------------------

General Integration Accuracy     IntAcc      ... 4.388
Radial Grid Type                 RadialGrid  ... OptM3 with GC (2021)
Angular Grid (max. ang.)         AngularGrid ... 4 (Lebedev-302)
Angular grid pruning method      GridPruning ... 4 (adaptive)
Weight generation scheme         WeightScheme... Becke
Basis function cutoff            BFCut       ... 1.0000e-10
Integration weight cutoff        WCut        ... 1.0000e-14
Angular grids for H and He will be reduced by one unit
Partially contracted basis set               ... off
Rotationally invariant grid construction     ... off

Total number of grid points                  ...   145604
Total number of batches                      ...     2294
Average number of points per batch           ...       63
Average number of grid points per atom       ...     4853
Time for grid setup =    3.372 sec

--------------------
COSX GRID GENERATION
--------------------

GRIDX 1
-------
General Integration Accuracy     IntAcc      ... 3.816
Radial Grid Type                 RadialGrid  ... OptM3 with GC (2021)
Angular Grid (max. ang.)         AngularGrid ... 1 (Lebedev-50)
Angular grid pruning method      GridPruning ... 4 (adaptive)
Weight generation scheme         WeightScheme... Becke
Basis function cutoff            BFCut       ... 1.0000e-10
Integration weight cutoff        WCut        ... 1.0000e-14
Angular grids for H and He will be reduced by one unit
Partially contracted basis set               ... on
Rotationally invariant grid construction     ... off

Total number of grid points                  ...    18569
Total number of batches                      ...      304
Average number of points per batch           ...       61
Average number of grid points per atom       ...      619
UseSFitting                                  ... on

GRIDX 2
-------
General Integration Accuracy     IntAcc      ... 4.020
Radial Grid Type                 RadialGrid  ... OptM3 with GC (2021)
Angular Grid (max. ang.)         AngularGrid ... 2 (Lebedev-110)
Angular grid pruning method      GridPruning ... 4 (adaptive)
Weight generation scheme         WeightScheme... Becke
Basis function cutoff            BFCut       ... 1.0000e-10
Integration weight cutoff        WCut        ... 1.0000e-14
Angular grids for H and He will be reduced by one unit
Partially contracted basis set               ... on
Rotationally invariant grid construction     ... off

Total number of grid points                  ...    40620
Total number of batches                      ...      646
Average number of points per batch           ...       62
Average number of grid points per atom       ...     1354
UseSFitting                                  ... on

GRIDX 3
-------
General Integration Accuracy     IntAcc      ... 4.338
Radial Grid Type                 RadialGrid  ... OptM3 with GC (2021)
Angular Grid (max. ang.)         AngularGrid ... 3 (Lebedev-194)
Angular grid pruning method      GridPruning ... 4 (adaptive)
Weight generation scheme         WeightScheme... Becke
Basis function cutoff            BFCut       ... 1.0000e-10
Integration weight cutoff        WCut        ... 1.0000e-14
Angular grids for H and He will be reduced by one unit
Partially contracted basis set               ... on
Rotationally invariant grid construction     ... off

Total number of grid points                  ...    89106
Total number of batches                      ...     1408
Average number of points per batch           ...       63
Average number of grid points per atom       ...     2970
UseSFitting                                  ... on

Time for X-Grid setup             =    5.733 sec

--------------
SCF ITERATIONS
--------------
ITER       Energy         Delta-E        Max-DP      RMS-DP      [F,P]     Damp
               ***  Starting incremental Fock matrix formation  ***
  0   -692.5398145179   0.000000000000 0.01890225  0.00043033  0.0752052 0.7000
  1   -692.7054751295  -0.165660611550 0.01634403  0.00032223  0.0405314 0.7000
                               ***Turning on DIIS***
  2   -692.7825118950  -0.077036765579 0.03698112  0.00060882  0.0188927 0.0000
  3   -692.8943666416  -0.111854746611 0.00899101  0.00020288  0.0218113 0.0000
  4   -692.9216398675  -0.027273225863 0.00314196  0.00006581  0.0055346 0.0000
  5   -692.9230289329  -0.001389065393 0.00152742  0.00003232  0.0016000 0.0000
  6   -692.9232637866  -0.000234853730 0.00107082  0.00002082  0.0010959 0.0000
  7   -692.9233702714  -0.000106484774 0.00118650  0.00001974  0.0006571 0.0000
               *** Restarting incremental Fock matrix formation ***
                                   *** Resetting DIIS ***
  8   -692.9232990670   0.000071204397 0.00649871  0.00009539  0.0005051 0.0000
  9   -692.9232883014   0.000010765650 0.00028990  0.00000402  0.0007268 0.0000
 10   -692.9233083289  -0.000020027502 0.00012923  0.00000262  0.0000986 0.0000
 11   -692.9233088059  -0.000000477008 0.00013255  0.00000209  0.0000841 0.0000
 12   -692.9233094381  -0.000000632248 0.00020055  0.00000337  0.0000195 0.0000
 13   -692.9233094870  -0.000000048881 0.00010980  0.00000221  0.0000150 0.0000
 14   -692.9233095262  -0.000000039223 0.00019992  0.00000382  0.0000030 0.0000
 15   -692.9233095399  -0.000000013719 0.00021745  0.00000277  0.0000018 0.0000
 16   -692.9233095157   0.000000024255 0.00011756  0.00000198  0.0000018 0.0000
                            ***DIIS convergence achieved***

               *****************************************************
               *                     SUCCESS                       *
               *           SCF CONVERGED AFTER  17 CYCLES          *
               *****************************************************

Old exchange energy                            =    -19.552230615 Eh
New exchange energy                            =    -19.552165448 Eh
Exchange energy change after final integration =      0.000065166 Eh
Total energy after final integration           =   -692.923244441 Eh
Final COS-X integration done in                =   143.159 sec

----------------
TOTAL SCF ENERGY
----------------

Total Energy       :         -692.92324444 Eh          -18855.40007 eV

Components:
Nuclear Repulsion  :         1116.85311335 Eh           30391.11827 eV
Electronic Energy  :        -1809.77635779 Eh          -49246.51834 eV
One Electron Energy:        -3151.76333751 Eh          -85763.84056 eV
Two Electron Energy:         1341.98697972 Eh           36517.32222 eV
Max COSX asymmetry :            0.00000037 Eh               0.00001 eV

Virial components:
Potential Energy   :        -1382.82342458 Eh          -37628.53838 eV
Kinetic Energy     :          689.90018014 Eh           18773.13831 eV
Virial Ratio       :            2.00438189


DFT components:
N(Alpha)           :       61.000049342718 electrons
N(Beta)            :       59.000032386881 electrons
N(Total)           :      120.000081729599 electrons
E(X)               :      -77.653724117267 Eh       
E(C)               :       -4.764254772681 Eh       
E(XC)              :      -82.417978889947 Eh       
DFET-embed. en.    :        0.000000000000 Eh       

---------------
SCF CONVERGENCE
---------------

  Last Energy change         ...   -9.1297e-08  Tolerance :   1.0000e-08
  Last MAX-Density change    ...    0.0000e+00  Tolerance :   1.0000e-05
  Last RMS-Density change    ...    0.0000e+00  Tolerance :   1.0000e-06
  Last DIIS Error            ...    4.6123e-07  Tolerance :   5.0000e-07

             **** THE GBW FILE WAS UPDATED (tetracene_opt_orca_dft.gbw) ****
             **** DENSITY tetracene_opt_orca_dft.scfp WAS UPDATED ****
             **** ENERGY FILE WAS UPDATED (tetracene_opt_orca_dft.en.tmp) ****
----------------------
UHF SPIN CONTAMINATION
----------------------

Warning: in a DFT calculation there is little theoretical justification to 
         calculate <S**2> as in Hartree-Fock theory. We will do it anyways
         but you should keep in mind that the values have only limited relevance

Expectation value of <S**2>     :     2.026258
Ideal value S*(S+1) for S=1.0   :     2.000000
Deviation                       :     0.026258

             **** THE GBW FILE WAS UPDATED (tetracene_opt_orca_dft.gbw) ****
             **** DENSITY tetracene_opt_orca_dft.scfp WAS UPDATED ****
----------------
ORBITAL ENERGIES
----------------
                 SPIN UP ORBITALS
  NO   OCC          E(Eh)            E(eV) 
   0   1.0000     -10.184889      -277.1449 
   1   1.0000     -10.184579      -277.1365 
   2   1.0000     -10.184191      -277.1259 
   3   1.0000     -10.184177      -277.1256 
   4   1.0000     -10.183768      -277.1144 
   5   1.0000     -10.183764      -277.1143 
   6   1.0000     -10.181972      -277.0655 
   7   1.0000     -10.181959      -277.0652 
   8   1.0000     -10.181909      -277.0638 
   9   1.0000     -10.181891      -277.0633 
  10   1.0000     -10.175816      -276.8980 
  11   1.0000     -10.175806      -276.8977 
  12   1.0000     -10.175802      -276.8977 
  13   1.0000     -10.175802      -276.8977 
  14   1.0000     -10.174844      -276.8716 
  15   1.0000     -10.174842      -276.8715 
  16   1.0000     -10.174306      -276.8569 
  17   1.0000     -10.174306      -276.8569 
  18   1.0000      -0.891571       -24.2609 
  19   1.0000      -0.872483       -23.7415 
  20   1.0000      -0.839919       -22.8554 
  21   1.0000      -0.795411       -21.6442 
  22   1.0000      -0.792616       -21.5682 
  23   1.0000      -0.771307       -20.9883 
  24   1.0000      -0.745079       -20.2746 
  25   1.0000      -0.740198       -20.1418 
  26   1.0000      -0.693235       -18.8639 
  27   1.0000      -0.671485       -18.2720 
  28   1.0000      -0.619861       -16.8673 
  29   1.0000      -0.611644       -16.6437 
  30   1.0000      -0.605964       -16.4891 
  31   1.0000      -0.597169       -16.2498 
  32   1.0000      -0.566251       -15.4085 
  33   1.0000      -0.530193       -14.4273 
  34   1.0000      -0.507364       -13.8061 
  35   1.0000      -0.498104       -13.5541 
  36   1.0000      -0.496128       -13.5003 
  37   1.0000      -0.457427       -12.4472 
  38   1.0000      -0.456223       -12.4145 
  39   1.0000      -0.450982       -12.2719 
  40   1.0000      -0.444599       -12.0982 
  41   1.0000      -0.423384       -11.5209 
  42   1.0000      -0.417887       -11.3713 
  43   1.0000      -0.417704       -11.3663 
  44   1.0000      -0.415737       -11.3128 
  45   1.0000      -0.413524       -11.2526 
  46   1.0000      -0.403537       -10.9808 
  47   1.0000      -0.392618       -10.6837 
  48   1.0000      -0.368277       -10.0213 
  49   1.0000      -0.365813        -9.9543 
  50   1.0000      -0.353347        -9.6151 
  51   1.0000      -0.342930        -9.3316 
  52   1.0000      -0.337901        -9.1948 
  53   1.0000      -0.330508        -8.9936 
  54   1.0000      -0.322577        -8.7778 
  55   1.0000      -0.301725        -8.2103 
  56   1.0000      -0.289258        -7.8711 
  57   1.0000      -0.252172        -6.8620 
  58   1.0000      -0.248541        -6.7631 
  59   1.0000      -0.199343        -5.4244 
  60   1.0000      -0.143448        -3.9034 
  61   0.0000      -0.037471        -1.0196 
  62   0.0000      -0.020840        -0.5671 
  63   0.0000       0.000666         0.0181 
  64   0.0000       0.012470         0.3393 
  65   0.0000       0.023231         0.6321 
  66   0.0000       0.051419         1.3992 
  67   0.0000       0.053229         1.4484 
  68   0.0000       0.053662         1.4602 
  69   0.0000       0.070439         1.9168 
  70   0.0000       0.070552         1.9198 
  71   0.0000       0.088231         2.4009 
  72   0.0000       0.092576         2.5191 
  73   0.0000       0.104134         2.8336 
  74   0.0000       0.106550         2.8994 
  75   0.0000       0.106728         2.9042 
  76   0.0000       0.116503         3.1702 
  77   0.0000       0.121796         3.3142 
  78   0.0000       0.127090         3.4583 
  79   0.0000       0.134309         3.6547 
  80   0.0000       0.143203         3.8968 
  81   0.0000       0.156167         4.2495 
  82   0.0000       0.160022         4.3544 
  83   0.0000       0.166667         4.5352 
  84   0.0000       0.166685         4.5357 
  85   0.0000       0.177433         4.8282 
  86   0.0000       0.187137         5.0922 
  87   0.0000       0.188650         5.1334 
  88   0.0000       0.196308         5.3418 
  89   0.0000       0.203029         5.5247 
  90   0.0000       0.205145         5.5823 
  91   0.0000       0.216936         5.9031 
  92   0.0000       0.228105         6.2070 
  93   0.0000       0.233103         6.3431 
  94   0.0000       0.233599         6.3565 
  95   0.0000       0.237859         6.4725 
  96   0.0000       0.242737         6.6052 
  97   0.0000       0.252365         6.8672 
  98   0.0000       0.253797         6.9062 
  99   0.0000       0.259654         7.0656 
 100   0.0000       0.262110         7.1324 
 101   0.0000       0.265767         7.2319 
 102   0.0000       0.270554         7.3621 
 103   0.0000       0.272380         7.4118 
 104   0.0000       0.275314         7.4917 
 105   0.0000       0.285852         7.7784 
 106   0.0000       0.289600         7.8804 
 107   0.0000       0.293376         7.9832 
 108   0.0000       0.299930         8.1615 
 109   0.0000       0.302978         8.2445 
 110   0.0000       0.303751         8.2655 
 111   0.0000       0.316247         8.6055 
 112   0.0000       0.319243         8.6870 
 113   0.0000       0.319318         8.6891 
 114   0.0000       0.324512         8.8304 
 115   0.0000       0.327196         8.9034 
 116   0.0000       0.335877         9.1397 
 117   0.0000       0.344672         9.3790 
 118   0.0000       0.349201         9.5022 
 119   0.0000       0.358270         9.7490 
 120   0.0000       0.361272         9.8307 
 121   0.0000       0.365764         9.9530 
 122   0.0000       0.366310         9.9678 
 123   0.0000       0.372384        10.1331 
 124   0.0000       0.390396        10.6232 
 125   0.0000       0.390997        10.6396 
 126   0.0000       0.391853        10.6628 
 127   0.0000       0.400897        10.9090 
 128   0.0000       0.403332        10.9752 
 129   0.0000       0.413575        11.2539 
 130   0.0000       0.414549        11.2804 
 131   0.0000       0.420742        11.4490 
 132   0.0000       0.423284        11.5181 
 133   0.0000       0.423678        11.5289 
 134   0.0000       0.429358        11.6834 
 135   0.0000       0.436434        11.8760 
 136   0.0000       0.444461        12.0944 
 137   0.0000       0.445353        12.1187 
 138   0.0000       0.445683        12.1277 
 139   0.0000       0.479225        13.0404 
 140   0.0000       0.483370        13.1532 
 141   0.0000       0.484453        13.1826 
 142   0.0000       0.485865        13.2211 
 143   0.0000       0.488336        13.2883 
 144   0.0000       0.496537        13.5115 
 145   0.0000       0.498961        13.5774 
 146   0.0000       0.502387        13.6707 
 147   0.0000       0.504772        13.7355 
 148   0.0000       0.506516        13.7830 
 149   0.0000       0.509039        13.8517 
 150   0.0000       0.515152        14.0180 
 151   0.0000       0.521491        14.1905 
 152   0.0000       0.522382        14.2147 
 153   0.0000       0.533653        14.5214 
 154   0.0000       0.546017        14.8579 
 155   0.0000       0.569817        15.5055 
 156   0.0000       0.578799        15.7499 
 157   0.0000       0.583857        15.8876 
 158   0.0000       0.586070        15.9478 
 159   0.0000       0.592728        16.1289 
 160   0.0000       0.607712        16.5367 
 161   0.0000       0.633393        17.2355 
 162   0.0000       0.640503        17.4290 
 163   0.0000       0.640691        17.4341 
 164   0.0000       0.659418        17.9437 
 165   0.0000       0.659852        17.9555 
 166   0.0000       0.661814        18.0089 
 167   0.0000       0.668071        18.1791 
 168   0.0000       0.670584        18.2475 
 169   0.0000       0.680592        18.5199 
 170   0.0000       0.690811        18.7979 
 171   0.0000       0.700631        19.0651 
 172   0.0000       0.702399        19.1133 
 173   0.0000       0.704052        19.1582 
 174   0.0000       0.707259        19.2455 
 175   0.0000       0.711655        19.3651 
 176   0.0000       0.716002        19.4834 
 177   0.0000       0.727538        19.7973 
 178   0.0000       0.729423        19.8486 
 179   0.0000       0.743925        20.2432 
 180   0.0000       0.749748        20.4017 
 181   0.0000       0.752711        20.4823 
 182   0.0000       0.754042        20.5185 
 183   0.0000       0.760236        20.6871 
 184   0.0000       0.761647        20.7255 
 185   0.0000       0.770127        20.9562 
 186   0.0000       0.783248        21.3133 
 187   0.0000       0.783796        21.3282 
 188   0.0000       0.788000        21.4426 
 189   0.0000       0.791166        21.5287 
 190   0.0000       0.805902        21.9297 
 191   0.0000       0.811054        22.0699 
 192   0.0000       0.814807        22.1720 
 193   0.0000       0.820730        22.3332 
 194   0.0000       0.842107        22.9149 
 195   0.0000       0.850616        23.1464 
 196   0.0000       0.851658        23.1748 
 197   0.0000       0.873859        23.7789 
 198   0.0000       0.873880        23.7795 
 199   0.0000       0.876657        23.8550 
 200   0.0000       0.886700        24.1283 
 201   0.0000       0.887597        24.1527 
 202   0.0000       0.891843        24.2683 
 203   0.0000       0.896095        24.3840 
 204   0.0000       0.908112        24.7110 
 205   0.0000       0.912473        24.8297 
 206   0.0000       0.913604        24.8604 
 207   0.0000       0.935701        25.4617 
 208   0.0000       0.940333        25.5878 
 209   0.0000       0.952136        25.9089 
 210   0.0000       0.969689        26.3866 
 211   0.0000       0.975694        26.5500 
 212   0.0000       0.994757        27.0687 
 213   0.0000       0.995637        27.0927 
 214   0.0000       1.015804        27.6414 
 215   0.0000       1.016413        27.6580 
 216   0.0000       1.028365        27.9832 
 217   0.0000       1.028636        27.9906 
 218   0.0000       1.030399        28.0386 
 219   0.0000       1.040220        28.3058 
 220   0.0000       1.088622        29.6229 
 221   0.0000       1.099943        29.9310 
 222   0.0000       1.123580        30.5742 
 223   0.0000       1.125723        30.6325 
 224   0.0000       1.127698        30.6862 
 225   0.0000       1.130229        30.7551 
 226   0.0000       1.132565        30.8187 
 227   0.0000       1.145565        31.1724 
 228   0.0000       1.147503        31.2251 
 229   0.0000       1.175582        31.9892 
 230   0.0000       1.185731        32.2654 
 231   0.0000       1.198932        32.6246 
 232   0.0000       1.204248        32.7693 
 233   0.0000       1.209621        32.9155 
 234   0.0000       1.219181        33.1756 
 235   0.0000       1.229239        33.4493 
 236   0.0000       1.234037        33.5799 
 237   0.0000       1.237104        33.6633 
 238   0.0000       1.244729        33.8708 
 239   0.0000       1.252042        34.0698 
 240   0.0000       1.253249        34.1026 
 241   0.0000       1.263684        34.3866 
 242   0.0000       1.269312        34.5397 
 243   0.0000       1.280858        34.8539 
 244   0.0000       1.304195        35.4890 
 245   0.0000       1.311084        35.6764 
 246   0.0000       1.311793        35.6957 
 247   0.0000       1.321542        35.9610 
 248   0.0000       1.322609        35.9900 
 249   0.0000       1.329032        36.1648 
 250   0.0000       1.353198        36.8224 
 251   0.0000       1.354267        36.8515 
 252   0.0000       1.373676        37.3796 
 253   0.0000       1.375879        37.4396 
 254   0.0000       1.387965        37.7684 
 255   0.0000       1.398361        38.0513 
 256   0.0000       1.416805        38.5532 
 257   0.0000       1.422857        38.7179 
 258   0.0000       1.423084        38.7241 
 259   0.0000       1.437756        39.1233 
 260   0.0000       1.452062        39.5126 
 261   0.0000       1.456638        39.6371 
 262   0.0000       1.462422        39.7945 
 263   0.0000       1.468941        39.9719 
 264   0.0000       1.470539        40.0154 
 265   0.0000       1.480552        40.2879 
 266   0.0000       1.481556        40.3152 
 267   0.0000       1.493666        40.6447 
 268   0.0000       1.506963        41.0065 
 269   0.0000       1.516531        41.2669 
 270   0.0000       1.518315        41.3154 
 271   0.0000       1.523499        41.4565 
 272   0.0000       1.546362        42.0787 
 273   0.0000       1.552712        42.2514 
 274   0.0000       1.553225        42.2654 
 275   0.0000       1.562948        42.5300 
 276   0.0000       1.569250        42.7015 
 277   0.0000       1.571191        42.7543 
 278   0.0000       1.583127        43.0791 
 279   0.0000       1.599448        43.5232 
 280   0.0000       1.618713        44.0474 
 281   0.0000       1.623401        44.1750 
 282   0.0000       1.627054        44.2744 
 283   0.0000       1.645023        44.7634 
 284   0.0000       1.645219        44.7687 
 285   0.0000       1.646060        44.7916 
 286   0.0000       1.654918        45.0326 
 287   0.0000       1.664653        45.2975 
 288   0.0000       1.665756        45.3275 
 289   0.0000       1.665992        45.3340 
 290   0.0000       1.675285        45.5868 
 291   0.0000       1.687813        45.9277 
 292   0.0000       1.692418        46.0530 
 293   0.0000       1.698283        46.2126 
 294   0.0000       1.706253        46.4295 
 295   0.0000       1.707141        46.4537 
 296   0.0000       1.735893        47.2361 
 297   0.0000       1.755020        47.7565 
 298   0.0000       1.757891        47.8347 
 299   0.0000       1.771232        48.1977 
 300   0.0000       1.780913        48.4611 
 301   0.0000       1.790536        48.7230 
 302   0.0000       1.824419        49.6450 
 303   0.0000       1.850968        50.3674 
 304   0.0000       1.854318        50.4586 
 305   0.0000       1.866741        50.7966 
 306   0.0000       1.869895        50.8824 
 307   0.0000       1.882235        51.2182 
 308   0.0000       1.902995        51.7831 
 309   0.0000       1.906375        51.8751 
 310   0.0000       1.919448        52.2308 
 311   0.0000       1.943813        52.8938 
 312   0.0000       1.951254        53.0963 
 313   0.0000       1.952763        53.1374 
 314   0.0000       1.955671        53.2165 
 315   0.0000       1.970805        53.6283 
 316   0.0000       1.994112        54.2625 
 317   0.0000       1.998051        54.3697 
 318   0.0000       2.019930        54.9651 
 319   0.0000       2.021225        55.0003 
 320   0.0000       2.029600        55.2282 
 321   0.0000       2.053034        55.8659 
 322   0.0000       2.066810        56.2407 
 323   0.0000       2.079663        56.5905 
 324   0.0000       2.111676        57.4616 
 325   0.0000       2.120081        57.6903 
 326   0.0000       2.124021        57.7975 
 327   0.0000       2.134809        58.0911 
 328   0.0000       2.146197        58.4010 
 329   0.0000       2.158497        58.7357 
 330   0.0000       2.176222        59.2180 
 331   0.0000       2.186043        59.4852 
 332   0.0000       2.188005        59.5387 
 333   0.0000       2.191626        59.6372 
 334   0.0000       2.193199        59.6800 
 335   0.0000       2.201082        59.8945 
 336   0.0000       2.213233        60.2251 
 337   0.0000       2.214434        60.2578 
 338   0.0000       2.226121        60.5758 
 339   0.0000       2.236362        60.8545 
 340   0.0000       2.240897        60.9779 
 341   0.0000       2.291365        62.3512 
 342   0.0000       2.293129        62.3992 
 343   0.0000       2.302758        62.6612 
 344   0.0000       2.309420        62.8425 
 345   0.0000       2.325880        63.2904 
 346   0.0000       2.341290        63.7097 
 347   0.0000       2.350897        63.9712 
 348   0.0000       2.359690        64.2104 
 349   0.0000       2.385756        64.9197 
 350   0.0000       2.425597        66.0039 
 351   0.0000       2.429629        66.1136 
 352   0.0000       2.443471        66.4902 
 353   0.0000       2.456851        66.8543 
 354   0.0000       2.458043        66.8867 
 355   0.0000       2.459020        66.9133 
 356   0.0000       2.474579        67.3367 
 357   0.0000       2.497081        67.9490 
 358   0.0000       2.515795        68.4583 
 359   0.0000       2.521026        68.6006 
 360   0.0000       2.523907        68.6790 
 361   0.0000       2.549255        69.3687 
 362   0.0000       2.551015        69.4167 
 363   0.0000       2.552783        69.4648 
 364   0.0000       2.560297        69.6692 
 365   0.0000       2.598084        70.6975 
 366   0.0000       2.608272        70.9747 
 367   0.0000       2.613913        71.1282 
 368   0.0000       2.624841        71.4256 
 369   0.0000       2.645032        71.9750 
 370   0.0000       2.645047        71.9754 
 371   0.0000       2.653598        72.2081 
 372   0.0000       2.654749        72.2394 
 373   0.0000       2.660169        72.3869 
 374   0.0000       2.664676        72.5095 
 375   0.0000       2.668752        72.6204 
 376   0.0000       2.676757        72.8382 
 377   0.0000       2.676990        72.8446 
 378   0.0000       2.722110        74.0724 
 379   0.0000       2.732105        74.3443 
 380   0.0000       2.739670        74.5502 
 381   0.0000       2.740080        74.5614 
 382   0.0000       2.740104        74.5620 
 383   0.0000       2.743382        74.6512 
 384   0.0000       2.751359        74.8683 
 385   0.0000       2.761977        75.1572 
 386   0.0000       2.789843        75.9155 
 387   0.0000       2.793022        76.0020 
 388   0.0000       2.794344        76.0380 
 389   0.0000       2.797057        76.1118 
 390   0.0000       2.798843        76.1604 
 391   0.0000       2.807727        76.4021 
 392   0.0000       2.814585        76.5887 
 393   0.0000       2.819684        76.7275 
 394   0.0000       2.825352        76.8817 
 395   0.0000       2.839039        77.2542 
 396   0.0000       2.845006        77.4165 
 397   0.0000       2.854206        77.6669 
 398   0.0000       2.861051        77.8531 
 399   0.0000       2.862648        77.8966 
 400   0.0000       2.864335        77.9425 
 401   0.0000       2.867127        78.0185 
 402   0.0000       2.867270        78.0224 
 403   0.0000       2.880785        78.3901 
 404   0.0000       2.886332        78.5411 
 405   0.0000       2.889785        78.6351 
 406   0.0000       2.894458        78.7622 
 407   0.0000       2.904989        79.0488 
 408   0.0000       2.927817        79.6699 
 409   0.0000       2.934532        79.8527 
 410   0.0000       2.936091        79.8951 
 411   0.0000       2.937178        79.9247 
 412   0.0000       2.943621        80.1000 
 413   0.0000       2.948797        80.2409 
 414   0.0000       2.950521        80.2878 
 415   0.0000       2.962999        80.6273 
 416   0.0000       2.965920        80.7068 
 417   0.0000       2.982068        81.1462 
 418   0.0000       2.985016        81.2264 
 419   0.0000       2.989636        81.3521 
 420   0.0000       2.994876        81.4947 
 421   0.0000       3.026842        82.3646 
 422   0.0000       3.027767        82.3897 
 423   0.0000       3.036163        82.6182 
 424   0.0000       3.040256        82.7296 
 425   0.0000       3.055800        83.1525 
 426   0.0000       3.057807        83.2072 
 427   0.0000       3.057894        83.2095 
 428   0.0000       3.059823        83.2620 
 429   0.0000       3.076996        83.7293 
 430   0.0000       3.077106        83.7323 
 431   0.0000       3.088311        84.0372 
 432   0.0000       3.094757        84.2126 
 433   0.0000       3.102626        84.4267 
 434   0.0000       3.111195        84.6599 
 435   0.0000       3.127156        85.0943 
 436   0.0000       3.131272        85.2062 
 437   0.0000       3.134569        85.2960 
 438   0.0000       3.136374        85.3451 
 439   0.0000       3.155302        85.8601 
 440   0.0000       3.177071        86.4525 
 441   0.0000       3.178408        86.4889 
 442   0.0000       3.179813        86.5271 
 443   0.0000       3.180673        86.5505 
 444   0.0000       3.183360        86.6236 
 445   0.0000       3.192456        86.8711 
 446   0.0000       3.217663        87.5571 
 447   0.0000       3.218191        87.5714 
 448   0.0000       3.233119        87.9776 
 449   0.0000       3.241595        88.2083 
 450   0.0000       3.241724        88.2118 
 451   0.0000       3.246122        88.3315 
 452   0.0000       3.247867        88.3790 
 453   0.0000       3.272447        89.0478 
 454   0.0000       3.275885        89.1414 
 455   0.0000       3.281168        89.2851 
 456   0.0000       3.284875        89.3860 
 457   0.0000       3.299966        89.7967 
 458   0.0000       3.307068        89.9899 
 459   0.0000       3.311605        90.1133 
 460   0.0000       3.323311        90.4319 
 461   0.0000       3.327312        90.5408 
 462   0.0000       3.330446        90.6260 
 463   0.0000       3.331786        90.6625 
 464   0.0000       3.346096        91.0519 
 465   0.0000       3.355977        91.3208 
 466   0.0000       3.361415        91.4688 
 467   0.0000       3.378741        91.9402 
 468   0.0000       3.378946        91.9458 
 469   0.0000       3.384448        92.0955 
 470   0.0000       3.389372        92.2295 
 471   0.0000       3.404002        92.6276 
 472   0.0000       3.415062        92.9286 
 473   0.0000       3.432196        93.3948 
 474   0.0000       3.438898        93.5772 
 475   0.0000       3.440403        93.6181 
 476   0.0000       3.452514        93.9477 
 477   0.0000       3.455132        94.0189 
 478   0.0000       3.463635        94.2503 
 479   0.0000       3.465126        94.2909 
 480   0.0000       3.469792        94.4178 
 481   0.0000       3.484525        94.8187 
 482   0.0000       3.486630        94.8760 
 483   0.0000       3.498510        95.1993 
 484   0.0000       3.508545        95.4724 
 485   0.0000       3.511559        95.5544 
 486   0.0000       3.520709        95.8033 
 487   0.0000       3.532496        96.1241 
 488   0.0000       3.532573        96.1262 
 489   0.0000       3.547050        96.5201 
 490   0.0000       3.547531        96.5332 
 491   0.0000       3.556615        96.7804 
 492   0.0000       3.556980        96.7903 
 493   0.0000       3.573536        97.2409 
 494   0.0000       3.577512        97.3491 
 495   0.0000       3.588619        97.6513 
 496   0.0000       3.614167        98.3465 
 497   0.0000       3.618107        98.4537 
 498   0.0000       3.620655        98.5230 
 499   0.0000       3.651163        99.3532 
 500   0.0000       3.669382        99.8490 
 501   0.0000       3.671760        99.9137 
 502   0.0000       3.682670       100.2105 
 503   0.0000       3.683886       100.2436 
 504   0.0000       3.705651       100.8359 
 505   0.0000       3.715769       101.1112 
 506   0.0000       3.736319       101.6704 
 507   0.0000       3.766508       102.4919 
 508   0.0000       3.774766       102.7166 
 509   0.0000       3.786412       103.0335 
 510   0.0000       3.801060       103.4321 
 511   0.0000       3.836834       104.4056 
 512   0.0000       3.843155       104.5776 
 513   0.0000       3.858184       104.9865 
 514   0.0000       3.889439       105.8370 
 515   0.0000       3.890516       105.8663 
 516   0.0000       3.893321       105.9427 
 517   0.0000       3.907671       106.3331 
 518   0.0000       3.919183       106.6464 
 519   0.0000       3.935242       107.0834 
 520   0.0000       3.938031       107.1593 
 521   0.0000       3.951569       107.5277 
 522   0.0000       3.960728       107.7769 
 523   0.0000       3.995393       108.7202 
 524   0.0000       3.996208       108.7424 
 525   0.0000       4.006750       109.0292 
 526   0.0000       4.030163       109.6663 
 527   0.0000       4.032422       109.7278 
 528   0.0000       4.046619       110.1141 
 529   0.0000       4.060969       110.5046 
 530   0.0000       4.067659       110.6866 
 531   0.0000       4.088928       111.2654 
 532   0.0000       4.090894       111.3189 
 533   0.0000       4.100081       111.5689 
 534   0.0000       4.121768       112.1590 
 535   0.0000       4.155862       113.0868 
 536   0.0000       4.156275       113.0980 
 537   0.0000       4.170532       113.4859 
 538   0.0000       4.177743       113.6822 
 539   0.0000       4.181858       113.7941 
 540   0.0000       4.182183       113.8030 
 541   0.0000       4.183571       113.8407 
 542   0.0000       4.189456       114.0009 
 543   0.0000       4.209594       114.5489 
 544   0.0000       4.212914       114.6392 
 545   0.0000       4.222183       114.8914 
 546   0.0000       4.239811       115.3711 
 547   0.0000       4.241557       115.4186 
 548   0.0000       4.247674       115.5851 
 549   0.0000       4.275230       116.3349 
 550   0.0000       4.294754       116.8662 
 551   0.0000       4.302992       117.0904 
 552   0.0000       4.318834       117.5214 
 553   0.0000       4.341790       118.1461 
 554   0.0000       4.343884       118.2031 
 555   0.0000       4.370562       118.9290 
 556   0.0000       4.384070       119.2966 
 557   0.0000       4.387645       119.3939 
 558   0.0000       4.394259       119.5739 
 559   0.0000       4.427664       120.4829 
 560   0.0000       4.444245       120.9340 
 561   0.0000       4.454619       121.2163 
 562   0.0000       4.476120       121.8014 
 563   0.0000       4.483998       122.0158 
 564   0.0000       4.505701       122.6064 
 565   0.0000       4.522453       123.0622 
 566   0.0000       4.582545       124.6974 
 567   0.0000       4.585084       124.7665 
 568   0.0000       4.603719       125.2736 
 569   0.0000       4.623001       125.7982 
 570   0.0000       4.647179       126.4562 
 571   0.0000       4.692177       127.6806 
 572   0.0000       4.710350       128.1751 
 573   0.0000       4.717116       128.3593 
 574   0.0000       4.719418       128.4219 
 575   0.0000       4.758008       129.4720 
 576   0.0000       4.783385       130.1625 
 577   0.0000       4.792061       130.3986 
 578   0.0000       4.814076       130.9977 
 579   0.0000       4.829691       131.4226 
 580   0.0000       4.836246       131.6009 
 581   0.0000       4.876691       132.7015 
 582   0.0000       4.882008       132.8462 
 583   0.0000       4.891473       133.1037 
 584   0.0000       4.919089       133.8552 
 585   0.0000       4.944614       134.5498 
 586   0.0000       4.952825       134.7732 
 587   0.0000       4.985568       135.6642 
 588   0.0000       5.012427       136.3951 
 589   0.0000       5.102071       138.8344 
 590   0.0000       5.102135       138.8362 
 591   0.0000       5.133015       139.6764 
 592   0.0000       5.151078       140.1680 
 593   0.0000       5.176473       140.8590 
 594   0.0000       5.218562       142.0043 
 595   0.0000       5.230678       142.3340 
 596   0.0000       5.279902       143.6734 
 597   0.0000       5.286754       143.8599 
 598   0.0000       5.320784       144.7859 
 599   0.0000       5.398149       146.8911 
 600   0.0000       5.465144       148.7141 
 601   0.0000       5.480968       149.1447 
 602   0.0000       5.497669       149.5992 
 603   0.0000       5.534559       150.6030 
 604   0.0000       5.582304       151.9022 
 605   0.0000       5.611600       152.6994 
 606   0.0000       5.668203       154.2396 
 607   0.0000       5.689212       154.8113 
 608   0.0000       5.756540       156.6434 
 609   0.0000       5.770695       157.0286 
 610   0.0000       5.925161       161.2318 
 611   0.0000       6.205443       168.8587 
 612   0.0000      21.843420       594.3897 
 613   0.0000      22.388821       609.2308 
 614   0.0000      22.577784       614.3727 
 615   0.0000      22.604074       615.0881 
 616   0.0000      22.689217       617.4050 
 617   0.0000      22.693428       617.5196 
 618   0.0000      22.693546       617.5228 
 619   0.0000      22.767513       619.5355 
 620   0.0000      22.837062       621.4281 
 621   0.0000      22.841883       621.5592 
 622   0.0000      22.844964       621.6431 
 623   0.0000      22.875084       622.4627 
 624   0.0000      22.930801       623.9788 
 625   0.0000      22.992896       625.6685 
 626   0.0000      23.227592       632.0549 
 627   0.0000      23.256916       632.8529 
 628   0.0000      23.582635       641.7161 
 629   0.0000      23.852342       649.0552 

                 SPIN DOWN ORBITALS
  NO   OCC          E(Eh)            E(eV) 
   0   1.0000     -10.186714      -277.1946 
   1   1.0000     -10.186391      -277.1858 
   2   1.0000     -10.184412      -277.1319 
   3   1.0000     -10.184400      -277.1316 
   4   1.0000     -10.183983      -277.1203 
   5   1.0000     -10.183982      -277.1202 
   6   1.0000     -10.175654      -276.8936 
   7   1.0000     -10.175646      -276.8934 
   8   1.0000     -10.175637      -276.8932 
   9   1.0000     -10.175614      -276.8925 
  10   1.0000     -10.174343      -276.8579 
  11   1.0000     -10.174331      -276.8576 
  12   1.0000     -10.174259      -276.8557 
  13   1.0000     -10.174259      -276.8557 
  14   1.0000     -10.173722      -276.8411 
  15   1.0000     -10.173722      -276.8410 
  16   1.0000     -10.173257      -276.8284 
  17   1.0000     -10.173257      -276.8284 
  18   1.0000      -0.886461       -24.1218 
  19   1.0000      -0.868305       -23.6278 
  20   1.0000      -0.836154       -22.7529 
  21   1.0000      -0.785996       -21.3880 
  22   1.0000      -0.785531       -21.3754 
  23   1.0000      -0.764794       -20.8111 
  24   1.0000      -0.743583       -20.2339 
  25   1.0000      -0.734525       -19.9874 
  26   1.0000      -0.681603       -18.5473 
  27   1.0000      -0.663187       -18.0462 
  28   1.0000      -0.617710       -16.8088 
  29   1.0000      -0.608692       -16.5633 
  30   1.0000      -0.599951       -16.3255 
  31   1.0000      -0.593117       -16.1395 
  32   1.0000      -0.560307       -15.2467 
  33   1.0000      -0.528442       -14.3796 
  34   1.0000      -0.504789       -13.7360 
  35   1.0000      -0.495232       -13.4759 
  36   1.0000      -0.492174       -13.3927 
  37   1.0000      -0.456416       -12.4197 
  38   1.0000      -0.453480       -12.3398 
  39   1.0000      -0.448700       -12.2097 
  40   1.0000      -0.442488       -12.0407 
  41   1.0000      -0.421256       -11.4630 
  42   1.0000      -0.414023       -11.2662 
  43   1.0000      -0.413557       -11.2535 
  44   1.0000      -0.410765       -11.1775 
  45   1.0000      -0.403771       -10.9872 
  46   1.0000      -0.400973       -10.9110 
  47   1.0000      -0.381001       -10.3676 
  48   1.0000      -0.367080        -9.9888 
  49   1.0000      -0.363485        -9.8909 
  50   1.0000      -0.342325        -9.3151 
  51   1.0000      -0.341685        -9.2977 
  52   1.0000      -0.334931        -9.1139 
  53   1.0000      -0.329315        -8.9611 
  54   1.0000      -0.295145        -8.0313 
  55   1.0000      -0.282544        -7.6884 
  56   1.0000      -0.269315        -7.3284 
  57   1.0000      -0.247506        -6.7350 
  58   1.0000      -0.227098        -6.1796 
  59   0.0000      -0.127926        -3.4810 
  60   0.0000      -0.074364        -2.0235 
  61   0.0000      -0.018115        -0.4929 
  62   0.0000      -0.016194        -0.4407 
  63   0.0000       0.017511         0.4765 
  64   0.0000       0.031034         0.8445 
  65   0.0000       0.042677         1.1613 
  66   0.0000       0.052733         1.4349 
  67   0.0000       0.053812         1.4643 
  68   0.0000       0.054263         1.4766 
  69   0.0000       0.071303         1.9402 
  70   0.0000       0.072335         1.9683 
  71   0.0000       0.089548         2.4367 
  72   0.0000       0.093316         2.5393 
  73   0.0000       0.104965         2.8562 
  74   0.0000       0.107667         2.9298 
  75   0.0000       0.116638         3.1739 
  76   0.0000       0.118463         3.2235 
  77   0.0000       0.122412         3.3310 
  78   0.0000       0.128625         3.5001 
  79   0.0000       0.136961         3.7269 
  80   0.0000       0.145252         3.9525 
  81   0.0000       0.161712         4.4004 
  82   0.0000       0.162870         4.4319 
  83   0.0000       0.168013         4.5719 
  84   0.0000       0.169600         4.6151 
  85   0.0000       0.177472         4.8293 
  86   0.0000       0.189377         5.1532 
  87   0.0000       0.196969         5.3598 
  88   0.0000       0.198828         5.4104 
  89   0.0000       0.207587         5.6487 
  90   0.0000       0.208779         5.6812 
  91   0.0000       0.218657         5.9500 
  92   0.0000       0.233080         6.3424 
  93   0.0000       0.234840         6.3903 
  94   0.0000       0.235961         6.4208 
  95   0.0000       0.240657         6.5486 
  96   0.0000       0.252107         6.8602 
  97   0.0000       0.254266         6.9189 
  98   0.0000       0.256192         6.9713 
  99   0.0000       0.265495         7.2245 
 100   0.0000       0.266329         7.2472 
 101   0.0000       0.271066         7.3761 
 102   0.0000       0.271452         7.3866 
 103   0.0000       0.273213         7.4345 
 104   0.0000       0.286988         7.8093 
 105   0.0000       0.294288         8.0080 
 106   0.0000       0.295670         8.0456 
 107   0.0000       0.296185         8.0596 
 108   0.0000       0.305162         8.3039 
 109   0.0000       0.306428         8.3383 
 110   0.0000       0.308783         8.4024 
 111   0.0000       0.320466         8.7203 
 112   0.0000       0.320684         8.7263 
 113   0.0000       0.327578         8.9139 
 114   0.0000       0.327709         8.9174 
 115   0.0000       0.330562         8.9950 
 116   0.0000       0.337101         9.1730 
 117   0.0000       0.347926         9.4676 
 118   0.0000       0.350550         9.5389 
 119   0.0000       0.363810         9.8998 
 120   0.0000       0.364966         9.9312 
 121   0.0000       0.367918        10.0115 
 122   0.0000       0.369449        10.0532 
 123   0.0000       0.383167        10.4265 
 124   0.0000       0.393160        10.6984 
 125   0.0000       0.393591        10.7102 
 126   0.0000       0.393876        10.7179 
 127   0.0000       0.402256        10.9460 
 128   0.0000       0.408369        11.1123 
 129   0.0000       0.415590        11.3088 
 130   0.0000       0.420558        11.4440 
 131   0.0000       0.423973        11.5369 
 132   0.0000       0.424845        11.5606 
 133   0.0000       0.426547        11.6069 
 134   0.0000       0.434272        11.8171 
 135   0.0000       0.437269        11.8987 
 136   0.0000       0.446357        12.1460 
 137   0.0000       0.447089        12.1659 
 138   0.0000       0.447640        12.1809 
 139   0.0000       0.482118        13.1191 
 140   0.0000       0.486553        13.2398 
 141   0.0000       0.487507        13.2657 
 142   0.0000       0.488877        13.3030 
 143   0.0000       0.496714        13.5163 
 144   0.0000       0.498128        13.5548 
 145   0.0000       0.498477        13.5642 
 146   0.0000       0.504620        13.7314 
 147   0.0000       0.506631        13.7861 
 148   0.0000       0.508454        13.8357 
 149   0.0000       0.511339        13.9142 
 150   0.0000       0.516098        14.0438 
 151   0.0000       0.524004        14.2589 
 152   0.0000       0.525048        14.2873 
 153   0.0000       0.535069        14.5600 
 154   0.0000       0.547652        14.9024 
 155   0.0000       0.574313        15.6278 
 156   0.0000       0.583643        15.8817 
 157   0.0000       0.584953        15.9174 
 158   0.0000       0.587184        15.9781 
 159   0.0000       0.594338        16.1728 
 160   0.0000       0.611177        16.6310 
 161   0.0000       0.634948        17.2778 
 162   0.0000       0.644129        17.5276 
 163   0.0000       0.644637        17.5415 
 164   0.0000       0.661042        17.9879 
 165   0.0000       0.663372        18.0513 
 166   0.0000       0.664382        18.0788 
 167   0.0000       0.669067        18.2062 
 168   0.0000       0.671800        18.2806 
 169   0.0000       0.683667        18.6035 
 170   0.0000       0.696160        18.9435 
 171   0.0000       0.701153        19.0794 
 172   0.0000       0.705788        19.2055 
 173   0.0000       0.708337        19.2748 
 174   0.0000       0.708877        19.2895 
 175   0.0000       0.713829        19.4243 
 176   0.0000       0.719735        19.5850 
 177   0.0000       0.735118        20.0036 
 178   0.0000       0.739502        20.1229 
 179   0.0000       0.746284        20.3074 
 180   0.0000       0.753974        20.5167 
 181   0.0000       0.754491        20.5307 
 182   0.0000       0.761709        20.7272 
 183   0.0000       0.763063        20.7640 
 184   0.0000       0.763139        20.7661 
 185   0.0000       0.778033        21.1714 
 186   0.0000       0.784434        21.3455 
 187   0.0000       0.785710        21.3803 
 188   0.0000       0.793991        21.6056 
 189   0.0000       0.798028        21.7154 
 190   0.0000       0.807544        21.9744 
 191   0.0000       0.814287        22.1579 
 192   0.0000       0.815763        22.1980 
 193   0.0000       0.822239        22.3743 
 194   0.0000       0.848592        23.0914 
 195   0.0000       0.853482        23.2244 
 196   0.0000       0.856988        23.3198 
 197   0.0000       0.875099        23.8127 
 198   0.0000       0.875523        23.8242 
 199   0.0000       0.880366        23.9560 
 200   0.0000       0.888092        24.1662 
 201   0.0000       0.890867        24.2417 
 202   0.0000       0.896831        24.4040 
 203   0.0000       0.900950        24.5161 
 204   0.0000       0.910350        24.7719 
 205   0.0000       0.916188        24.9307 
 206   0.0000       0.916721        24.9452 
 207   0.0000       0.940006        25.5789 
 208   0.0000       0.948120        25.7997 
 209   0.0000       0.953996        25.9595 
 210   0.0000       0.976715        26.5778 
 211   0.0000       0.976922        26.5834 
 212   0.0000       0.999646        27.2017 
 213   0.0000       1.003653        27.3108 
 214   0.0000       1.018938        27.7267 
 215   0.0000       1.019568        27.7439 
 216   0.0000       1.031771        28.0759 
 217   0.0000       1.032356        28.0918 
 218   0.0000       1.036480        28.2040 
 219   0.0000       1.046664        28.4812 
 220   0.0000       1.091501        29.7012 
 221   0.0000       1.102505        30.0007 
 222   0.0000       1.127774        30.6883 
 223   0.0000       1.132288        30.8111 
 224   0.0000       1.132386        30.8138 
 225   0.0000       1.133642        30.8480 
 226   0.0000       1.134939        30.8833 
 227   0.0000       1.146208        31.1899 
 228   0.0000       1.157163        31.4880 
 229   0.0000       1.177429        32.0395 
 230   0.0000       1.190505        32.3953 
 231   0.0000       1.204949        32.7883 
 232   0.0000       1.212368        32.9902 
 233   0.0000       1.213255        33.0143 
 234   0.0000       1.221160        33.2295 
 235   0.0000       1.231574        33.5128 
 236   0.0000       1.234688        33.5976 
 237   0.0000       1.238740        33.7078 
 238   0.0000       1.246733        33.9253 
 239   0.0000       1.256113        34.1806 
 240   0.0000       1.257908        34.2294 
 241   0.0000       1.265220        34.4284 
 242   0.0000       1.271926        34.6109 
 243   0.0000       1.282956        34.9110 
 244   0.0000       1.307550        35.5802 
 245   0.0000       1.312906        35.7260 
 246   0.0000       1.316433        35.8220 
 247   0.0000       1.322983        36.0002 
 248   0.0000       1.333068        36.2746 
 249   0.0000       1.335010        36.3275 
 250   0.0000       1.356387        36.9092 
 251   0.0000       1.357324        36.9347 
 252   0.0000       1.377341        37.4794 
 253   0.0000       1.385923        37.7129 
 254   0.0000       1.401618        38.1400 
 255   0.0000       1.406227        38.2654 
 256   0.0000       1.424241        38.7556 
 257   0.0000       1.424776        38.7701 
 258   0.0000       1.425881        38.8002 
[...]
      f+3     :    -0.000056
      f-3     :    -0.000035
 17 H s       :    -0.002136  s :    -0.002136
      pz      :     0.001637  p :     0.001922
      px      :    -0.000004
      py      :     0.000289
 18 C s       :     0.001027  s :     0.001027
      pz      :     0.052533  p :     0.052426
      px      :     0.000080
      py      :    -0.000186
      dz2     :    -0.000242  d :     0.017905
      dxz     :     0.007029
      dyz     :     0.010676
      dx2y2   :     0.000264
      dxy     :     0.000179
      f0      :     0.000032  f :     0.001357
      f+1     :    -0.000055
      f-1     :    -0.000060
      f+2     :     0.001000
      f-2     :     0.000411
      f+3     :     0.000019
      f-3     :     0.000009
 19 H s       :    -0.001607  s :    -0.001607
      pz      :     0.001453  p :     0.001634
      px      :     0.000148
      py      :     0.000033
 20 C s       :     0.001027  s :     0.001027
      pz      :     0.052532  p :     0.052425
      px      :     0.000080
      py      :    -0.000186
      dz2     :    -0.000242  d :     0.017906
      dxz     :     0.007029
      dyz     :     0.010676
      dx2y2   :     0.000263
      dxy     :     0.000179
      f0      :     0.000032  f :     0.001357
      f+1     :    -0.000055
      f-1     :    -0.000060
      f+2     :     0.001000
      f-2     :     0.000411
      f+3     :     0.000019
      f-3     :     0.000009
 21 H s       :    -0.001607  s :    -0.001607
      pz      :     0.001453  p :     0.001634
      px      :     0.000148
      py      :     0.000033
 22 C s       :     0.001838  s :     0.001838
      pz      :     0.073052  p :     0.074629
      px      :     0.000456
      py      :     0.001121
      dz2     :    -0.000373  d :     0.007169
      dxz     :     0.008220
      dyz     :    -0.000080
      dx2y2   :    -0.000563
      dxy     :    -0.000036
      f0      :    -0.000077  f :     0.000447
      f+1     :    -0.000081
      f-1     :    -0.000079
      f+2     :     0.000003
      f-2     :     0.000773
      f+3     :    -0.000056
      f-3     :    -0.000035
 23 H s       :    -0.002136  s :    -0.002136
      pz      :     0.001637  p :     0.001922
      px      :    -0.000004
      py      :     0.000289
 24 C s       :    -0.001102  s :    -0.001102
      pz      :     0.002623  p :    -0.002487
      px      :    -0.003625
      py      :    -0.001485
      dz2     :     0.000108  d :     0.042512
      dxz     :     0.037333
      dyz     :     0.003298
      dx2y2   :     0.000810
      dxy     :     0.000963
      f0      :     0.000350  f :     0.003960
      f+1     :    -0.000016
      f-1     :    -0.000003
      f+2     :     0.000486
      f-2     :     0.002981
      f+3     :     0.000034
      f-3     :     0.000129
 25 C s       :     0.008382  s :     0.008382
      pz      :     0.289327  p :     0.299875
      px      :     0.005063
      py      :     0.005485
      dz2     :    -0.001373  d :    -0.006657
      dxz     :    -0.003072
      dyz     :    -0.000234
      dx2y2   :    -0.001334
      dxy     :    -0.000643
      f0      :    -0.000277  f :    -0.001462
      f+1     :    -0.000290
      f-1     :    -0.000303
      f+2     :     0.000009
      f-2     :    -0.000280
      f+3     :    -0.000080
      f-3     :    -0.000241
 26 H s       :    -0.007686  s :    -0.007686
      pz      :     0.006580  p :     0.007782
      px      :     0.000070
      py      :     0.001131
 27 C s       :    -0.003219  s :    -0.003219
      pz      :    -0.059422  p :    -0.067887
      px      :    -0.006209
      py      :    -0.002256
      dz2     :     0.000467  d :     0.065244
      dxz     :     0.066666
      dyz     :    -0.004812
      dx2y2   :     0.001218
      dxy     :     0.001705
      f0      :     0.000720  f :     0.006413
      f+1     :     0.000037
      f-1     :     0.000071
      f+2     :    -0.000212
      f-2     :     0.005479
      f+3     :     0.000091
      f-3     :     0.000228
 28 C s       :     0.008381  s :     0.008381
      pz      :     0.289326  p :     0.299874
      px      :     0.005063
      py      :     0.005484
      dz2     :    -0.001374  d :    -0.006657
      dxz     :    -0.003072
      dyz     :    -0.000234
      dx2y2   :    -0.001334
      dxy     :    -0.000643
      f0      :    -0.000277  f :    -0.001462
      f+1     :    -0.000290
      f-1     :    -0.000303
      f+2     :     0.000009
      f-2     :    -0.000280
      f+3     :    -0.000080
      f-3     :    -0.000241
 29 H s       :    -0.007686  s :    -0.007686
      pz      :     0.006580  p :     0.007782
      px      :     0.000070
      py      :     0.001131


                      *****************************
                      * MAYER POPULATION ANALYSIS *
                      *****************************

  NA   - Mulliken gross atomic population
  ZA   - Total nuclear charge
  QA   - Mulliken gross atomic charge
  VA   - Mayer's total valence
  BVA  - Mayer's bonded valence
  FA   - Mayer's free valence

  ATOM       NA         ZA         QA         VA         BVA        FA
  0 C      5.8198     6.0000     0.1802     3.7751     3.7656     0.0096
  1 C      6.2661     6.0000    -0.2661     3.8659     3.7261     0.1397
  2 H      0.9077     1.0000     0.0923     0.9870     0.9866     0.0004
  3 C      6.2657     6.0000    -0.2657     3.8666     3.7269     0.1397
  4 H      0.9076     1.0000     0.0924     0.9870     0.9866     0.0004
  5 C      5.8353     6.0000     0.1647     3.7514     3.7506     0.0008
  6 C      6.1831     6.0000    -0.1831     3.9078     3.8992     0.0086
  7 H      0.9005     1.0000     0.0995     0.9774     0.9774     0.0000
  8 C      6.1039     6.0000    -0.1039     3.9082     3.9038     0.0043
  9 H      0.8937     1.0000     0.1063     0.9693     0.9693     0.0000
 10 C      6.1042     6.0000    -0.1042     3.9078     3.9035     0.0043
 11 H      0.8937     1.0000     0.1063     0.9693     0.9693     0.0000
 12 C      6.1834     6.0000    -0.1834     3.9076     3.8990     0.0086
 13 H      0.9006     1.0000     0.0994     0.9774     0.9774     0.0000
 14 C      5.8340     6.0000     0.1660     3.7515     3.7507     0.0008
 15 C      5.8349     6.0000     0.1651     3.7508     3.7500     0.0008
 16 C      6.1830     6.0000    -0.1830     3.9071     3.8985     0.0086
 17 H      0.9005     1.0000     0.0995     0.9774     0.9774     0.0000
 18 C      6.1042     6.0000    -0.1042     3.9079     3.9036     0.0043
 19 H      0.8938     1.0000     0.1062     0.9693     0.9693     0.0000
 20 C      6.1040     6.0000    -0.1040     3.9075     3.9031     0.0043
 21 H      0.8937     1.0000     0.1063     0.9693     0.9693     0.0000
 22 C      6.1834     6.0000    -0.1834     3.9076     3.8990     0.0086
 23 H      0.9005     1.0000     0.0995     0.9774     0.9774     0.0000
 24 C      5.8341     6.0000     0.1659     3.7514     3.7506     0.0008
 25 C      6.2662     6.0000    -0.2662     3.8666     3.7269     0.1397
 26 H      0.9076     1.0000     0.0924     0.9870     0.9866     0.0004
 27 C      5.8206     6.0000     0.1794     3.7756     3.7660     0.0096
 28 C      6.2664     6.0000    -0.2664     3.8666     3.7269     0.1397
 29 H      0.9076     1.0000     0.0924     0.9871     0.9867     0.0004

  Mayer bond orders larger than 0.100000
B(  0-C ,  1-C ) :   1.3149 B(  0-C ,  3-C ) :   1.3155 B(  0-C , 27-C ) :   1.0790 
B(  1-C ,  2-H ) :   0.9834 B(  1-C , 15-C ) :   1.1481 B(  3-C ,  4-H ) :   0.9832 
B(  3-C ,  5-C ) :   1.1485 B(  5-C ,  6-C ) :   1.3087 B(  5-C , 14-C ) :   1.2142 
B(  6-C ,  7-H ) :   0.9808 B(  6-C ,  8-C ) :   1.3969 B(  8-C ,  9-H ) :   0.9736 
B(  8-C , 10-C ) :   1.3844 B( 10-C , 11-H ) :   0.9737 B( 10-C , 12-C ) :   1.3967 
B( 12-C , 13-H ) :   0.9808 B( 12-C , 14-C ) :   1.3081 B( 14-C , 28-C ) :   1.1490 
B( 15-C , 16-C ) :   1.3085 B( 15-C , 24-C ) :   1.2143 B( 16-C , 17-H ) :   0.9808 
B( 16-C , 18-C ) :   1.3966 B( 18-C , 19-H ) :   0.9738 B( 18-C , 20-C ) :   1.3842 
B( 20-C , 21-H ) :   0.9737 B( 20-C , 22-C ) :   1.3967 B( 22-C , 23-H ) :   0.9807 
B( 22-C , 24-C ) :   1.3083 B( 24-C , 25-C ) :   1.1487 B( 25-C , 26-H ) :   0.9830 
B( 25-C , 27-C ) :   1.3151 B( 27-C , 28-C ) :   1.3150 B( 28-C , 29-H ) :   0.9831 


-------
TIMINGS
-------

Total SCF time: 0 days 0 hours 19 min 23 sec 

Total time                  ....    1163.581 sec
Sum of individual times     ....    1161.521 sec  ( 99.8%)

Fock matrix formation       ....    1140.271 sec  ( 98.0%)
  Split-RI-J                ....      76.652 sec  (  6.7% of F)
  Chain of spheres X        ....     926.403 sec  ( 81.2% of F)
  XC integration            ....     136.176 sec  ( 11.9% of F)
    Basis function eval.    ....      26.142 sec  ( 19.2% of XC)
    Density eval.           ....      55.029 sec  ( 40.4% of XC)
    XC-Functional eval.     ....       4.168 sec  (  3.1% of XC)
    XC-Potential eval.      ....      48.888 sec  ( 35.9% of XC)
Diagonalization             ....       4.498 sec  (  0.4%)
Density matrix formation    ....       0.299 sec  (  0.0%)
Population analysis         ....       0.176 sec  (  0.0%)
Initial guess               ....       4.378 sec  (  0.4%)
Orbital Transformation      ....       0.000 sec  (  0.0%)
Orbital Orthonormalization  ....       0.000 sec  (  0.0%)
DIIS solution               ....       1.746 sec  (  0.2%)
Grid generation             ....      10.154 sec  (  0.9%)

Maximum memory used throughout the entire SCF-calculation: 446.4 MB

-------------------------   --------------------
FINAL SINGLE POINT ENERGY      -692.923244440772
-------------------------   --------------------

   --->>> g-tensor requested, so NeedSOC=true

                            ***************************************
                            *     ORCA property calculations      *
                            ***************************************

                                    ---------------------
                                    Active property flags
                                    ---------------------
   (+) Dipole Moment
   (+) g-tensor
   (+) Spin-Orbit Integrals are needed


------------------------------------------------------------------------------
                       ORCA ELECTRIC PROPERTIES CALCULATION
------------------------------------------------------------------------------

Dipole Moment Calculation                       ... on
Quadrupole Moment Calculation                   ... off
Polarizability Calculation                      ... off
GBWName                                         ... tetracene_opt_orca_dft.gbw
Electron density                                ... tetracene_opt_orca_dft.scfp
The origin for moment calculation is the CENTER OF MASS  = (-0.000000,  0.000000  0.000031)

-------------
DIPOLE MOMENT
-------------
                                X             Y             Z
Electronic contribution:     -0.00000       0.00005       0.00330
Nuclear contribution   :      0.00000      -0.00006      -0.00371
                        -----------------------------------------
Total Dipole Moment    :     -0.00000      -0.00001      -0.00041
                        -----------------------------------------
Magnitude (a.u.)       :      0.00041
Magnitude (Debye)      :      0.00104



--------------------
Rotational spectrum 
--------------------
 
Rotational constants in cm-1:     0.055676     0.007112     0.006307 
Rotational constants in MHz :  1669.133250   213.226834   189.073772 

 Dipole components along the rotational axes: 
x,y,z [a.u.] :     0.000000    -0.000006    -0.000408 
x,y,z [Debye]:     0.000000    -0.000016    -0.001038 

 
------------------------------------------------------------------------------
                         ORCA SPIN-ORBIT COUPLING CALCULATION
------------------------------------------------------------------------------

GBW file                                    ... tetracene_opt_orca_dft.gbw
Input density                               ... tetracene_opt_orca_dft.scfp
Output integrals                            ... tetracene_opt_orca_dft
Operator type                               ... Mean-field/Effective potential
   One-Electron Terms                       ... 1
   Coulomb Contribution                     ... 2
   Exchange Contribution                    ... 3
   Correlation Contribution                 ... 0
   Maximum number of centers                ... 4
Setting up the integration grid             ... done
Evaluating density on the grid              ... (NumEl=  120.000082) done
Evaluating Coulomb term semi-analytically   ... done
SHARK 2-electron DoJ,X=0,1 MaxCenter=1      ... done ( 12.4 sec)
Evaluating the spin-orbit operator          ... done

Maximum memory used throughout the entire SOC-calculation: 581.7 MB
Total time for SOC: 414.809
------------------------------------------------------------------------------
                                ORCA EPR/NMR CALCULATION
------------------------------------------------------------------------------

GBWName                      ... tetracene_opt_orca_dft.gbw
Electron density             ... tetracene_opt_orca_dft.scfp
Spin density                 ... tetracene_opt_orca_dft.scfr
Spin-orbit integrals         ... tetracene_opt_orca_dft
Origin for angular momentum  ... Center of electronic charge
Coordinates of the origin    ...    0.00000000    0.00000005    0.00000340 (bohrs)
Details of the CP(SCF) procedure:
       Solver   = POPLE   
       MaxIter  =   300   
       Tolerance=    1.000e-08
       COSX Grid=     1   
       Op-0     =   0- 60 =>  61-629
       Op-1     =   0- 58 =>  59-629
Multiplicity                 ... 3
g-tensor                     ... 1
NMR chemical shifts          ... 0
NMR spin-spin couplings      ... 0
NMR spectrum                 ... 0
Forming RHS of the CP-SCF equations         ... 
Calc. angular momentum integrals (SHARK)    ... done

------------------------------------------------------------------------------
                           ORCA CP-SCF CALCULATION
------------------------------------------------------------------------------

Input orbitals are from        ... tetracene_opt_orca_dft.gbw
Input Perturbation             ... tetracene_opt_orca_dft.pin.tmp
Wavefunction output            ... tetracene_opt_orca_dft.pout.tmp
Perturbation mode              ... Imaginary perturbation
Solver                         ... POPLE
Max. number of iterations      ... 300
Convergence tolerance          ... 1.000e-08
Integral handling              ... Direct
DFT GridXC                     ... 1
COSX GridX                     ... 1
COSX IntAccX                   ... 3.067
COSX Algorithm                 ... Auto
Number of perturbations        ... 3
Number of operators            ... 2
Orbital ranges used for CP-SCF:
 Operator 0:  Orbitals   0... 60  to  61...629
 Operator 1:  Orbitals   0... 58  to  59...629
Variables per perturbation     ... 68398
DFT calculation                         ... on
XC functional terms                     ... off
Hybrid DFT                              ... on
   Exchange mixing (SCF)                ...  0.200
   Exchange mixing (CP-SCF)             ...  0.200
   GGA exch. scaling(SCF)               ...  0.720
   GGA exch. scaling (CP-SCF)           ...  0.720
   GGA corr. scaling (SCF)              ...  0.810
   GGA corr. scaling (CP-SCF)           ...  0.810

CP-SCF GRID
-----------

General Integration Accuracy     IntAcc      ... 3.467
Radial Grid Type                 RadialGrid  ... OptM3 with GC (2021)
Angular Grid (max. ang.)         AngularGrid ... 1 (Lebedev-50)
Angular grid pruning method      GridPruning ... 4 (adaptive)
Weight generation scheme         WeightScheme... Becke
Basis function cutoff            BFCut       ... 1.0000e-10
Integration weight cutoff        WCut        ... 1.0000e-14
Angular grids for H and He will be reduced by one unit
Partially contracted basis set               ... off
Rotationally invariant grid construction     ... off

Total number of grid points                  ...    21536
Total number of batches                      ...      344
Average number of points per batch           ...       62
Average number of grid points per atom       ...      718

CP-SCF GRIDX
------------

General Integration Accuracy     IntAcc      ... 3.067
Radial Grid Type                 RadialGrid  ... OptM3 with GC (2021)
Angular Grid (max. ang.)         AngularGrid ... 1 (Lebedev-50)
Angular grid pruning method      GridPruning ... 4 (adaptive)
Weight generation scheme         WeightScheme... Becke
Basis function cutoff            BFCut       ... 1.0000e-10
Integration weight cutoff        WCut        ... 1.0000e-14
Angular grids for H and He will be reduced by one unit
Partially contracted basis set               ... on
Rotationally invariant grid construction     ... off

Total number of grid points                  ...     9839
Total number of batches                      ...      174
Average number of points per batch           ...       56
Average number of grid points per atom       ...      328

Memory available               ... 347.8 MB
Memory needed per perturbation ...  16.8 MB
Perturbations treated per batch... 3
Number of batches              ... 1
     CP-SCF ITERATION   0:   4.7604e+00 (  26.8 sec   0/  3 done)
     CP-SCF ITERATION   1:   1.9369e-01 (  25.6 sec   0/  3 done)
     CP-SCF ITERATION   2:   1.4190e-02 (  25.8 sec   0/  3 done)
     CP-SCF ITERATION   3:   1.0242e-03 (  25.9 sec   0/  3 done)
     CP-SCF ITERATION   4:   9.2961e-05 (  26.0 sec   0/  3 done)
     CP-SCF ITERATION   5:   9.3239e-06 (  26.1 sec   0/  3 done)
     CP-SCF ITERATION   6:   6.5683e-07 (  26.1 sec   0/  3 done)
     CP-SCF ITERATION   7:   4.6917e-08 (  26.6 sec   2/  3 done)
     CP-SCF ITERATION   8:   3.0533e-09 (  17.9 sec   3/  3 done)
                    *** THE CP-SCF HAS CONVERGED ***

Forming final perturbed densities           ... done
Transforming perturbed density to AO basis  ... done

Magnetic field perturbation calculated in 228.202 sec
Diamagnetic terms                           (SHARK) ...ORIGIN=  0.000000  0.000000  0.000003
done
terms done

-------------------
ELECTRONIC G-MATRIX
-------------------

 The g-matrix: 
              2.0030087    0.0000000    0.0000000
              0.0000000    2.0029078    0.0000000
              0.0000001    0.0000001    2.0022940

 gel          2.0023193    2.0023193    2.0023193
 gRMC        -0.0001471   -0.0001471   -0.0001471
 gDSO(tot)    0.0001407    0.0001490    0.0001423
 gPSO(tot)   -0.0000188    0.0005866    0.0006942
             ----------   ----------   ----------
 g(tot)       2.0022940    2.0029078    2.0030087 iso=  2.0027369
 Delta-g     -0.0000252    0.0005885    0.0006894 iso=  0.0004176
 Orientation: 
  X          -0.0000761   -0.0002598   -1.0000000
  Y          -0.0001108    1.0000000   -0.0002598
  Z           1.0000000    0.0001108   -0.0000761

Notes:  (1) The g-matrix conforms to the "BgS" spin Hamiltonian convention. 
        (2) The principal values are square roots of the eigenvalues of g*gT.
        (3) Orientations are eigenvectors of g*gT written as column vectors.
        (4) Individual contributions are projections of the full matrices onto the eigenvectors of g*gT.
        (5) Tensor is right-handed.


Maximum memory used throughout the entire EPRNMR-calculation: 750.2 MB

Timings for individual modules:

Sum of individual times         ...     1810.200 sec (=  30.170 min)
GTO integral calculation        ...        2.459 sec (=   0.041 min)   0.1 %
Spin-Orbit-Coupling Matrices    ...      414.803 sec (=   6.913 min)  22.9 %
SCF iterations                  ...     1163.662 sec (=  19.394 min)  64.3 %
EPR/NMR calculation             ...      229.276 sec (=   3.821 min)  12.7 %
                             ****ORCA TERMINATED NORMALLY****
TOTAL RUN TIME: 0 days 0 hours 30 minutes 11 seconds 292 msec
