                  Welcome to Q-Chem
     A Quantum Leap Into The Future Of Chemistry


 Q-Chem 6.0 (devel), Q-Chem, Inc., Pleasanton, CA (2022)

 E. Epifanovsky,  A. T. B. Gilbert,  Xintian Feng,  Joonho Lee,  Yuezhi Mao,  
 N. Mardirossian,  P. Pokhilko,  A. White,  M. Wormit,  M. P. Coons,  
 A. L. Dempwolff,  Zhengting Gan,  D. Hait,  P. R. Horn,  L. D. Jacobson,  
 I. Kaliman,  J. Kussmann,  A. W. Lange,  Ka Un Lao,  D. S. Levine,  Jie Liu,  
 S. C. McKenzie,  A. F. Morrison,  K. Nanda,  F. Plasser,  D. R. Rehn,  
 M. L. Vidal,  Zhi-Qiang You,  Ying Zhu,  B. Alam,  B. Albrecht,  
 A. Aldossary,  E. Alguire,  J. H. Andersen,  V. Athavale,  D. Barton,  
 K. Begam,  A. Behn,  N. Bellonzi,  Y. A. Bernard,  E. J. Berquist,  
 H. Burton,  A. Carreras,  K. Carter-Fenk,  Romit Chakraborty,  
 Chandrima Chakravarty,  Junhan Chen,  A. D. Chien,  K. D. Closser,  
 V. Cofer-Shabica,  L. Cunha,  S. Dasgupta,  Jia Deng,  M. de Wergifosse,  
 M. Diedenhofen,  Hainam Do,  S. Ehlert,  Po-Tung Fang,  S. Fatehi,  
 Qingguo Feng,  T. Friedhoff,  B. Ganoe,  J. Gayvert,  Qinghui Ge,  
 G. Gidofalvi,  M. Goldey,  J. Gomes,  C. Gonzalez-Espinoza,  S. Gulania,  
 A. Gunina,  J. A. Gyamfi,  M. W. D. Hanson-Heine,  P. H. P. Harbach,  
 A. W. Hauser,  M. F. Herbst,  M. Hernandez Vera,  M. Hodecker,  
 Z. C. Holden,  S. Houck,  Xunkun Huang,  Kerwin Hui,  B. C. Huynh,  
 K. Ikeda,  M. Ivanov,  Hyunjun Ji,  Zuxin Jin,  Hanjie Jiang,  B. Kaduk,  
 S. Kaehler,  R. Kang,  K. Khistyaev,  Jaehoon Kim,  Yongbin Kim,  
 P. Klunzinger,  Z. Koczor-Benda,  Joong Hoon Koh,  D. Kosenkov,  
 Saikiran Kotaru,  L. Koulias,  T. Kowalczyk,  C. M. Krauter,  K. Kue,  
 A. Kunitsa,  T. Kus,  A. Landau,  K. V. Lawler,  D. Lefrancois,  S. Lehtola,  
 Rain Li,  Shaozhi Li,  Yi-Pei Li,  Jiashu Liang,  M. Liebenthal,  
 Hung-Hsuan Lin,  You-Sheng Lin,  Fenglai Liu,  Kuan-Yu Liu,  
 M. Loipersberger,  A. Luenser,  C. Malbon,  A. Manjanath,  P. Manohar,  
 E. Mansoor,  S. F. Manzer,  Shan-Ping Mao,  A. V. Marenich,  T. Markovich,  
 S. Mason,  F. Matz,  S. A. Maurer,  P. F. McLaughlin,  M. F. S. J. Menger,  
 J.-M. Mewes,  S. A. Mewes,  P. Morgante,  Mohammad Mostafanejad,  
 J. W. Mullinax,  K. J. Oosterbaan,  G. Paran,  V. Parravicini,  
 Alexander C. Paul,  Suranjan K. Paul,  F. Pavosevic,  Zheng Pei,  S. Prager,  
 E. I. Proynov,  E. Ramos,  B. Rana,  A. E. Rask,  A. Rettig,  R. M. Richard,  
 F. Rob,  E. Rossomme,  T. Scheele,  M. Scheurer,  M. Schneider,  
 P. E. Schneider,  N. Sergueev,  S. M. Sharada,  Hengyuan Shen,  
 W. Skomorowski,  D. W. Small,  C. J. Stein,  Yingli Su,  Yu-Chuan Su,  
 E. J. Sundstrom,  Zhen Tao,  J. Thirman,  Hung-Yi Tsai,  T. Tsuchimochi,  
 N. M. Tubman,  C. Utku,  S. P. Veccham,  O. Vydrov,  J. Wenzel,  
 Jonathan Wong,  J. Witte,  A. Yamada,  Chou-Hsun Yang,  Kun Yao,  
 S. Yeganeh,  S. R. Yost,  A. Zech,  F. Zeller,  Igor Ying Zhang,  
 Xing Zhang,  Yu Zhang,  D. Zuev,  A. Aspuru-Guzik,  A. T. Bell,  
 N. A. Besley,  K. B. Bravaya,  B. R. Brooks,  D. Casanova,  Jeng-Da Chai,  
 Hsing-Ta Chen,  S. Coriani,  C. J. Cramer,  A. E. DePrince, III,  
 R. A. DiStasio Jr.,  A. Dreuw,  B. D. Dunietz,  T. R. Furlani,  
 W. A. Goddard III,  S. Grimme,  S. Hammes-Schiffer,  T. Head-Gordon,  
 W. J. Hehre,  Chao-Ping Hsu,  T.-C. Jagau,  Yousung Jung,  A. Klamt,  
 Jing Kong,  D. S. Lambrecht,  Xiangyuan Li,  WanZhen Liang,  N. J. Mayhall,  
 C. W. McCurdy,  J. B. Neaton,  T. Neudecker,  C. Ochsenfeld,  
 J. A. Parkhill,  R. Peverati,  V. A. Rassolov,  Haisheng Ren,  Yihan Shao,  
 L. V. Slipchenko,  R. P. Steele,  J. E. Subotnik,  A. J. W. Thom,  
 A. Tkatchenko,  D. G. Truhlar,  T. Van Voorhis,  Fan Wang,  
 T. A. Wesolowski,  K. B. Whaley,  H. L. Woodcock III,  P. M. Zimmerman,  
 S. Faraji,  P. M. W. Gill,  M. Head-Gordon,  J. M. Herbert,  A. I. Krylov

 Contributors to earlier versions of Q-Chem not listed above: 
 R. D. Adamson,  B. Austin,  R. Baer,  J. Baker,  G. J. O. Beran,  
 K. Brandhorst,  S. T. Brown,  E. F. C. Byrd,  Arup K. Chakraborty,  
 G. K. L. Chan,  Chun-Min Chang,  Yunqing Chen,  C.-L. Cheng,  
 Siu Hung Chien,  D. M. Chipman,  D. L. Crittenden,  H. Dachsel,  
 R. J. Doerksen,  A. D. Dutoi,  R. G. Edgar,  J. Fosso-Tande,  
 L. Fusti-Molnar,  D. Ghosh,  A. Ghysels,  A. Golubeva-Zadorozhnaya,  
 J. Gonthier,  M. S. Gordon,  S. R. Gwaltney,  G. Hawkins,  J. E. Herr,  
 A. Heyden,  S. Hirata,  E. G. Hohenstein,  G. Kedziora,  F. J. Keil,  
 C. Kelley,  Jihan Kim,  R. A. King,  R. Z. Khaliullin,  P. P. Korambath,  
 W. Kurlancheek,  A. Laurent,  A. M. Lee,  M. S. Lee,  S. V. Levchenko,  
 Ching Yeh Lin,  D. Liotard,  E. Livshits,  R. C. Lochan,  I. Lotan,  
 L. A. Martinez-Martinez,  P. E. Maslen,  N. Nair,  D. P. O'Neill,  
 D. Neuhauser,  E. Neuscamman,  C. M. Oana,  R. Olivares-Amaya,  R. Olson,  
 T. M. Perrine,  B. Peters,  P. A. Pieniazek,  A. Prociuk,  Y. M. Rhee,  
 J. Ritchie,  M. A. Rohrdanz,  E. Rosta,  N. J. Russ,  H. F. Schaefer III,  
 M. W. Schmidt,  N. E. Schultz,  S. Sharma,  N. Shenvi,  C. D. Sherrill,  
 A. C. Simmonett,  A. Sodt,  T. Stein,  D. Stuck,  K. S. Thanthiriwatte,  
 V. Vanovschi,  L. Vogt,  Tao Wang,  A. Warshel,  M. A. Watson,  
 C. F. Williams,  Q. Wu,  X. Xu,  Jun Yang,  W. Zhang,  Yan Zhao

   Please cite Q-Chem as follows:
  "Software for the frontiers of quantum chemistry:
   An overview of developments in the Q-Chem 5 package"
   J. Chem. Phys. 155, 084801 (2021)
   https://doi.org/10.1063/5.0055522 (open access)

 Q-Chem 6.0.1 for Intel X86 EM64T Linux

 Parts of Q-Chem use Armadillo 9.900.5 (Nocturnal Misbehaviour).
 http://arma.sourceforge.net/

 Q-Chem begins on Tue Apr 16 09:39:00 2024  

 Host: atlas-329
0

     Scratch files written to ./qchem287444//
 Processing $rem in /scratch/abel/SOFTWARE/qchem/config/preferences:
 Processing $rem in /dipc/acebg/.qchemrc:

 Checking the input file for inconsistencies... 	...done.

--------------------------------------------------------------
User input:
--------------------------------------------------------------
$comment
 RAS-SF CALCULATION
$end

$molecule
READ C44H20B4_singlet.molecule
$end

$rem
!**CALCULATION TYPE***     
JOBTYPE            sp    
EXCHANGE           HF
CORRELATION        RASCI    !RASCI=Casanova; RASCI2=Zimmerman
BASIS              6-31G*
BASIS2             STO-3G

!***SCF REFERENCE***
!SKIP_SCFMAN        FALSE
UNRESTRICTED       FALSE
!SCF_GUESS          core
!SCF_GUESS_MIX      FALSE
!SCF_GUESS_ALWAYS   FALSE
MAX_SCF_CYCLES      999
SCF_CONVERGENCE    10
SCF_ALGORITHM      DIIS_GDM !DIIS,DM,DIIS_DM,GDM,DIIS_GDM,GD

!SYMMETRY           TRUE   !use of symmetry for calculating integrals
!SYM_IGNORE         FALSE  !turn off using symmetry
!SYM_TOL            5      !tolerance for determining point group
!USE_ABELIAN_SUBGROUP      !define to use abelian group

!THRESH             14
!SCF_FINAL_PRINT     1 !0,1,2,3

!****RAS-SF****
RAS_ROOTS          20       !number of RAS-CI roots to be computed
SET_ITER           150     !number of iterations in RASCI
RAS_ELEC 4
RAS_ELEC_ALPHA 3
RAS_ELEC_BETA 1

RAS_ACT 4
RAS_ACT_ORB [151, 152, 153, 154]
RAS_OCC 150
N_FROZEN_CORE      FC     !Number of frozen core orbitals
N_FROZEN_VIRTUAL   0      !Number of frozen virtual orbitals

!RAS_DO_HOLE        TRUE   !presence of hole excitations in RAS-CI wave function
!RAS_DO_PART        TRUE   !presence of particle excitations
!RAS_AMPL_PRINT     10     !threshold (×10 2 ) for the CI amplitudes

!RAS_GUESS_CS       0      !number of closed shell guess conﬁgurations
!RAS_SPIN_MULT      0      !spin multiplicity. Only for Ms = 0 
!RAS_SRDFT          FALSE  !short-range density functional RAS-CI
!RAS_NFRAG          0     !fragments of excitation analysis in RASCI

RAS_PRINT          2      !level of information
!RAS_NATORB         TRUE   !computation of the natural orbital occupancies
!RAS_NATORB_STATE  0      !Saves NO of i RAS computed state in .fchk ﬁle
!RAS_FOD            TRUE

!****RAS-SOC****
CALC_SOC           TRUE   !calculate SOC for EOM-CC, RAS-CI, ADC, TDDFT/TDA and TDDFT
!RAS_SOC_2E        TRUE   !two-electron mean-ﬁeld contribution, default=true
RAS_SOC_SYM_DENS   TRUE   !averaging of α and β densities

!****MEMORY****
MEM_TOTAL          60000 !Default 2000 MB
MEM_STATIC         20000  !Default 64 MB

!**Molecular Properties and Analysis **                                                                                          
!POP_MULLIKEN       TRUE   !Run Mulliken population analysis
!LOWDIN_POPULATION  TRUE   !Run Löwdin population analysis
GUI                0       !Checkpoints generation
STATE_ANALYSIS     TRUE

!**Wave function analysis of RAS-CI states: MOLDEN**
!PLOTS = 0     ! Note: This can be omitted, default is 0
!NTO_PAIRS = 2 ! Note: This can be omitted, default is 2
!GUI 0
!MOLDEN_FORMAT      TRUE
!PRINT_ORBITALS     15

!**Wave function analysis of RAS-CI state: CUBE**
!NTO_PAIRS = 2 ! Note: This can be omitted, default is 2
!PLOTS = 1
!GUI 0

!**SR-DFT**
!RAS_SRDFT           TRUE !Perform short-range density functional RAS-CI
!RAS_SRDFT_EXC       0 !EX functional. 0=HF. 
!RAS_SRDFT_ONLY_COR  TRUE !No use of EXC functional
!RAS_SRDFT_COR       srPBE !short-range correlation functional
!ras_srdft_0         TRUE !true: no iteration (one-shot); false: iteration
!RAS_OMEGA           400 !Coulomb range-separation parameter. def=400
!RAS_SRDFT_DAMP     0.5 !dumping factor. def=0.5
$end

!$plots
!   grid_points 100 100 100
!   grid_range  (-10,10) (-10,10) (-10,10)
!$end

--------------------------------------------------------------
 ----------------------------------------------------------------
             Standard Nuclear Orientation (Angstroms)
    I     Atom           X                Y                Z
 ----------------------------------------------------------------
    1      H       7.7694330000    -3.4059100000     0.0000000000
    2      H       7.7694330000     3.4059100000    -0.0000000000
    3      H       5.5649970000    -4.7332280000     0.0000000000
    4      H       5.5649970000     4.7332280000    -0.0000000000
    5      H       3.1197830000    -4.7335370000     0.0000000000
    6      H       3.1197830000     4.7335370000    -0.0000000000
    7      H       0.9610350000    -3.4228770000     0.0000000000
    8      H       0.9610350000     3.4228770000    -0.0000000000
    9      H      -0.9610350000    -3.4228770000     0.0000000000
   10      H      -0.9610350000     3.4228770000    -0.0000000000
   11      H      -3.1197830000    -4.7335370000     0.0000000000
   12      H      -3.1197830000     4.7335370000    -0.0000000000
   13      H      -5.5649970000    -4.7332280000     0.0000000000
   14      H      -5.5649970000     4.7332280000    -0.0000000000
   15      H      -7.7694330000    -3.4059100000     0.0000000000
   16      H      -7.7694330000     3.4059100000    -0.0000000000
   17      B       5.7857080000     0.0000000000    -0.0000000000
   18      B       2.9012360000     0.0000000000    -0.0000000000
   19      B      -2.9012360000     0.0000000000     0.0000000000
   20      B      -5.7857080000     0.0000000000     0.0000000000
   21      H       9.0197790000    -1.3499700000    -0.0000000000
   22      H       9.0197790000     1.3499700000    -0.0000000000
   23      C       7.9316140000    -1.2717880000     0.0000000000
   24      C       7.9316140000     1.2717880000    -0.0000000000
   25      C       7.2048590000    -2.4755860000     0.0000000000
   26      C       7.3089370000     0.0000000000    -0.0000000000
   27      C       7.2048590000     2.4755860000    -0.0000000000
   28      C       5.7823870000    -2.5598510000     0.0000000000
   29      C       5.7823870000     2.5598510000    -0.0000000000
   30      C       5.0315450000    -3.7854410000     0.0000000000
   31      C       5.0411390000    -1.3437920000     0.0000000000
   32      C       5.0411390000     1.3437920000    -0.0000000000
   33      C       5.0315450000     3.7854410000    -0.0000000000
   34      C       3.6543110000    -3.7862680000     0.0000000000
   35      C       3.6514600000    -1.3408320000     0.0000000000
   36      C       3.6514600000     1.3408320000    -0.0000000000
   37      C       3.6543110000     3.7862680000    -0.0000000000
   38      C       2.9038450000    -2.5571460000     0.0000000000
   39      C       2.9038450000     2.5571460000    -0.0000000000
   40      C       1.4976630000    -2.4794430000     0.0000000000
   41      C       1.3925120000     0.0000000000    -0.0000000000
   42      C       1.4976630000     2.4794430000    -0.0000000000
   43      C       0.7267440000    -1.2656780000     0.0000000000
   44      C       0.7267440000     1.2656780000    -0.0000000000
   45      C      -0.7267440000    -1.2656780000     0.0000000000
   46      C      -0.7267440000     1.2656780000    -0.0000000000
   47      C      -1.4976630000    -2.4794430000     0.0000000000
   48      C      -1.3925120000    -0.0000000000     0.0000000000
   49      C      -1.4976630000     2.4794430000    -0.0000000000
   50      C      -2.9038450000    -2.5571460000     0.0000000000
   51      C      -2.9038450000     2.5571460000    -0.0000000000
   52      C      -3.6543110000    -3.7862680000     0.0000000000
   53      C      -3.6514600000    -1.3408320000     0.0000000000
   54      C      -3.6514600000     1.3408320000    -0.0000000000
   55      C      -3.6543110000     3.7862680000    -0.0000000000
   56      C      -5.0315450000    -3.7854410000     0.0000000000
   57      C      -5.0411390000    -1.3437920000     0.0000000000
   58      C      -5.0411390000     1.3437920000    -0.0000000000
   59      C      -5.0315450000     3.7854410000    -0.0000000000
   60      C      -5.7823870000    -2.5598510000     0.0000000000
   61      C      -5.7823870000     2.5598510000    -0.0000000000
   62      C      -7.2048590000    -2.4755860000     0.0000000000
   63      C      -7.3089370000    -0.0000000000     0.0000000000
   64      C      -7.2048590000     2.4755860000    -0.0000000000
   65      C      -7.9316140000    -1.2717880000     0.0000000000
   66      C      -7.9316140000     1.2717880000    -0.0000000000
   67      H      -9.0197790000    -1.3499700000     0.0000000000
   68      H      -9.0197790000     1.3499700000     0.0000000000
 ----------------------------------------------------------------
 Molecular Point Group                 D2h   NOp =  8
 Largest Abelian Subgroup              D2h   NOp =  8
 Nuclear Repulsion Energy =        4913.04836819 hartrees
 There are      152 alpha and      152 beta electrons
 Requested basis set is 6-31G(d)
 There are 232 shells and 760 basis functions

 Q-Chem warning in module libmdc/get_mega.C, line 167:

 Allowed MEM_STATIC has been capped at MEM_STATIC=8191.
 Reduce the value of MEM_STATIC to silence this warning.


 Total QAlloc Memory Limit  60000 MB
 Mega-Array Size      8007 MB
 MEM_STATIC part      8191 MB

 A cutoff of  1.0D-14 yielded  12507 shell pairs
 There are    150234 function pairs
 Smallest overlap matrix eigenvalue = 2.31E-04

 Scale SEOQF with 1.000000e-02/1.000000e-01/1.000000e+00

 Standard Electronic Orientation quadrupole field applied
 Nucleus-field energy     =     0.0000001511 hartrees
 Requested basis set is STO-3G
 There are 116 shells and 260 basis functions
 A cutoff of  1.0D-14 yielded   3224 shell pairs
 There are     20786 function pairs
 Smallest overlap matrix eigenvalue = 1.71E-01
 Guess from superposition of atomic densities
 Warning:  Energy on first SCF cycle will be non-variational
 SAD guess density has 304.000001 electrons
 A restricted Hartree-Fock SCF calculation will be
 performed using Pulay DIIS + Geometric Direct Minimization
 SCF converges when RMS gradient is below 1.0E-04
 ---------------------------------------
  Cycle       Energy         DIIS Error
 ---------------------------------------
    1   -1759.7272781497      7.30E-02
    2   -1754.5014429194      5.19E-03 Done DIIS. Switching to GDM
    3   -1754.8563664083      6.63E-02 Normal BFGS step
    4   -1754.8885207477      6.31E-02 Normal BFGS step
    5   -1754.9146724626      1.25E-02 Normal BFGS step
    6   -1754.9159238950      8.97E-03 Normal BFGS step
    7   -1754.9165587991      3.32E-03 Normal BFGS step
    8   -1754.9167369067      8.69E-04 Normal BFGS step
    9   -1754.9167530061      4.88E-04 Normal BFGS step
   10   -1754.9167561569      2.51E-04 Normal BFGS step
   11   -1754.9167568441      1.34E-04 Normal BFGS step
   12   -1754.9167570548      3.64E-05 Convergence criterion met
 ---------------------------------------
 SCF time:  CPU 35.58 s  wall 36.53 s
 SCF   energy in the small basis set = -1754.91675705
 Total energy in the small basis set = -1754.91675705
 ----------------------------------------------------
  Cycle       Energy    
 ----------------------------------------------------
    1    -226.6406150452     -2.27E+02
 A restricted Hartree-Fock SCF calculation will be
 performed using Pulay DIIS + Geometric Direct Minimization
 SCF converges when RMS gradient is below 1.0E-10
 ---------------------------------------
  Cycle       Energy        RMS Gradient
 ---------------------------------------
    1   -1775.7798399798      5.08E-03 Done DIIS. Switching to GDM
    2   -1776.1326731085      4.70E-01 Descent step
    3   -1776.5123892023      8.68E-02 Normal BFGS step
    4   -1776.5809190817      4.76E-02 Normal BFGS step
    5   -1776.5983271218      2.14E-02 Normal BFGS step
    6   -1776.6010006099      7.33E-03 Normal BFGS step
    7   -1776.6016924249      8.43E-03 Normal BFGS step
    8   -1776.6021782643      5.78E-03 Normal BFGS step
    9   -1776.6024917272      3.28E-03 Normal BFGS step
   10   -1776.6026764307      3.07E-03 Normal BFGS step
   11   -1776.6027698966      1.93E-03 Normal BFGS step
   12   -1776.6027994516      6.18E-04 Normal BFGS step
   13   -1776.6028054470      1.95E-04 Normal BFGS step
   14   -1776.6028064232      7.17E-05 Normal BFGS step
   15   -1776.6028065852      3.03E-05 Normal BFGS step
   16   -1776.6028066048      1.06E-05 Normal BFGS step
   17   -1776.6028066081      5.21E-06 Normal BFGS step
   18   -1776.6028066086      2.06E-06 Normal BFGS step
   19   -1776.6028066087      7.43E-07 Normal BFGS step
   20   -1776.6028066087      2.38E-07 Normal BFGS step
   21   -1776.6028066087      1.26E-07 Normal BFGS step
   22   -1776.6028066087      9.03E-08 Normal BFGS step
   GDM::WARNING energy changes are now smaller than effective accuracy.
   GDM::        calculation will continue, but THRESH should be increased
   GDM::        or SCF_CONVERGENCE decreased.
   GDM::        effective_thresh =   2.875985474076748E-009
   23   -1776.6028066087      2.98E-08 Normal BFGS step
   GDM::WARNING energy changes are now smaller than effective accuracy.
   GDM::        calculation will continue, but THRESH should be increased
   GDM::        or SCF_CONVERGENCE decreased.
   GDM::        effective_thresh =   2.875985474076748E-009
   24   -1776.6028066087      1.07E-08 Normal BFGS step
   GDM::WARNING energy changes are now smaller than effective accuracy.
   GDM::        calculation will continue, but THRESH should be increased
   GDM::        or SCF_CONVERGENCE decreased.
   GDM::        effective_thresh =   2.875985474076748E-009
   25   -1776.6028066087      5.41E-09 Normal BFGS step
   26   -1776.6028066087      1.52E-09 Normal BFGS step
   GDM::WARNING energy changes are now smaller than effective accuracy.
   GDM::        calculation will continue, but THRESH should be increased
   GDM::        or SCF_CONVERGENCE decreased.
   GDM::        effective_thresh =   2.875985474076748E-009
   27   -1776.6028066087      6.27E-10 Normal BFGS step
   GDM::WARNING energy changes are now smaller than effective accuracy.
   GDM::        calculation will continue, but THRESH should be increased
   GDM::        or SCF_CONVERGENCE decreased.
   GDM::        effective_thresh =   2.875985474076748E-009
   28   -1776.6028066087      3.99E-10 Normal BFGS step
   29   -1776.6028066087      2.18E-10 Normal BFGS step
   GDM::WARNING energy changes are now smaller than effective accuracy.
   GDM::        calculation will continue, but THRESH should be increased
   GDM::        or SCF_CONVERGENCE decreased.
   GDM::        effective_thresh =   2.875985474076748E-009
   30   -1776.6028066087      2.04E-10 Normal BFGS step
   GDM::WARNING dE/dT very small =   2.229476915115553E-012
        Return without modification 
   31   -1776.6028066087      8.40E-11 Convergence criterion met
 ---------------------------------------
 SCF time:  CPU 1981.16 s  wall 2003.88 s
 SCF   energy in the final basis set = -1776.60280661
 Total energy in the final basis set = -1776.60280661
  
     ##========================================##
     ||                                        ||
     ||              R A S M A N 2             ||
     ||________________________________________||
     ||                                        ||
     ||  Author:                               ||
     ||                                        ||
     ||        David Casanova (2010)           ||
     ||                                        ||
     ##========================================##
  
Setting single-point xc-functionals (if necessary)

  ***************************************************
  *  RAS-CI Dimensions:                             *
  *                                                 *
  *  Active Elec.:   4 ( 3, 1)   Active Orb.:   4   *
  *  Doubly Occ. : 150           Doubly Vir.: 606   *
  *  Frozen Occ. :  48           Frozen Vir.:   0   *
  *                                                 *
  *  Total CI configurations:     19840             * 
  *    Active configurations:        16             * 
  *      Hole configurations:      2856             * 
  *  Particle configurations:     16968             * 
  *                                                 *
  *   Requested states:       20                    *
  *  Spin multiplicity: Any multiplicity            *
  *                                                 *
  ***************************************************
-----------------------------------------
    Memory requirements of RASCI

 Each CI-vector requires      0.15 MiB 
 Max. subspace vectors           3000      

 Reduced Lists                0.00 MiB 
 Excitation Lists             0.00 MiB 
 Excitation Lists Sign        0.00 MiB 
 CI-space (Max)             525.82 MiB 
 Integrals                  115.19 MiB 
 Memory required (Max)      525.82 MiB 
 Memory available          7811.55 MiB 

    Disk requirements of RASCI

 Fock matrix                  8.81 MiB 
 2-electron integrals       200.18 MiB 
 CI-space                   908.20 MiB 
 Disk required             1117.20 MiB 
-----------------------------------------
  
RAS1 HF-like energy:          -1775.0840857935
 Computing integrals
 Computing J and K matrices
 Computing addressing
 Making amplitude guesses
 
Direct CI diagonalization
 ---------------------------------------------------
 Iter    Rts Conv    Rts Left    Ttl Dev     Max Dev
 ---------------------------------------------------
   1         0          20      0.008658    0.000539
   2         0          20      0.006063    0.000457
   3         0          20      0.005429    0.000555
   4         0          20      0.006433    0.000870
   5         0          20      0.006183    0.000717
   6         0          20      0.005977    0.000563
   7         0          20      0.004849    0.000469
   8         0          20      0.003542    0.000451
   9         0          20      0.003195    0.000479
  10         0          20      0.002119    0.000390
  11         1          19      0.001300    0.000254
  12         3          17      0.000760    0.000177
  13         3          17      0.000459    0.000113
  14         5          15      0.000454    0.000262
  15         5          15      0.000335    0.000215
  16         6          14      0.000233    0.000165
  17         8          12      0.000154    0.000115
  18        14           6      0.000098    0.000077
  19        15           5      0.000055    0.000042
  20        18           2      0.000036    0.000027
  21        19           1      0.000026    0.000017
  22        19           1      0.000020    0.000012
  23        19           1      0.000017    0.000008
  24        19           1      0.000014    0.000005
  25        19           1      0.000012    0.000003
  26        19           1      0.000011    0.000002
  27        19           1      0.000010    0.000001
  28        20           0      0.000009    0.000001    Roots Converged
 ---------------------------------------------------
   
**************************************************
 RAS-CI total energy for state   1:  -1776.619974152357
  Excitation energy (eV) =  0.000000000000
  State symmetry: B1g   (D2h      )
  <S^2>      :  2.0000
  Dipole Moment:    0.0000 X     0.0000 Y    -0.0000 Z
 NATURAL OCCUPATION NUMBERS (higher than 1.0E-05)
            1           2           3           4           5           6
    1   2.0000000   2.0000000   2.0000000   2.0000000   2.0000000   2.0000000
            7           8           9          10          11          12
    1   2.0000000   2.0000000   2.0000000   2.0000000   2.0000000   2.0000000
           13          14          15          16          17          18
    1   2.0000000   2.0000000   2.0000000   2.0000000   2.0000000   2.0000000
           19          20          21          22          23          24
    1   2.0000000   2.0000000   2.0000000   2.0000000   2.0000000   2.0000000
           25          26          27          28          29          30
    1   2.0000000   2.0000000   2.0000000   2.0000000   2.0000000   2.0000000
           31          32          33          34          35          36
    1   2.0000000   2.0000000   2.0000000   2.0000000   2.0000000   2.0000000
           37          38          39          40          41          42
    1   2.0000000   2.0000000   2.0000000   2.0000000   2.0000000   2.0000000
           43          44          45          46          47          48
    1   2.0000000   2.0000000   2.0000000   2.0000000   2.0000000   2.0000000
           49          50          51          52          53          54
    1   2.0000000   2.0000000   2.0000000   2.0000000   2.0000000   2.0000000
           55          56          57          58          59          60
    1   2.0000000   2.0000000   2.0000000   2.0000000   2.0000000   2.0000000
           61          62          63          64          65          66
    1   2.0000000   2.0000000   2.0000000   2.0000000   2.0000000   2.0000000
           67          68          69          70          71          72
    1   2.0000000   2.0000000   2.0000000   2.0000000   2.0000000   2.0000000
           73          74          75          76          77          78
    1   2.0000000   2.0000000   2.0000000   2.0000000   2.0000000   2.0000000
           79          80          81          82          83          84
    1   2.0000000   2.0000000   2.0000000   2.0000000   2.0000000   2.0000000
           85          86          87          88          89          90
    1   2.0000000   2.0000000   2.0000000   2.0000000   2.0000000   2.0000000
           91          92          93          94          95          96
    1   2.0000000   2.0000000   2.0000000   2.0000000   2.0000000   2.0000000
           97          98          99         100         101         102
    1   2.0000000   2.0000000   2.0000000   2.0000000   2.0000000   2.0000000
          103         104         105         106         107         108
    1   2.0000000   2.0000000   2.0000000   2.0000000   2.0000000   2.0000000
          109         110         111         112         113         114
    1   2.0000000   2.0000000   2.0000000   2.0000000   2.0000000   2.0000000
          115         116         117         118         119         120
    1   2.0000000   2.0000000   2.0000000   2.0000000   2.0000000   2.0000000
          121         122         123         124         125         126
    1   2.0000000   2.0000000   2.0000000   2.0000000   2.0000000   2.0000000
          127         128         129         130         131         132
    1   2.0000000   2.0000000   2.0000000   2.0000000   2.0000000   2.0000000
          133         134         135         136         137         138
    1   1.9999993   1.9999991   1.9999909   1.9999871   1.9999867   1.9999636
          139         140         141         142         143         144
    1   1.9999457   1.9998936   1.9998731   1.9998483   1.9992627   1.9991986
          145         146         147         148         149         150
    1   1.9989036   1.9982320   1.9955126   1.9939240   1.9761254   1.9365283
          151         152         153         154         155         156
    1   1.8826007   1.0539571   0.9546783   0.1913698   0.0105146   0.0034783
          157         158         159         160         161         162
    1   0.0022239   0.0014607   0.0007142   0.0005634   0.0004956   0.0004243
          163         164         165         166
    1   0.0001865   0.0000779   0.0000211   0.0000153

 Head-Gordon Nu:    2.33
 Head-Gordon Nu_nl: 2.18
 Created directory ./qchem287444/plots

  Amplitudes : 
  
 | HOLE  | ALPHA | BETA  | PART  |    AMPLITUDE 
--------------------------------------------------
 |       | 1110  | 1000  |       |     9.0671019527570E-01
 |       | 1011  | 0100  |       |    -1.2952791810484E-01
 |       | 0111  | 0001  |       |    -1.3180326886598E-01
 | 150   | 1111  | 0010  |       |     1.0769802581658E-01
 | 149   | 1101  | 1100  |       |    -2.3546093656685E-01
--------------------------------------------------
*** Contributions RASCI wfn    Active:  86.46
                                 Hole:  11.25
                                 Part:   2.29

      Mulliken population analysis 
 ---------------------------------------------------
   Atom    Charge (a.u.)   Spin (a.u.)  
 ---------------------------------------------------
   1  H    0.210966       -0.000000 
   2  H    0.210966       -0.000000 
   3  H    0.204042       -0.000000 
   4  H    0.204042       -0.000000 
   5  H    0.202975       -0.000000 
   6  H    0.202975       -0.000000 
   7  H    0.212162       -0.000000 
   8  H    0.212162       -0.000000 
   9  H    0.212162       -0.000000 
  10  H    0.212162       -0.000000 
  11  H    0.202975       -0.000000 
  12  H    0.202975       -0.000000 
  13  H    0.204042       -0.000000 
  14  H    0.204042       -0.000000 
  15  H    0.210966       -0.000000 
  16  H    0.210966       -0.000000 
  17  B    0.377092        0.072447 
  18  B    0.320420        0.071025 
  19  B    0.320420        0.071025 
  20  B    0.377092        0.072447 
  21  H    0.196142       -0.000000 
  22  H    0.196142       -0.000000 
  23  C   -0.168666        0.041161 
  24  C   -0.168666        0.041161 
  25  C   -0.251855        0.040306 
  26  C   -0.172356        0.038908 
  27  C   -0.251855        0.040306 
  28  C    0.050831        0.038893 
  29  C    0.050831        0.038893 
  30  C   -0.188129        0.008102 
  31  C   -0.174756        0.029270 
  32  C   -0.174756        0.029270 
  33  C   -0.188129        0.008102 
  34  C   -0.180552        0.018342 
  35  C   -0.138406        0.043089 
  36  C   -0.138406        0.043089 
  37  C   -0.180552        0.018342 
  38  C    0.047165        0.026450 
  39  C    0.047165        0.026450 
  40  C   -0.236779        0.082008 
  41  C   -0.195811        0.052202 
  42  C   -0.236779        0.082008 
  43  C    0.050186        0.055089 
  44  C    0.050186        0.055089 
  45  C    0.050186        0.055089 
  46  C    0.050186        0.055089 
  47  C   -0.236779        0.082008 
  48  C   -0.195811        0.052202 
  49  C   -0.236779        0.082008 
  50  C    0.047165        0.026450 
  51  C    0.047165        0.026450 
  52  C   -0.180552        0.018342 
  53  C   -0.138406        0.043089 
  54  C   -0.138406        0.043089 
  55  C   -0.180552        0.018342 
  56  C   -0.188129        0.008102 
  57  C   -0.174756        0.029270 
  58  C   -0.174756        0.029270 
  59  C   -0.188129        0.008102 
  60  C    0.050831        0.038893 
  61  C    0.050831        0.038893 
  62  C   -0.251855        0.040306 
  63  C   -0.172356        0.038908 
  64  C   -0.251855        0.040306 
  65  C   -0.168666        0.041161 
  66  C   -0.168666        0.041161 
  67  H    0.196142       -0.000000 
  68  H    0.196142       -0.000000 
 ---------------------------------------------------
   Sum:    0.000000        2.000000 
 ---------------------------------------------------
 
*** Unpaired Electrons
 Yamaguchi Nd:         2.80
  
**************************************************
 RAS-CI total energy for state   2:  -1776.610396606359
  Excitation energy (eV) =  0.260618286444
  State symmetry: B3u   (D2h      )
  <S^2>      :  2.0000
  Dipole Moment:    0.0000 X     0.0000 Y    -0.0000 Z
  Trans. Moment:    0.0000 X    -0.1826 Y     0.0000 Z
  Strength   :  0.000213
  Natural transition orbitals ( 1 -> 2 ):
   e-/hole pair  1 alpha:  ampl =  0.184693 (  3.4%)   [4 : 5]
   e-/hole pair  2 alpha:  ampl =  0.119706 (  1.4%)   [3 : 6]
   e-/hole pair  1 beta :  ampl =  0.739780 ( 54.7%)   [4 : 5]
   e-/hole pair  2 beta :  ampl =  0.127539 (  1.6%)   [3 : 6]
   Sum of square amplitudes: 0.62

 NATURAL OCCUPATION NUMBERS (higher than 1.0E-05)
            1           2           3           4           5           6
    1   2.0000000   2.0000000   2.0000000   2.0000000   2.0000000   2.0000000
            7           8           9          10          11          12
    1   2.0000000   2.0000000   2.0000000   2.0000000   2.0000000   2.0000000
           13          14          15          16          17          18
    1   2.0000000   2.0000000   2.0000000   2.0000000   2.0000000   2.0000000
           19          20          21          22          23          24
    1   2.0000000   2.0000000   2.0000000   2.0000000   2.0000000   2.0000000
           25          26          27          28          29          30
    1   2.0000000   2.0000000   2.0000000   2.0000000   2.0000000   2.0000000
           31          32          33          34          35          36
    1   2.0000000   2.0000000   2.0000000   2.0000000   2.0000000   2.0000000
           37          38          39          40          41          42
    1   2.0000000   2.0000000   2.0000000   2.0000000   2.0000000   2.0000000
           43          44          45          46          47          48
    1   2.0000000   2.0000000   2.0000000   2.0000000   2.0000000   2.0000000
           49          50          51          52          53          54
    1   2.0000000   2.0000000   2.0000000   2.0000000   2.0000000   2.0000000
           55          56          57          58          59          60
    1   2.0000000   2.0000000   2.0000000   2.0000000   2.0000000   2.0000000
           61          62          63          64          65          66
    1   2.0000000   2.0000000   2.0000000   2.0000000   2.0000000   2.0000000
           67          68          69          70          71          72
    1   2.0000000   2.0000000   2.0000000   2.0000000   2.0000000   2.0000000
           73          74          75          76          77          78
    1   2.0000000   2.0000000   2.0000000   2.0000000   2.0000000   2.0000000
           79          80          81          82          83          84
    1   2.0000000   2.0000000   2.0000000   2.0000000   2.0000000   2.0000000
           85          86          87          88          89          90
    1   2.0000000   2.0000000   2.0000000   2.0000000   2.0000000   2.0000000
           91          92          93          94          95          96
    1   2.0000000   2.0000000   2.0000000   2.0000000   2.0000000   2.0000000
           97          98          99         100         101         102
    1   2.0000000   2.0000000   2.0000000   2.0000000   2.0000000   2.0000000
          103         104         105         106         107         108
    1   2.0000000   2.0000000   2.0000000   2.0000000   2.0000000   2.0000000
          109         110         111         112         113         114
    1   2.0000000   2.0000000   2.0000000   2.0000000   2.0000000   2.0000000
          115         116         117         118         119         120
    1   2.0000000   2.0000000   2.0000000   2.0000000   2.0000000   2.0000000
          121         122         123         124         125         126
    1   2.0000000   2.0000000   2.0000000   2.0000000   2.0000000   2.0000000
          127         128         129         130         131         132
    1   2.0000000   2.0000000   2.0000000   2.0000000   2.0000000   1.9999999
          133         134         135         136         137         138
    1   1.9999994   1.9999990   1.9999977   1.9999936   1.9999761   1.9999695
          139         140         141         142         143         144
    1   1.9999560   1.9999409   1.9997737   1.9997399   1.9996951   1.9990371
          145         146         147         148         149         150
    1   1.9989990   1.9979095   1.9977285   1.9969946   1.9953692   1.8539489
          151         152         153         154         155         156
    1   1.7274761   1.2764597   0.7583713   0.3793423   0.0123376   0.0025851
          157         158         159         160         161         162
    1   0.0015521   0.0007979   0.0005379   0.0005252   0.0004092   0.0003158
          163         164         165         166         167         168
    1   0.0001043   0.0000609   0.0000242   0.0000167   0.0000150   0.0000127

 Head-Gordon Nu:    2.31
 Head-Gordon Nu_nl: 2.41

  Amplitudes : 
  
 | HOLE  | ALPHA | BETA  | PART  |    AMPLITUDE 
--------------------------------------------------
 |       | 1110  | 0100  |       |     7.8427462408251E-01
 |       | 1011  | 1000  |       |    -1.9916806082274E-01
 |       | 1011  | 0001  |       |     1.1964191309567E-01
 | 150   | 1101  | 1100  |       |    -4.9783799370260E-01
 | 150   | 0111  | 0110  |       |     1.3645213945559E-01
--------------------------------------------------
*** Contributions RASCI wfn    Active:  67.54
                                 Hole:  30.33
                                 Part:   2.12

      Mulliken population analysis 
 ---------------------------------------------------
   Atom    Charge (a.u.)   Spin (a.u.)  
 ---------------------------------------------------
   1  H    0.210966       -0.000000 
   2  H    0.210966       -0.000000 
   3  H    0.204042       -0.000000 
   4  H    0.204042       -0.000000 
   5  H    0.202975       -0.000000 
   6  H    0.202975       -0.000000 
   7  H    0.212162       -0.000000 
   8  H    0.212162       -0.000000 
   9  H    0.212162       -0.000000 
  10  H    0.212162       -0.000000 
  11  H    0.202975       -0.000000 
  12  H    0.202975       -0.000000 
  13  H    0.204042       -0.000000 
  14  H    0.204042       -0.000000 
  15  H    0.210966       -0.000000 
  16  H    0.210966       -0.000000 
  17  B    0.388050        0.106796 
  18  B    0.350334        0.085244 
  19  B    0.350334        0.085244 
  20  B    0.388050        0.106796 
  21  H    0.196142       -0.000000 
  22  H    0.196142       -0.000000 
  23  C   -0.202626        0.005803 
  24  C   -0.202626        0.005803 
  25  C   -0.217185        0.099735 
  26  C   -0.123549        0.118761 
  27  C   -0.217185        0.099735 
  28  C    0.032369        0.017617 
  29  C    0.032369        0.017617 
  30  C   -0.183128        0.015824 
  31  C   -0.176118        0.027327 
  32  C   -0.176118        0.027327 
  33  C   -0.183128        0.015824 
  34  C   -0.181059        0.015961 
  35  C   -0.158849        0.022022 
  36  C   -0.158849        0.022022 
  37  C   -0.181059        0.015961 
  38  C    0.040145        0.018408 
  39  C    0.040145        0.018408 
  40  C   -0.234444        0.071206 
  41  C   -0.129301        0.086954 
  42  C   -0.234444        0.071206 
  43  C    0.011840        0.007220 
  44  C    0.011840        0.007220 
  45  C    0.011840        0.007220 
  46  C    0.011840        0.007220 
  47  C   -0.234444        0.071206 
  48  C   -0.129301        0.086954 
  49  C   -0.234444        0.071206 
  50  C    0.040145        0.018408 
  51  C    0.040145        0.018408 
  52  C   -0.181059        0.015961 
  53  C   -0.158849        0.022022 
  54  C   -0.158849        0.022022 
  55  C   -0.181059        0.015961 
  56  C   -0.183128        0.015824 
  57  C   -0.176118        0.027327 
  58  C   -0.176118        0.027327 
  59  C   -0.183128        0.015824 
  60  C    0.032369        0.017617 
  61  C    0.032369        0.017617 
  62  C   -0.217185        0.099735 
  63  C   -0.123549        0.118761 
  64  C   -0.217185        0.099735 
  65  C   -0.202626        0.005803 
  66  C   -0.202626        0.005803 
  67  H    0.196142       -0.000000 
  68  H    0.196142       -0.000000 
 ---------------------------------------------------
   Sum:    0.000000        2.000000 
 ---------------------------------------------------
 
*** Unpaired Electrons
 Yamaguchi Nd:         3.29
  
**************************************************
 RAS-CI total energy for state   3:  -1776.608197774231
  Excitation energy (eV) =  0.320451552888
  State symmetry: B2u   (D2h      )
  <S^2>      :  2.0000
  Dipole Moment:   -0.0000 X    -0.0000 Y    -0.0000 Z
  Trans. Moment:   -2.6700 X    -0.0000 Y     0.0000 Z
  Strength   :  0.055968
  Natural transition orbitals ( 1 -> 3 ):
   e-/hole pair  1 alpha:  ampl =  0.791026 ( 62.6%)   [4 : 5]
   e-/hole pair  2 alpha:  ampl =  0.119512 (  1.4%)   [3 : 6]
   e-/hole pair  1 beta :  ampl =  0.284934 (  8.1%)   [4 : 5]
   e-/hole pair  2 beta :  ampl =  0.203731 (  4.2%)   [3 : 6]
   Sum of square amplitudes: 0.83

 NATURAL OCCUPATION NUMBERS (higher than 1.0E-05)
            1           2           3           4           5           6
    1   2.0000000   2.0000000   2.0000000   2.0000000   2.0000000   2.0000000
            7           8           9          10          11          12
    1   2.0000000   2.0000000   2.0000000   2.0000000   2.0000000   2.0000000
           13          14          15          16          17          18
    1   2.0000000   2.0000000   2.0000000   2.0000000   2.0000000   2.0000000
           19          20          21          22          23          24
    1   2.0000000   2.0000000   2.0000000   2.0000000   2.0000000   2.0000000
           25          26          27          28          29          30
    1   2.0000000   2.0000000   2.0000000   2.0000000   2.0000000   2.0000000
           31          32          33          34          35          36
    1   2.0000000   2.0000000   2.0000000   2.0000000   2.0000000   2.0000000
           37          38          39          40          41          42
    1   2.0000000   2.0000000   2.0000000   2.0000000   2.0000000   2.0000000
           43          44          45          46          47          48
    1   2.0000000   2.0000000   2.0000000   2.0000000   2.0000000   2.0000000
           49          50          51          52          53          54
    1   2.0000000   2.0000000   2.0000000   2.0000000   2.0000000   2.0000000
           55          56          57          58          59          60
    1   2.0000000   2.0000000   2.0000000   2.0000000   2.0000000   2.0000000
           61          62          63          64          65          66
    1   2.0000000   2.0000000   2.0000000   2.0000000   2.0000000   2.0000000
           67          68          69          70          71          72
    1   2.0000000   2.0000000   2.0000000   2.0000000   2.0000000   2.0000000
           73          74          75          76          77          78
    1   2.0000000   2.0000000   2.0000000   2.0000000   2.0000000   2.0000000
           79          80          81          82          83          84
    1   2.0000000   2.0000000   2.0000000   2.0000000   2.0000000   2.0000000
           85          86          87          88          89          90
    1   2.0000000   2.0000000   2.0000000   2.0000000   2.0000000   2.0000000
           91          92          93          94          95          96
    1   2.0000000   2.0000000   2.0000000   2.0000000   2.0000000   2.0000000
           97          98          99         100         101         102
    1   2.0000000   2.0000000   2.0000000   2.0000000   2.0000000   2.0000000
          103         104         105         106         107         108
    1   2.0000000   2.0000000   2.0000000   2.0000000   2.0000000   2.0000000
          109         110         111         112         113         114
    1   2.0000000   2.0000000   2.0000000   2.0000000   2.0000000   2.0000000
          115         116         117         118         119         120
    1   2.0000000   2.0000000   2.0000000   2.0000000   2.0000000   2.0000000
          121         122         123         124         125         126
    1   2.0000000   2.0000000   2.0000000   2.0000000   2.0000000   2.0000000
          127         128         129         130         131         132
    1   2.0000000   2.0000000   2.0000000   2.0000000   2.0000000   1.9999990
          133         134         135         136         137         138
    1   1.9999957   1.9999952   1.9999942   1.9999745   1.9999715   1.9999435
          139         140         141         142         143         144
    1   1.9999266   1.9999160   1.9998343   1.9996008   1.9995743   1.9988815
          145         146         147         148         149         150
    1   1.9982493   1.9981118   1.9974833   1.9965098   1.9631116   1.8982778
          151         152         153         154         155         156
    1   1.8279162   1.0887094   0.8843025   0.3298731   0.0134707   0.0017552
          157         158         159         160         161         162
    1   0.0014508   0.0011250   0.0006245   0.0004545   0.0003229   0.0002485
          163         164         165         166         167         168
    1   0.0001887   0.0000630   0.0000518   0.0000283   0.0000199   0.0000122

 Head-Gordon Nu:    2.47
 Head-Gordon Nu_nl: 2.40

  Amplitudes : 
  
 | HOLE  | ALPHA | BETA  | PART  |    AMPLITUDE 
--------------------------------------------------
 |       | 1110  | 0010  |       |    -2.0682671929265E-01
 |       | 1101  | 1000  |       |     8.4117295880286E-01
 |       | 1101  | 0001  |       |     1.2442371901398E-01
 |       | 0111  | 0010  |       |     1.6919129334085E-01
 | 150   | 1111  | 1000  |       |    -1.3838665452981E-01
 | 150   | 1111  | 0001  |       |    -1.2206946071970E-01
 | 149   | 1110  | 1100  |       |    -3.0362475679115E-01
--------------------------------------------------
*** Contributions RASCI wfn    Active:  79.45
                                 Hole:  18.16
                                 Part:   2.40

      Mulliken population analysis 
 ---------------------------------------------------
   Atom    Charge (a.u.)   Spin (a.u.)  
 ---------------------------------------------------
   1  H    0.210966       -0.000000 
   2  H    0.210966       -0.000000 
   3  H    0.204042       -0.000000 
   4  H    0.204042       -0.000000 
   5  H    0.202975       -0.000000 
   6  H    0.202975       -0.000000 
   7  H    0.212162       -0.000000 
   8  H    0.212162       -0.000000 
   9  H    0.212162       -0.000000 
  10  H    0.212162       -0.000000 
  11  H    0.202975       -0.000000 
  12  H    0.202975       -0.000000 
  13  H    0.204042       -0.000000 
  14  H    0.204042       -0.000000 
  15  H    0.210966       -0.000000 
  16  H    0.210966       -0.000000 
  17  B    0.376807        0.053280 
  18  B    0.317630        0.079301 
  19  B    0.317630        0.079301 
  20  B    0.376807        0.053280 
  21  H    0.196142       -0.000000 
  22  H    0.196142       -0.000000 
  23  C   -0.168112        0.043664 
  24  C   -0.168112        0.043664 
  25  C   -0.241967        0.018457 
  26  C   -0.163946        0.016436 
  27  C   -0.241967        0.018457 
  28  C    0.050611        0.044347 
  29  C    0.050611        0.044347 
  30  C   -0.185810        0.006949 
  31  C   -0.171859        0.023186 
  32  C   -0.171859        0.023186 
  33  C   -0.185810        0.006949 
  34  C   -0.179946        0.021459 
  35  C   -0.151541        0.055607 
  36  C   -0.151541        0.055607 
  37  C   -0.179946        0.021459 
  38  C    0.051483        0.025070 
  39  C    0.051483        0.025070 
  40  C   -0.255373        0.114646 
  41  C   -0.177273        0.034879 
  42  C   -0.255373        0.114646 
  43  C    0.049617        0.054668 
  44  C    0.049617        0.054668 
  45  C    0.049617        0.054668 
  46  C    0.049617        0.054668 
  47  C   -0.255373        0.114646 
  48  C   -0.177273        0.034879 
  49  C   -0.255373        0.114646 
  50  C    0.051483        0.025070 
  51  C    0.051483        0.025070 
  52  C   -0.179946        0.021459 
  53  C   -0.151541        0.055607 
  54  C   -0.151541        0.055607 
  55  C   -0.179946        0.021459 
  56  C   -0.185810        0.006949 
  57  C   -0.171859        0.023186 
  58  C   -0.171859        0.023186 
  59  C   -0.185810        0.006949 
  60  C    0.050611        0.044347 
  61  C    0.050611        0.044347 
  62  C   -0.241967        0.018457 
  63  C   -0.163946        0.016436 
  64  C   -0.241967        0.018457 
  65  C   -0.168112        0.043664 
  66  C   -0.168112        0.043664 
  67  H    0.196142       -0.000000 
  68  H    0.196142       -0.000000 
 ---------------------------------------------------
   Sum:    0.000000        2.000000 
 ---------------------------------------------------
 
*** Unpaired Electrons
 Yamaguchi Nd:         3.17
  
**************************************************
 RAS-CI total energy for state   4:  -1776.605154123772
  Excitation energy (eV) =  0.403273495722
  State symmetry: Ag    (D2h      )
  <S^2>      :  2.0000
  Dipole Moment:    0.0000 X     0.0000 Y    -0.0000 Z
  Trans. Moment:   -0.0000 X    -0.0000 Y     0.0000 Z
  Strength   :  0.000000
  Natural transition orbitals ( 1 -> 4 ):
   e-/hole pair  1 alpha:  ampl =  0.093216 (  0.9%)   [4 : 5]
   e-/hole pair  2 alpha:  ampl =  0.046722 (  0.2%)   [3 : 6]
   e-/hole pair  1 beta :  ampl =  0.674459 ( 45.5%)   [4 : 5]
   e-/hole pair  2 beta :  ampl =  0.163967 (  2.7%)   [3 : 6]
   Sum of square amplitudes: 0.50

 NATURAL OCCUPATION NUMBERS (higher than 1.0E-05)
            1           2           3           4           5           6
    1   2.0000000   2.0000000   2.0000000   2.0000000   2.0000000   2.0000000
            7           8           9          10          11          12
    1   2.0000000   2.0000000   2.0000000   2.0000000   2.0000000   2.0000000
           13          14          15          16          17          18
    1   2.0000000   2.0000000   2.0000000   2.0000000   2.0000000   2.0000000
           19          20          21          22          23          24
    1   2.0000000   2.0000000   2.0000000   2.0000000   2.0000000   2.0000000
           25          26          27          28          29          30
    1   2.0000000   2.0000000   2.0000000   2.0000000   2.0000000   2.0000000
           31          32          33          34          35          36
    1   2.0000000   2.0000000   2.0000000   2.0000000   2.0000000   2.0000000
           37          38          39          40          41          42
    1   2.0000000   2.0000000   2.0000000   2.0000000   2.0000000   2.0000000
           43          44          45          46          47          48
    1   2.0000000   2.0000000   2.0000000   2.0000000   2.0000000   2.0000000
           49          50          51          52          53          54
    1   2.0000000   2.0000000   2.0000000   2.0000000   2.0000000   2.0000000
           55          56          57          58          59          60
    1   2.0000000   2.0000000   2.0000000   2.0000000   2.0000000   2.0000000
           61          62          63          64          65          66
    1   2.0000000   2.0000000   2.0000000   2.0000000   2.0000000   2.0000000
           67          68          69          70          71          72
    1   2.0000000   2.0000000   2.0000000   2.0000000   2.0000000   2.0000000
           73          74          75          76          77          78
    1   2.0000000   2.0000000   2.0000000   2.0000000   2.0000000   2.0000000
           79          80          81          82          83          84
    1   2.0000000   2.0000000   2.0000000   2.0000000   2.0000000   2.0000000
           85          86          87          88          89          90
    1   2.0000000   2.0000000   2.0000000   2.0000000   2.0000000   2.0000000
           91          92          93          94          95          96
    1   2.0000000   2.0000000   2.0000000   2.0000000   2.0000000   2.0000000
           97          98          99         100         101         102
    1   2.0000000   2.0000000   2.0000000   2.0000000   2.0000000   2.0000000
          103         104         105         106         107         108
    1   2.0000000   2.0000000   2.0000000   2.0000000   2.0000000   2.0000000
          109         110         111         112         113         114
    1   2.0000000   2.0000000   2.0000000   2.0000000   2.0000000   2.0000000
          115         116         117         118         119         120
    1   2.0000000   2.0000000   2.0000000   2.0000000   2.0000000   2.0000000
          121         122         123         124         125         126
    1   2.0000000   2.0000000   2.0000000   2.0000000   2.0000000   2.0000000
          127         128         129         130         131         132
    1   2.0000000   2.0000000   2.0000000   2.0000000   2.0000000   1.9999999
          133         134         135         136         137         138
    1   1.9999999   1.9999997   1.9999932   1.9999912   1.9999877   1.9999747
          139         140         141         142         143         144
    1   1.9999633   1.9999510   1.9999491   1.9999305   1.9997524   1.9989863
          145         146         147         148         149         150
    1   1.9987526   1.9982119   1.9973609   1.9957602   1.9952673   1.9606920
          151         152         153         154         155         156
    1   1.5086414   1.4612370   0.5705039   0.5030656   0.0070296   0.0013141
          157         158         159         160         161         162
    1   0.0010422   0.0008220   0.0005672   0.0005083   0.0002226   0.0002128
          163         164         165         166         167
    1   0.0001614   0.0000646   0.0000247   0.0000240   0.0000110

 Head-Gordon Nu:    2.17
 Head-Gordon Nu_nl: 2.41

  Amplitudes : 
  
 | HOLE  | ALPHA | BETA  | PART  |    AMPLITUDE 
--------------------------------------------------
 |       | 1101  | 0100  |       |    -6.5020769595043E-01
 | 150   | 1110  | 1100  |       |     7.1203443220351E-01
 | 150   | 0111  | 0101  |       |     1.2380034370416E-01
--------------------------------------------------
*** Contributions RASCI wfn    Active:  42.54
                                 Hole:  56.18
                                 Part:   1.28

      Mulliken population analysis 
 ---------------------------------------------------
   Atom    Charge (a.u.)   Spin (a.u.)  
 ---------------------------------------------------
   1  H    0.210966       -0.000000 
   2  H    0.210966       -0.000000 
   3  H    0.204042       -0.000000 
   4  H    0.204042       -0.000000 
   5  H    0.202975       -0.000000 
   6  H    0.202975       -0.000000 
   7  H    0.212162       -0.000000 
   8  H    0.212162       -0.000000 
   9  H    0.212162       -0.000000 
  10  H    0.212162       -0.000000 
  11  H    0.202975       -0.000000 
  12  H    0.202975       -0.000000 
  13  H    0.204042       -0.000000 
  14  H    0.204042       -0.000000 
  15  H    0.210966       -0.000000 
  16  H    0.210966       -0.000000 
  17  B    0.391255        0.091704 
  18  B    0.355250        0.092654 
  19  B    0.355250        0.092654 
  20  B    0.391255        0.091704 
  21  H    0.196142       -0.000000 
  22  H    0.196142       -0.000000 
  23  C   -0.204050        0.007424 
  24  C   -0.204050        0.007424 
  25  C   -0.214873        0.087031 
  26  C   -0.124809        0.101169 
  27  C   -0.214873        0.087031 
  28  C    0.031161        0.022463 
  29  C    0.031161        0.022463 
  30  C   -0.183524        0.014830 
  31  C   -0.173322        0.024365 
  32  C   -0.173322        0.024365 
  33  C   -0.183524        0.014830 
  34  C   -0.181981        0.018363 
  35  C   -0.159878        0.026838 
  36  C   -0.159878        0.026838 
  37  C   -0.181981        0.018363 
  38  C    0.040341        0.017079 
  39  C    0.040341        0.017079 
  40  C   -0.235230        0.086849 
  41  C   -0.119469        0.088811 
  42  C   -0.235230        0.086849 
  43  C    0.003956        0.007590 
  44  C    0.003956        0.007590 
  45  C    0.003956        0.007590 
  46  C    0.003956        0.007590 
  47  C   -0.235230        0.086849 
  48  C   -0.119469        0.088811 
  49  C   -0.235230        0.086849 
  50  C    0.040341        0.017079 
  51  C    0.040341        0.017079 
  52  C   -0.181981        0.018363 
  53  C   -0.159878        0.026838 
  54  C   -0.159878        0.026838 
  55  C   -0.181981        0.018363 
  56  C   -0.183524        0.014830 
  57  C   -0.173322        0.024365 
  58  C   -0.173322        0.024365 
  59  C   -0.183524        0.014830 
  60  C    0.031161        0.022463 
  61  C    0.031161        0.022463 
  62  C   -0.214873        0.087031 
  63  C   -0.124809        0.101169 
  64  C   -0.214873        0.087031 
  65  C   -0.204050        0.007424 
  66  C   -0.204050        0.007424 
  67  H    0.196142       -0.000000 
  68  H    0.196142       -0.000000 
 ---------------------------------------------------
   Sum:    0.000000        2.000000 
 ---------------------------------------------------
 
*** Unpaired Electrons
 Yamaguchi Nd:         3.23
  
**************************************************
 RAS-CI total energy for state   5:  -1776.591971259356
  Excitation energy (eV) =  0.761997487792
  State symmetry: B3u   (D2h      )
  <S^2>      :  2.0000
  Dipole Moment:    0.0000 X    -0.0000 Y    -0.0000 Z
  Trans. Moment:    0.0000 X    -0.8954 Y     0.0000 Z
  Strength   :  0.014967
  Natural transition orbitals ( 1 -> 5 ):
   e-/hole pair  1 alpha:  ampl =  0.812301 ( 66.0%)   [4 : 5]
   e-/hole pair  2 alpha:  ampl =  0.080189 (  0.6%)   [3 : 6]
   e-/hole pair  1 beta :  ampl =  0.133550 (  1.8%)   [4 : 5]
   e-/hole pair  2 beta :  ampl =  0.123629 (  1.5%)   [3 : 6]
   Sum of square amplitudes: 0.73

 NATURAL OCCUPATION NUMBERS (higher than 1.0E-05)
            1           2           3           4           5           6
    1   2.0000000   2.0000000   2.0000000   2.0000000   2.0000000   2.0000000
            7           8           9          10          11          12
    1   2.0000000   2.0000000   2.0000000   2.0000000   2.0000000   2.0000000
           13          14          15          16          17          18
    1   2.0000000   2.0000000   2.0000000   2.0000000   2.0000000   2.0000000
           19          20          21          22          23          24
    1   2.0000000   2.0000000   2.0000000   2.0000000   2.0000000   2.0000000
           25          26          27          28          29          30
    1   2.0000000   2.0000000   2.0000000   2.0000000   2.0000000   2.0000000
           31          32          33          34          35          36
    1   2.0000000   2.0000000   2.0000000   2.0000000   2.0000000   2.0000000
           37          38          39          40          41          42
    1   2.0000000   2.0000000   2.0000000   2.0000000   2.0000000   2.0000000
           43          44          45          46          47          48
    1   2.0000000   2.0000000   2.0000000   2.0000000   2.0000000   2.0000000
           49          50          51          52          53          54
    1   2.0000000   2.0000000   2.0000000   2.0000000   2.0000000   2.0000000
           55          56          57          58          59          60
    1   2.0000000   2.0000000   2.0000000   2.0000000   2.0000000   2.0000000
           61          62          63          64          65          66
    1   2.0000000   2.0000000   2.0000000   2.0000000   2.0000000   2.0000000
           67          68          69          70          71          72
    1   2.0000000   2.0000000   2.0000000   2.0000000   2.0000000   2.0000000
           73          74          75          76          77          78
    1   2.0000000   2.0000000   2.0000000   2.0000000   2.0000000   2.0000000
           79          80          81          82          83          84
    1   2.0000000   2.0000000   2.0000000   2.0000000   2.0000000   2.0000000
           85          86          87          88          89          90
    1   2.0000000   2.0000000   2.0000000   2.0000000   2.0000000   2.0000000
           91          92          93          94          95          96
    1   2.0000000   2.0000000   2.0000000   2.0000000   2.0000000   2.0000000
           97          98          99         100         101         102
    1   2.0000000   2.0000000   2.0000000   2.0000000   2.0000000   2.0000000
          103         104         105         106         107         108
    1   2.0000000   2.0000000   2.0000000   2.0000000   2.0000000   2.0000000
          109         110         111         112         113         114
    1   2.0000000   2.0000000   2.0000000   2.0000000   2.0000000   2.0000000
          115         116         117         118         119         120
    1   2.0000000   2.0000000   2.0000000   2.0000000   2.0000000   2.0000000
          121         122         123         124         125         126
    1   2.0000000   2.0000000   2.0000000   2.0000000   2.0000000   2.0000000
          127         128         129         130         131         132
    1   2.0000000   2.0000000   2.0000000   2.0000000   1.9999998   1.9999995
          133         134         135         136         137         138
    1   1.9999942   1.9999882   1.9999795   1.9999789   1.9999676   1.9999447
          139         140         141         142         143         144
    1   1.9999270   1.9999180   1.9998271   1.9998216   1.9995772   1.9994869
          145         146         147         148         149         150
    1   1.9993566   1.9960703   1.9904073   1.9874605   1.9670668   1.9067767
          151         152         153         154         155         156
    1   1.8862708   0.9711520   0.9576736   0.3183276   0.0083480   0.0040747
          157         158         159         160         161         162
    1   0.0033006   0.0025962   0.0008303   0.0006817   0.0005640   0.0002856
          163         164         165         166         167
    1   0.0001291   0.0001132   0.0000323   0.0000312   0.0000215

 Head-Gordon Nu:    2.54
 Head-Gordon Nu_nl: 2.36

  Amplitudes : 
  
 | HOLE  | ALPHA | BETA  | PART  |    AMPLITUDE 
--------------------------------------------------
 |       | 1011  | 1000  |       |     8.7509131244452E-01
 |       | 0111  | 0100  |       |    -1.4100891291851E-01
 | 149   | 1110  | 1010  |       |     1.3309802819142E-01
 | 150   | 1110  | 0110  |       |    -1.0435673152166E-01
 | 150   | 1101  | 1100  |       |    -2.6126285560500E-01
 | 150   | 1011  | 1010  |       |     1.4872913406128E-01
--------------------------------------------------
*** Contributions RASCI wfn    Active:  79.80
                                 Hole:  17.82
                                 Part:   2.39

      Mulliken population analysis 
 ---------------------------------------------------
   Atom    Charge (a.u.)   Spin (a.u.)  
 ---------------------------------------------------
   1  H    0.210966       -0.000000 
   2  H    0.210966       -0.000000 
   3  H    0.204042       -0.000000 
   4  H    0.204042       -0.000000 
   5  H    0.202975       -0.000000 
   6  H    0.202975       -0.000000 
   7  H    0.212162       -0.000000 
   8  H    0.212162       -0.000000 
   9  H    0.212162       -0.000000 
  10  H    0.212162       -0.000000 
  11  H    0.202975       -0.000000 
  12  H    0.202975       -0.000000 
  13  H    0.204042       -0.000000 
  14  H    0.204042       -0.000000 
  15  H    0.210966       -0.000000 
  16  H    0.210966       -0.000000 
  17  B    0.329213        0.154480 
  18  B    0.262698        0.111284 
  19  B    0.262698        0.111284 
  20  B    0.329213        0.154480 
  21  H    0.196142       -0.000000 
  22  H    0.196142       -0.000000 
  23  C   -0.151336        0.012200 
  24  C   -0.151336        0.012200 
  25  C   -0.264009        0.086033 
  26  C   -0.179379        0.100747 
  27  C   -0.264009        0.086033 
  28  C    0.073641        0.006971 
  29  C    0.073641        0.006971 
  30  C   -0.181028        0.005833 
  31  C   -0.188849        0.049357 
  32  C   -0.188849        0.049357 
  33  C   -0.181028        0.005833 
  34  C   -0.168256        0.003412 
  35  C   -0.149698        0.041545 
  36  C   -0.149698        0.041545 
  37  C   -0.168256        0.003412 
  38  C    0.061471        0.013697 
  39  C    0.061471        0.013697 
  40  C   -0.238918        0.053687 
  41  C   -0.196803        0.052687 
  42  C   -0.238918        0.053687 
  43  C    0.072830        0.017668 
  44  C    0.072830        0.017668 
  45  C    0.072830        0.017668 
  46  C    0.072830        0.017668 
  47  C   -0.238918        0.053687 
  48  C   -0.196803        0.052687 
  49  C   -0.238918        0.053687 
  50  C    0.061471        0.013697 
  51  C    0.061471        0.013697 
  52  C   -0.168256        0.003412 
  53  C   -0.149698        0.041545 
  54  C   -0.149698        0.041545 
  55  C   -0.168256        0.003412 
  56  C   -0.181028        0.005833 
  57  C   -0.188849        0.049357 
  58  C   -0.188849        0.049357 
  59  C   -0.181028        0.005833 
  60  C    0.073641        0.006971 
  61  C    0.073641        0.006971 
  62  C   -0.264009        0.086033 
  63  C   -0.179379        0.100747 
  64  C   -0.264009        0.086033 
  65  C   -0.151336        0.012200 
  66  C   -0.151336        0.012200 
  67  H    0.196142       -0.000000 
  68  H    0.196142       -0.000000 
 ---------------------------------------------------
   Sum:    0.000000        2.000000 
 ---------------------------------------------------
 
*** Unpaired Electrons
 Yamaguchi Nd:         3.09
  
**************************************************
 RAS-CI total energy for state   6:  -1776.584966751084
  Excitation energy (eV) =  0.952599855416
  State symmetry: B2u   (D2h      )
  <S^2>      :  2.0000
  Dipole Moment:    0.0000 X    -0.0000 Y    -0.0000 Z
  Trans. Moment:    0.4951 X    -0.0000 Y    -0.0000 Z
  Strength   :  0.005721
  Natural transition orbitals ( 1 -> 6 ):
   e-/hole pair  1 alpha:  ampl =  0.375671 ( 14.1%)   [4 : 5]
   e-/hole pair  2 alpha:  ampl =  0.080380 (  0.6%)   [3 : 6]
   e-/hole pair  1 beta :  ampl =  0.638344 ( 40.7%)   [4 : 5]
   e-/hole pair  2 beta :  ampl =  0.173184 (  3.0%)   [3 : 6]
   Sum of square amplitudes: 0.61

 NATURAL OCCUPATION NUMBERS (higher than 1.0E-05)
            1           2           3           4           5           6
    1   2.0000000   2.0000000   2.0000000   2.0000000   2.0000000   2.0000000
            7           8           9          10          11          12
    1   2.0000000   2.0000000   2.0000000   2.0000000   2.0000000   2.0000000
           13          14          15          16          17          18
    1   2.0000000   2.0000000   2.0000000   2.0000000   2.0000000   2.0000000
           19          20          21          22          23          24
    1   2.0000000   2.0000000   2.0000000   2.0000000   2.0000000   2.0000000
           25          26          27          28          29          30
    1   2.0000000   2.0000000   2.0000000   2.0000000   2.0000000   2.0000000
           31          32          33          34          35          36
    1   2.0000000   2.0000000   2.0000000   2.0000000   2.0000000   2.0000000
           37          38          39          40          41          42
    1   2.0000000   2.0000000   2.0000000   2.0000000   2.0000000   2.0000000
           43          44          45          46          47          48
    1   2.0000000   2.0000000   2.0000000   2.0000000   2.0000000   2.0000000
           49          50          51          52          53          54
    1   2.0000000   2.0000000   2.0000000   2.0000000   2.0000000   2.0000000
           55          56          57          58          59          60
    1   2.0000000   2.0000000   2.0000000   2.0000000   2.0000000   2.0000000
           61          62          63          64          65          66
    1   2.0000000   2.0000000   2.0000000   2.0000000   2.0000000   2.0000000
           67          68          69          70          71          72
    1   2.0000000   2.0000000   2.0000000   2.0000000   2.0000000   2.0000000
           73          74          75          76          77          78
    1   2.0000000   2.0000000   2.0000000   2.0000000   2.0000000   2.0000000
           79          80          81          82          83          84
    1   2.0000000   2.0000000   2.0000000   2.0000000   2.0000000   2.0000000
           85          86          87          88          89          90
    1   2.0000000   2.0000000   2.0000000   2.0000000   2.0000000   2.0000000
           91          92          93          94          95          96
    1   2.0000000   2.0000000   2.0000000   2.0000000   2.0000000   2.0000000
           97          98          99         100         101         102
    1   2.0000000   2.0000000   2.0000000   2.0000000   2.0000000   2.0000000
          103         104         105         106         107         108
    1   2.0000000   2.0000000   2.0000000   2.0000000   2.0000000   2.0000000
          109         110         111         112         113         114
    1   2.0000000   2.0000000   2.0000000   2.0000000   2.0000000   2.0000000
          115         116         117         118         119         120
    1   2.0000000   2.0000000   2.0000000   2.0000000   2.0000000   2.0000000
          121         122         123         124         125         126
    1   2.0000000   2.0000000   2.0000000   2.0000000   2.0000000   2.0000000
          127         128         129         130         131         132
    1   2.0000000   2.0000000   2.0000000   2.0000000   1.9999980   1.9999943
          133         134         135         136         137         138
    1   1.9999938   1.9999923   1.9999918   1.9999654   1.9999085   1.9999042
          139         140         141         142         143         144
    1   1.9998963   1.9998666   1.9998615   1.9998586   1.9992627   1.9982673
          145         146         147         148         149         150
    1   1.9982194   1.9971364   1.9965276   1.9850315   1.9349123   1.8443613
          151         152         153         154         155         156
    1   1.2791720   1.2093547   1.0632114   0.6742601   0.0117338   0.0031948
          157         158         159         160         161         162
    1   0.0018496   0.0012044   0.0009809   0.0007391   0.0005573   0.0004442
          163         164         165         166         167         168
    1   0.0000989   0.0000644   0.0000443   0.0000368   0.0000303   0.0000252
          169         170
    1   0.0000134   0.0000100

 Head-Gordon Nu:    3.39
 Head-Gordon Nu_nl: 3.66

  Amplitudes : 
  
 | HOLE  | ALPHA | BETA  | PART  |    AMPLITUDE 
--------------------------------------------------
 |       | 1110  | 0010  |       |    -6.7734294303059E-01
 |       | 1101  | 1000  |       |    -2.5170945688776E-01
 |       | 1101  | 0001  |       |     4.2007925236776E-01
 | 150   | 1111  | 1000  |       |    -3.3833266734238E-01
 | 149   | 1110  | 1100  |       |     1.9396422033279E-01
 | 150   | 1101  | 1010  |       |     2.0110688129455E-01
 | 149   | 0111  | 1100  |       |     1.0501156435362E-01
--------------------------------------------------
*** Contributions RASCI wfn    Active:  69.88
                                 Hole:  27.73
                                 Part:   2.39

      Mulliken population analysis 
 ---------------------------------------------------
   Atom    Charge (a.u.)   Spin (a.u.)  
 ---------------------------------------------------
   1  H    0.210966       -0.000000 
   2  H    0.210966       -0.000000 
   3  H    0.204042       -0.000000 
   4  H    0.204042       -0.000000 
   5  H    0.202975       -0.000000 
   6  H    0.202975       -0.000000 
   7  H    0.212162       -0.000000 
   8  H    0.212162       -0.000000 
   9  H    0.212162       -0.000000 
  10  H    0.212162       -0.000000 
  11  H    0.202975       -0.000000 
  12  H    0.202975       -0.000000 
  13  H    0.204042       -0.000000 
  14  H    0.204042       -0.000000 
  15  H    0.210966       -0.000000 
  16  H    0.210966       -0.000000 
  17  B    0.329494        0.047771 
  18  B    0.297252        0.025068 
  19  B    0.297252        0.025068 
  20  B    0.329494        0.047771 
  21  H    0.196142       -0.000000 
  22  H    0.196142       -0.000000 
  23  C   -0.171699        0.037614 
  24  C   -0.171699        0.037614 
  25  C   -0.251644        0.061179 
  26  C   -0.156907        0.063542 
  27  C   -0.251644        0.061179 
  28  C    0.062816        0.045364 
  29  C    0.062816        0.045364 
  30  C   -0.179792        0.017842 
  31  C   -0.193107        0.014356 
  32  C   -0.193107        0.014356 
  33  C   -0.179792        0.017842 
  34  C   -0.166454        0.029735 
  35  C   -0.157183        0.030157 
  36  C   -0.157183        0.030157 
  37  C   -0.166454        0.029735 
  38  C    0.049775        0.031147 
  39  C    0.049775        0.031147 
  40  C   -0.221429        0.096109 
  41  C   -0.148929        0.038730 
  42  C   -0.221429        0.096109 
  43  C    0.041974        0.048940 
  44  C    0.041974        0.048940 
  45  C    0.041974        0.048940 
  46  C    0.041974        0.048940 
  47  C   -0.221429        0.096109 
  48  C   -0.148929        0.038730 
  49  C   -0.221429        0.096109 
  50  C    0.049775        0.031147 
  51  C    0.049775        0.031147 
  52  C   -0.166454        0.029735 
  53  C   -0.157183        0.030157 
  54  C   -0.157183        0.030157 
  55  C   -0.166454        0.029735 
  56  C   -0.179792        0.017842 
  57  C   -0.193107        0.014356 
  58  C   -0.193107        0.014356 
  59  C   -0.179792        0.017842 
  60  C    0.062816        0.045364 
  61  C    0.062816        0.045364 
  62  C   -0.251644        0.061179 
  63  C   -0.156907        0.063542 
  64  C   -0.251644        0.061179 
  65  C   -0.171699        0.037614 
  66  C   -0.171699        0.037614 
  67  H    0.196142       -0.000000 
  68  H    0.196142       -0.000000 
 ---------------------------------------------------
   Sum:    0.000000        2.000000 
 ---------------------------------------------------
 
*** Unpaired Electrons
 Yamaguchi Nd:         4.28
  
**************************************************
 RAS-CI total energy for state   7:  -1776.582903543075
  Excitation energy (eV) =  1.008742601794
  State symmetry: B1g   (D2h      )
  <S^2>      :  2.0000
  Dipole Moment:   -0.0000 X    -0.0000 Y    -0.0000 Z
  Trans. Moment:    0.0000 X    -0.0000 Y     0.0000 Z
  Strength   :  0.000000
  Natural transition orbitals ( 1 -> 7 ):
   e-/hole pair  1 alpha:  ampl =  0.359364 ( 12.9%)   [4 : 5]
   e-/hole pair  2 alpha:  ampl =  0.056628 (  0.3%)   [3 : 6]
   e-/hole pair  1 beta :  ampl =  0.636461 ( 40.5%)   [4 : 5]
   e-/hole pair  2 beta :  ampl =  0.076674 (  0.6%)   [3 : 6]
   Sum of square amplitudes: 0.55

 NATURAL OCCUPATION NUMBERS (higher than 1.0E-05)
            1           2           3           4           5           6
    1   2.0000000   2.0000000   2.0000000   2.0000000   2.0000000   2.0000000
            7           8           9          10          11          12
    1   2.0000000   2.0000000   2.0000000   2.0000000   2.0000000   2.0000000
           13          14          15          16          17          18
    1   2.0000000   2.0000000   2.0000000   2.0000000   2.0000000   2.0000000
           19          20          21          22          23          24
    1   2.0000000   2.0000000   2.0000000   2.0000000   2.0000000   2.0000000
           25          26          27          28          29          30
    1   2.0000000   2.0000000   2.0000000   2.0000000   2.0000000   2.0000000
           31          32          33          34          35          36
    1   2.0000000   2.0000000   2.0000000   2.0000000   2.0000000   2.0000000
           37          38          39          40          41          42
    1   2.0000000   2.0000000   2.0000000   2.0000000   2.0000000   2.0000000
           43          44          45          46          47          48
    1   2.0000000   2.0000000   2.0000000   2.0000000   2.0000000   2.0000000
           49          50          51          52          53          54
    1   2.0000000   2.0000000   2.0000000   2.0000000   2.0000000   2.0000000
           55          56          57          58          59          60
    1   2.0000000   2.0000000   2.0000000   2.0000000   2.0000000   2.0000000
           61          62          63          64          65          66
    1   2.0000000   2.0000000   2.0000000   2.0000000   2.0000000   2.0000000
           67          68          69          70          71          72
    1   2.0000000   2.0000000   2.0000000   2.0000000   2.0000000   2.0000000
           73          74          75          76          77          78
    1   2.0000000   2.0000000   2.0000000   2.0000000   2.0000000   2.0000000
           79          80          81          82          83          84
    1   2.0000000   2.0000000   2.0000000   2.0000000   2.0000000   2.0000000
           85          86          87          88          89          90
    1   2.0000000   2.0000000   2.0000000   2.0000000   2.0000000   2.0000000
           91          92          93          94          95          96
    1   2.0000000   2.0000000   2.0000000   2.0000000   2.0000000   2.0000000
           97          98          99         100         101         102
    1   2.0000000   2.0000000   2.0000000   2.0000000   2.0000000   2.0000000
          103         104         105         106         107         108
    1   2.0000000   2.0000000   2.0000000   2.0000000   2.0000000   2.0000000
          109         110         111         112         113         114
    1   2.0000000   2.0000000   2.0000000   2.0000000   2.0000000   2.0000000
          115         116         117         118         119         120
    1   2.0000000   2.0000000   2.0000000   2.0000000   2.0000000   2.0000000
          121         122         123         124         125         126
    1   2.0000000   2.0000000   2.0000000   2.0000000   2.0000000   2.0000000
          127         128         129         130         131         132
    1   2.0000000   2.0000000   2.0000000   2.0000000   2.0000000   1.9999999
          133         134         135         136         137         138
    1   1.9999997   1.9999979   1.9999924   1.9999628   1.9999613   1.9999372
          139         140         141         142         143         144
[...]
 -0.061  -0.046   0.003   0.076   0.087   0.096   0.133   0.139
  7 B1u   7 B2g   6 B3g   6 Au    8 B1u   8 B2g   9 B1u   7 B3g                
  0.154   0.158   0.158   0.166   0.190   0.199   0.237   0.238
  7 Au    8 B3g  10 B1u   9 B2g  10 B2g   8 Au   37 Ag   11 B1u                
  0.244   0.246   0.251   0.252   0.259   0.260   0.269   0.275
 36 B3u  31 B2u  38 Ag   30 B1g   9 B3g  32 B2u  37 B3u  11 B2g                
  0.276   0.277   0.280   0.290   0.294   0.295   0.301   0.310
 39 Ag   31 B1g  12 B1u  33 B2u   9 Au   38 B3u  40 Ag   32 B1g                
  0.317   0.319   0.325   0.335   0.347   0.352   0.355   0.368
 34 B2u  12 B2g  39 B3u  41 Ag   33 B1g  35 B2u  40 B3u  34 B1g                
  0.369   0.373   0.376   0.376   0.379   0.383   0.392   0.398
 42 Ag   41 B3u  43 Ag   13 B1u  44 Ag   42 B3u  10 B3g  43 B3u                
  0.404   0.408   0.416   0.420   0.425   0.429   0.429   0.433
 10 Au   45 Ag   36 B2u  35 B1g  37 B2u  44 B3u  13 B2g  46 Ag                 
  0.437   0.441   0.445   0.451   0.463   0.465   0.466   0.468
 38 B2u  47 Ag   36 B1g  45 B3u  46 B3u  48 Ag   37 B1g  39 B2u                
  0.477   0.479   0.480   0.486   0.491   0.493   0.499   0.504
 49 Ag   40 B2u  38 B1g  41 B2u  50 Ag   47 B3u  39 B1g  14 B1u                
  0.507   0.508   0.509   0.522   0.524   0.528   0.529   0.535
 48 B3u  40 B1g  41 B1g  14 B2g  42 B2u  51 Ag   49 B3u  43 B2u                
  0.549   0.551   0.553   0.572   0.583   0.590   0.603   0.603
 44 B2u  50 B3u  52 Ag   42 B1g  51 B3u  53 Ag   52 B3u  45 B2u                
  0.615   0.619   0.623   0.642   0.642   0.656   0.659   0.670
 54 Ag   43 B1g  53 B3u  44 B1g  55 Ag   15 B1u  15 B2g  54 B3u                
  0.671   0.676   0.682   0.687   0.691   0.695   0.697   0.707
 45 B1g  46 B2u  55 B3u  56 Ag   16 B1u  57 Ag   16 B2g  46 B1g                
  0.715   0.718   0.737   0.738   0.740   0.744   0.751   0.753
 56 B3u  47 B2u  58 Ag   48 B2u  49 B2u  11 B3g  11 Au   59 Ag                 
  0.759   0.760   0.762   0.765   0.766   0.769   0.769   0.773
 47 B1g  57 B3u  17 B1u  60 Ag   58 B3u  17 B2g  12 B3g  48 B1g                
  0.777   0.783   0.786   0.788   0.789   0.795   0.795   0.798
 18 B1u  49 B1g  50 B2u  12 Au   59 B3u  61 Ag   18 B2g  51 B2u                
  0.799   0.801   0.805   0.809   0.810   0.811   0.811   0.815
 52 B2u  19 B1u  50 B1g  60 B3u  53 B2u  51 B1g  13 B3g  62 Ag                 
  0.816   0.821   0.821   0.824   0.827   0.828   0.830   0.833
 61 B3u  63 Ag   62 B3u  20 B1u  19 B2g  52 B1g  64 Ag   54 B2u                
  0.835   0.835   0.836   0.837   0.848   0.854   0.864   0.865
 13 Au   63 B3u  65 Ag   53 B1g  66 Ag   64 B3u  14 B3g  21 B1u                
  0.868   0.872   0.873   0.878   0.883   0.883   0.895   0.914
 55 B2u  14 Au   20 B2g  56 B2u  54 B1g  15 B3g  15 Au   67 Ag                 
  0.920   0.923   0.925   0.927   0.931   0.934   0.945   0.952
 21 B2g  22 B1u  55 B1g  65 B3u  22 B2g  23 B1u  16 B3g  24 B1u                
  0.956   0.959   0.984   0.995   0.995   1.001   1.002   1.007
 16 Au   17 B3g  23 B2g  57 B2u  17 Au   66 B3u  68 Ag   69 Ag                 
  1.008   1.008   1.010   1.018   1.025   1.040   1.046   1.047
 18 B3g  67 B3u  24 B2g  25 B1u  56 B1g  25 B2g  19 B3g  18 Au                 
  1.055   1.055   1.058   1.058   1.063   1.066   1.070   1.079
 26 B1u  70 Ag   57 B1g  58 B2u  19 Au   58 B1g  59 B2u  71 Ag                 
  1.080   1.092   1.092   1.094   1.103   1.103   1.104   1.107
 68 B3u  72 Ag   60 B2u  69 B3u  61 B2u  70 B3u  59 B1g  60 B1g                
  1.107   1.108   1.111   1.113   1.114   1.117   1.121   1.124
 73 Ag   26 B2g  62 B2u  74 Ag   71 B3u  20 B3g  72 B3u  75 Ag                 
  1.125   1.127   1.133   1.135   1.142   1.149   1.149   1.150
 61 B1g  63 B2u  73 B3u  20 Au   76 Ag   64 B2u  27 B1u  62 B1g                
  1.164   1.183   1.187   1.189   1.193   1.197   1.200   1.200
 74 B3u  63 B1g  65 B2u  77 Ag   64 B1g  27 B2g  75 B3u  66 B2u                
  1.205   1.206   1.208   1.212   1.218   1.219   1.222   1.226
 76 B3u  78 Ag   65 B1g  67 B2u  77 B3u  66 B1g  79 Ag   68 B2u                
  1.236   1.245   1.246   1.251   1.260   1.271   1.275   1.284
 80 Ag   67 B1g  81 Ag   78 B3u  28 B1u  79 B3u  69 B2u  68 B1g                
  1.296   1.297   1.305   1.309   1.316   1.321   1.335   1.340
 80 B3u  28 B2g  82 Ag   70 B2u  69 B1g  71 B2u  81 B3u  21 B3g                
  1.345   1.347   1.349   1.352   1.355   1.373   1.377   1.377
 70 B1g  83 Ag   21 Au   82 B3u  84 Ag   29 B1u  72 B2u  71 B1g                
  1.379   1.386   1.388   1.403   1.408   1.410   1.411   1.414
 83 B3u  29 B2g  73 B2u  30 B1u  85 Ag   72 B1g  84 B3u  30 B2g                
  1.414   1.452   1.460   1.460   1.465   1.469   1.473   1.473
 74 B2u  73 B1g  22 B3g  75 B2u  86 Ag   74 B1g  76 B2u  22 Au                 
  1.486   1.487   1.498   1.503   1.505   1.509   1.511   1.514
 85 B3u  77 B2u  87 Ag   23 B3g  75 B1g  23 Au   88 Ag   31 B1u                
  1.514   1.515   1.515   1.529   1.531   1.534   1.535   1.544
 86 B3u  24 B3g  31 B2g  89 Ag   78 B2u  76 B1g  87 B3u  25 B3g                
  1.554   1.563   1.571   1.578   1.580   1.584   1.586   1.608
 24 Au   77 B1g  90 Ag   32 B1u  79 B2u  88 B3u  89 B3u  80 B2u                
  1.623   1.624   1.629   1.631   1.645   1.645   1.647   1.665
 26 B3g  91 Ag   90 B3u  25 Au   32 B2g  78 B1g  33 B1u  33 B2g                
  1.675   1.683   1.683   1.685   1.691   1.704   1.705   1.705
 92 Ag   34 B1u  27 B3g  26 Au   91 B3u  93 Ag   92 B3u  28 B3g                
  1.714   1.728   1.733   1.733   1.736   1.737   1.739   1.757
 79 B1g  27 Au   34 B2g  35 B1u  29 B3g  28 Au   93 B3u  36 B1u                
  1.757   1.763   1.764   1.767   1.776   1.779   1.785   1.795
 35 B2g  30 B3g  29 Au   94 Ag   81 B2u  80 B1g  82 B2u  95 Ag                 
  1.796   1.803   1.806   1.823   1.826   1.836   1.839   1.842
 83 B2u  94 B3u  81 B1g  82 B1g  96 Ag   84 B2u  95 B3u  97 Ag                 
  1.856   1.861   1.868   1.870   1.874   1.883   1.908   1.908
 85 B2u  83 B1g  96 B3u  98 Ag   84 B1g  97 B3u  86 B2u  99 Ag                 
  1.932   1.932   1.943   1.943   1.957   1.963   1.969   1.974
 36 B2g  37 B1u  85 B1g  37 B2g  30 Au   31 B3g 100 Ag   38 B1u                
  1.996   2.000   2.007   2.010   2.022   2.025   2.038   2.040
 38 B2g  87 B2u  98 B3u 101 Ag   86 B1g  39 B1u  99 B3u  88 B2u                
  2.050   2.056   2.064   2.077   2.084   2.088   2.090   2.090
 87 B1g 100 B3u 102 Ag   88 B1g  89 B2u  39 B2g  40 B1u  31 Au                 
  2.103   2.106   2.107   2.114   2.118   2.119   2.120   2.128
 90 B2u 103 Ag  101 B3u  89 B1g 104 Ag  102 B3u  91 B2u  32 B3g                
  2.129   2.140   2.153   2.159   2.172   2.177   2.185   2.202
 32 Au   90 B1g  92 B2u  91 B1g 105 Ag   40 B2g  93 B2u 103 B3u                
  2.207   2.208   2.211   2.221   2.223   2.230   2.232   2.237
104 B3u 106 Ag   92 B1g 107 Ag   41 B1u 105 B3u  94 B2u  95 B2u                
  2.246   2.247   2.259   2.270   2.277   2.278   2.278   2.283
108 Ag   93 B1g 106 B3u  33 B3g 107 B3u 109 Ag   96 B2u  94 B1g                
  2.289   2.292   2.294   2.295   2.297   2.301   2.302   2.305
110 Ag   34 B3g  33 Au   95 B1g  97 B2u 108 B3u  41 B2g 111 Ag                 
  2.309   2.316   2.320   2.327   2.342   2.347   2.367   2.374
 42 B1u  34 Au  109 B3u 110 B3u  96 B1g 112 Ag  113 Ag  111 B3u                
  2.379   2.386   2.387   2.392   2.392   2.393   2.397   2.399
 98 B2u  42 B2g 114 Ag   43 B1u  99 B2u  43 B2g 112 B3u  97 B1g                
  2.401   2.409   2.412   2.421   2.425   2.448   2.456   2.467
 44 B1u  35 B3g 113 B3u 100 B2u 115 Ag   98 B1g  99 B1g 114 B3u                
  2.484   2.486   2.507   2.507   2.515   2.517   2.532   2.532
 35 Au  101 B2u  44 B2g  45 B1u  36 B3g  46 B1u 100 B1g 116 Ag                 
  2.535   2.537   2.552   2.561   2.561   2.562   2.565   2.577
102 B2u  45 B2g 115 B3u 101 B1g  37 B3g  36 Au   46 B2g 103 B2u                
  2.586   2.588   2.588   2.600   2.604   2.607   2.613   2.613
102 B1g 104 B2u 117 Ag   37 Au  116 B3u  38 B3g 118 Ag   47 B1u                
  2.620   2.630   2.636   2.638   2.641   2.649   2.653   2.659
103 B1g  39 B3g 119 Ag   38 Au  117 B3u  48 B1u  47 B2g  48 B2g                
  2.659   2.667   2.677   2.681   2.687   2.690   2.700   2.709
 49 B1u 104 B1g  40 B3g 105 B2u  39 Au  118 B3u  41 B3g  40 Au                 
  2.710   2.719   2.724   2.732   2.742   2.753   2.770   2.792
106 B2u 105 B1g  49 B2g 120 Ag  119 B3u 107 B2u 106 B1g 121 Ag                 
  2.803   2.832   2.832   2.840   2.846   2.847   2.850   2.860
120 B3u 122 Ag   41 Au  108 B2u 121 B3u 122 B3u  42 B3g  50 B1u                
  2.870   2.894   2.895   2.923   2.935   2.939   2.942   2.960
123 Ag   51 B1u  50 B2g  42 Au   51 B2g  43 B3g 107 B1g 109 B2u                
  2.962   2.973   2.973   2.975   2.976   2.978   2.989   3.007
124 Ag  123 B3u  43 Au  124 B3u 108 B1g 125 Ag   44 B3g 110 B2u                
  3.012   3.013   3.033   3.058   3.066   3.087   3.090   3.098
 52 B1u  44 Au   52 B2g 126 Ag  111 B2u 109 B1g 112 B2u 125 B3u                
  3.099   3.105   3.106   3.116   3.118   3.129   3.130   3.149
110 B1g 127 Ag  111 B1g 126 B3u 128 Ag  113 B2u 112 B1g 127 B3u                
  3.159   3.174   3.188   3.190   3.194   3.211   3.234   3.246
129 Ag  114 B2u 115 B2u 113 B1g 128 B3u 114 B1g 130 Ag  115 B1g                
  3.249   3.251   3.254   3.275   3.280   3.280   3.296   3.322
131 Ag  116 B2u 129 B3u 117 B2u 130 B3u 132 Ag  116 B1g 133 Ag                 
  3.340   3.365   3.370   3.371   3.393   3.432   3.442   3.468
131 B3u 117 B1g 118 B2u 134 Ag  132 B3u 118 B1g 119 B2u 135 Ag                 
  3.472   3.496   3.542   3.557   3.560   3.605   3.662   3.674
133 B3u 134 B3u 136 Ag  119 B1g 135 B3u 120 B2u 121 B2u 120 B1g                
  3.694   3.745   3.756   3.797   3.818   3.896   3.897   3.953
136 B3u 137 Ag  121 B1g 137 B3u 138 Ag  138 B3u 122 B2u 122 B1g                
  4.160   4.176   4.272   4.324   4.512   4.515   4.520   4.524
139 Ag  139 B3u 140 Ag  140 B3u 141 Ag  141 B3u 123 B2u 123 B1g                
  4.532   4.532   4.539   4.542   4.547   4.551   4.574   4.588
142 Ag  124 B2u 142 B3u 143 Ag  124 B1g 125 B2u 143 B3u 125 B1g                
  4.598   4.608   4.621   4.645   4.648   4.670   4.687   4.701
126 B2u 144 Ag  126 B1g 145 Ag  144 B3u 127 B2u 145 B3u 146 Ag                 
  4.712   4.714   4.726   4.755   4.819   4.821   4.853   4.887
146 B3u 127 B1g 147 Ag  128 B2u 147 B3u 128 B1g 129 B2u 148 Ag                 
  4.895   4.910   4.959   4.969   4.970   4.973   4.974   5.032
148 B3u 129 B1g 130 B2u 131 B2u 149 Ag  149 B3u 130 B1g 131 B1g                
  5.051   5.119   5.120   5.240   5.247   5.255   5.341   5.398
150 Ag  151 Ag  150 B3u 132 B2u 132 B1g 151 B3u 152 Ag  152 B3u                
 --------------------------------------------------------------
 
          Ground-State Mulliken Net Atomic Charges

     Atom                 Charge (a.u.)
  ----------------------------------------
      1 H                     0.210966
      2 H                     0.210966
      3 H                     0.204042
      4 H                     0.204042
      5 H                     0.202975
      6 H                     0.202975
      7 H                     0.212162
      8 H                     0.212162
      9 H                     0.212162
     10 H                     0.212162
     11 H                     0.202975
     12 H                     0.202975
     13 H                     0.204042
     14 H                     0.204042
     15 H                     0.210966
     16 H                     0.210966
     17 B                     0.450869
     18 B                     0.396830
     19 B                     0.396830
     20 B                     0.450869
     21 H                     0.196142
     22 H                     0.196142
     23 C                    -0.202612
     24 C                    -0.202612
     25 C                    -0.216577
     26 C                    -0.143430
     27 C                    -0.216577
     28 C                     0.011313
     29 C                     0.011313
     30 C                    -0.194923
     31 C                    -0.148699
     32 C                    -0.148699
     33 C                    -0.194923
     34 C                    -0.201199
     35 C                    -0.141025
     36 C                    -0.141025
     37 C                    -0.201199
     38 C                     0.035868
     39 C                     0.035868
     40 C                    -0.260454
     41 C                    -0.144965
     42 C                    -0.260454
     43 C                     0.012367
     44 C                     0.012367
     45 C                     0.012367
     46 C                     0.012367
     47 C                    -0.260454
     48 C                    -0.144965
     49 C                    -0.260454
     50 C                     0.035868
     51 C                     0.035868
     52 C                    -0.201199
     53 C                    -0.141025
     54 C                    -0.141025
     55 C                    -0.201199
     56 C                    -0.194923
     57 C                    -0.148699
     58 C                    -0.148699
     59 C                    -0.194923
     60 C                     0.011313
     61 C                     0.011313
     62 C                    -0.216577
     63 C                    -0.143430
     64 C                    -0.216577
     65 C                    -0.202612
     66 C                    -0.202612
     67 H                     0.196142
     68 H                     0.196142
  ----------------------------------------
  Sum of atomic charges =     0.000000

 -----------------------------------------------------------------
                    Cartesian Multipole Moments
 -----------------------------------------------------------------
    Charge (ESU x 10^10)
                 0.0000
    Dipole Moment (Debye)
         X       0.0000      Y      -0.0000      Z       0.0000
       Tot       0.0000
    Quadrupole Moments (Debye-Ang)
        XX    -221.5630     XY       0.0000     YY    -234.6966
        XZ      -0.0000     YZ      -0.0000     ZZ    -285.4577
    Octopole Moments (Debye-Ang^2)
       XXX       0.0000    XXY      -0.0000    XYY       0.0000
       YYY      -0.0000    XXZ       0.0000    XYZ       0.0000
       YYZ       0.0000    XZZ       0.0000    YZZ       0.0000
       ZZZ       0.0000
    Hexadecapole Moments (Debye-Ang^3)
      XXXX  -34097.2549   XXXY       0.0000   XXYY   -6988.4344
      XYYY       0.0000   YYYY   -8100.4569   XXXZ       0.0000
      XXYZ      -0.0000   XYYZ       0.0000   YYYZ       0.0000
      XXZZ   -7145.8387   XYZZ       0.0000   YYZZ   -1738.9644
      XZZZ       0.0000   YZZZ       0.0000   ZZZZ    -313.0969
 -----------------------------------------------------------------
 Total job time:  19308.81s(wall), 19063.29s(cpu) 
 Tue Apr 16 15:00:49 2024

======= MOLDEN-FORMATTED INPUT FILE FOLLOWS =======
[Molden Format]
[Atoms] (Angs)
  H      1    1      7.76943300     -3.40591000      0.00000000
  H      2    1      7.76943300      3.40591000     -0.00000000
  H      3    1      5.56499700     -4.73322800      0.00000000
  H      4    1      5.56499700      4.73322800     -0.00000000
  H      5    1      3.11978300     -4.73353700      0.00000000
  H      6    1      3.11978300      4.73353700     -0.00000000
  H      7    1      0.96103500     -3.42287700      0.00000000
  H      8    1      0.96103500      3.42287700     -0.00000000
  H      9    1     -0.96103500     -3.42287700      0.00000000
  H     10    1     -0.96103500      3.42287700     -0.00000000
  H     11    1     -3.11978300     -4.73353700      0.00000000
  H     12    1     -3.11978300      4.73353700     -0.00000000
  H     13    1     -5.56499700     -4.73322800      0.00000000
  H     14    1     -5.56499700      4.73322800     -0.00000000
  H     15    1     -7.76943300     -3.40591000      0.00000000
  H     16    1     -7.76943300      3.40591000     -0.00000000
  B     17    5      5.78570800      0.00000000     -0.00000000
  B     18    5      2.90123600      0.00000000     -0.00000000
  B     19    5     -2.90123600      0.00000000      0.00000000
  B     20    5     -5.78570800      0.00000000      0.00000000
  H     21    1      9.01977900     -1.34997000     -0.00000000
  H     22    1      9.01977900      1.34997000     -0.00000000
  C     23    6      7.93161400     -1.27178800      0.00000000
  C     24    6      7.93161400      1.27178800     -0.00000000
  C     25    6      7.20485900     -2.47558600      0.00000000
  C     26    6      7.30893700      0.00000000     -0.00000000
  C     27    6      7.20485900      2.47558600     -0.00000000
  C     28    6      5.78238700     -2.55985100      0.00000000
  C     29    6      5.78238700      2.55985100     -0.00000000
  C     30    6      5.03154500     -3.78544100      0.00000000
  C     31    6      5.04113900     -1.34379200      0.00000000
  C     32    6      5.04113900      1.34379200     -0.00000000
  C     33    6      5.03154500      3.78544100     -0.00000000
  C     34    6      3.65431100     -3.78626800      0.00000000
  C     35    6      3.65146000     -1.34083200      0.00000000
  C     36    6      3.65146000      1.34083200     -0.00000000
  C     37    6      3.65431100      3.78626800     -0.00000000
  C     38    6      2.90384500     -2.55714600      0.00000000
  C     39    6      2.90384500      2.55714600     -0.00000000
  C     40    6      1.49766300     -2.47944300      0.00000000
  C     41    6      1.39251200      0.00000000     -0.00000000
  C     42    6      1.49766300      2.47944300     -0.00000000
  C     43    6      0.72674400     -1.26567800      0.00000000
  C     44    6      0.72674400      1.26567800     -0.00000000
  C     45    6     -0.72674400     -1.26567800      0.00000000
  C     46    6     -0.72674400      1.26567800     -0.00000000
  C     47    6     -1.49766300     -2.47944300      0.00000000
  C     48    6     -1.39251200     -0.00000000      0.00000000
  C     49    6     -1.49766300      2.47944300     -0.00000000
  C     50    6     -2.90384500     -2.55714600      0.00000000
  C     51    6     -2.90384500      2.55714600     -0.00000000
  C     52    6     -3.65431100     -3.78626800      0.00000000
  C     53    6     -3.65146000     -1.34083200      0.00000000
  C     54    6     -3.65146000      1.34083200     -0.00000000
  C     55    6     -3.65431100      3.78626800     -0.00000000
  C     56    6     -5.03154500     -3.78544100      0.00000000
  C     57    6     -5.04113900     -1.34379200      0.00000000
  C     58    6     -5.04113900      1.34379200     -0.00000000
  C     59    6     -5.03154500      3.78544100     -0.00000000
  C     60    6     -5.78238700     -2.55985100      0.00000000
  C     61    6     -5.78238700      2.55985100     -0.00000000
  C     62    6     -7.20485900     -2.47558600      0.00000000
  C     63    6     -7.30893700     -0.00000000      0.00000000
  C     64    6     -7.20485900      2.47558600     -0.00000000
  C     65    6     -7.93161400     -1.27178800      0.00000000
  C     66    6     -7.93161400      1.27178800     -0.00000000
  H     67    1     -9.01977900     -1.34997000      0.00000000
  H     68    1     -9.01977900      1.34997000      0.00000000

======= END OF MOLDEN-FORMATTED INPUT FILE =======


        *************************************************************
        *                                                           *
        *  Thank you very much for using Q-Chem.  Have a nice day.  *
        *                                                           *
        *************************************************************


