                  Welcome to Q-Chem
     A Quantum Leap Into The Future Of Chemistry


 Q-Chem 6.0 (devel), Q-Chem, Inc., Pleasanton, CA (2022)

 E. Epifanovsky,  A. T. B. Gilbert,  Xintian Feng,  Joonho Lee,  Yuezhi Mao,  
 N. Mardirossian,  P. Pokhilko,  A. White,  M. Wormit,  M. P. Coons,  
 A. L. Dempwolff,  Zhengting Gan,  D. Hait,  P. R. Horn,  L. D. Jacobson,  
 I. Kaliman,  J. Kussmann,  A. W. Lange,  Ka Un Lao,  D. S. Levine,  Jie Liu,  
 S. C. McKenzie,  A. F. Morrison,  K. Nanda,  F. Plasser,  D. R. Rehn,  
 M. L. Vidal,  Zhi-Qiang You,  Ying Zhu,  B. Alam,  B. Albrecht,  
 A. Aldossary,  E. Alguire,  J. H. Andersen,  V. Athavale,  D. Barton,  
 K. Begam,  A. Behn,  N. Bellonzi,  Y. A. Bernard,  E. J. Berquist,  
 H. Burton,  A. Carreras,  K. Carter-Fenk,  Romit Chakraborty,  
 Chandrima Chakravarty,  Junhan Chen,  A. D. Chien,  K. D. Closser,  
 V. Cofer-Shabica,  L. Cunha,  S. Dasgupta,  Jia Deng,  M. de Wergifosse,  
 M. Diedenhofen,  Hainam Do,  S. Ehlert,  Po-Tung Fang,  S. Fatehi,  
 Qingguo Feng,  T. Friedhoff,  B. Ganoe,  J. Gayvert,  Qinghui Ge,  
 G. Gidofalvi,  M. Goldey,  J. Gomes,  C. Gonzalez-Espinoza,  S. Gulania,  
 A. Gunina,  J. A. Gyamfi,  M. W. D. Hanson-Heine,  P. H. P. Harbach,  
 A. W. Hauser,  M. F. Herbst,  M. Hernandez Vera,  M. Hodecker,  
 Z. C. Holden,  S. Houck,  Xunkun Huang,  Kerwin Hui,  B. C. Huynh,  
 K. Ikeda,  M. Ivanov,  Hyunjun Ji,  Zuxin Jin,  Hanjie Jiang,  B. Kaduk,  
 S. Kaehler,  R. Kang,  K. Khistyaev,  Jaehoon Kim,  Yongbin Kim,  
 P. Klunzinger,  Z. Koczor-Benda,  Joong Hoon Koh,  D. Kosenkov,  
 Saikiran Kotaru,  L. Koulias,  T. Kowalczyk,  C. M. Krauter,  K. Kue,  
 A. Kunitsa,  T. Kus,  A. Landau,  K. V. Lawler,  D. Lefrancois,  S. Lehtola,  
 Rain Li,  Shaozhi Li,  Yi-Pei Li,  Jiashu Liang,  M. Liebenthal,  
 Hung-Hsuan Lin,  You-Sheng Lin,  Fenglai Liu,  Kuan-Yu Liu,  
 M. Loipersberger,  A. Luenser,  C. Malbon,  A. Manjanath,  P. Manohar,  
 E. Mansoor,  S. F. Manzer,  Shan-Ping Mao,  A. V. Marenich,  T. Markovich,  
 S. Mason,  F. Matz,  S. A. Maurer,  P. F. McLaughlin,  M. F. S. J. Menger,  
 J.-M. Mewes,  S. A. Mewes,  P. Morgante,  Mohammad Mostafanejad,  
 J. W. Mullinax,  K. J. Oosterbaan,  G. Paran,  V. Parravicini,  
 Alexander C. Paul,  Suranjan K. Paul,  F. Pavosevic,  Zheng Pei,  S. Prager,  
 E. I. Proynov,  E. Ramos,  B. Rana,  A. E. Rask,  A. Rettig,  R. M. Richard,  
 F. Rob,  E. Rossomme,  T. Scheele,  M. Scheurer,  M. Schneider,  
 P. E. Schneider,  N. Sergueev,  S. M. Sharada,  Hengyuan Shen,  
 W. Skomorowski,  D. W. Small,  C. J. Stein,  Yingli Su,  Yu-Chuan Su,  
 E. J. Sundstrom,  Zhen Tao,  J. Thirman,  Hung-Yi Tsai,  T. Tsuchimochi,  
 N. M. Tubman,  C. Utku,  S. P. Veccham,  O. Vydrov,  J. Wenzel,  
 Jonathan Wong,  J. Witte,  A. Yamada,  Chou-Hsun Yang,  Kun Yao,  
 S. Yeganeh,  S. R. Yost,  A. Zech,  F. Zeller,  Igor Ying Zhang,  
 Xing Zhang,  Yu Zhang,  D. Zuev,  A. Aspuru-Guzik,  A. T. Bell,  
 N. A. Besley,  K. B. Bravaya,  B. R. Brooks,  D. Casanova,  Jeng-Da Chai,  
 Hsing-Ta Chen,  S. Coriani,  C. J. Cramer,  A. E. DePrince, III,  
 R. A. DiStasio Jr.,  A. Dreuw,  B. D. Dunietz,  T. R. Furlani,  
 W. A. Goddard III,  S. Grimme,  S. Hammes-Schiffer,  T. Head-Gordon,  
 W. J. Hehre,  Chao-Ping Hsu,  T.-C. Jagau,  Yousung Jung,  A. Klamt,  
 Jing Kong,  D. S. Lambrecht,  Xiangyuan Li,  WanZhen Liang,  N. J. Mayhall,  
 C. W. McCurdy,  J. B. Neaton,  T. Neudecker,  C. Ochsenfeld,  
 J. A. Parkhill,  R. Peverati,  V. A. Rassolov,  Haisheng Ren,  Yihan Shao,  
 L. V. Slipchenko,  R. P. Steele,  J. E. Subotnik,  A. J. W. Thom,  
 A. Tkatchenko,  D. G. Truhlar,  T. Van Voorhis,  Fan Wang,  
 T. A. Wesolowski,  K. B. Whaley,  H. L. Woodcock III,  P. M. Zimmerman,  
 S. Faraji,  P. M. W. Gill,  M. Head-Gordon,  J. M. Herbert,  A. I. Krylov

 Contributors to earlier versions of Q-Chem not listed above: 
 R. D. Adamson,  B. Austin,  R. Baer,  J. Baker,  G. J. O. Beran,  
 K. Brandhorst,  S. T. Brown,  E. F. C. Byrd,  Arup K. Chakraborty,  
 G. K. L. Chan,  Chun-Min Chang,  Yunqing Chen,  C.-L. Cheng,  
 Siu Hung Chien,  D. M. Chipman,  D. L. Crittenden,  H. Dachsel,  
 R. J. Doerksen,  A. D. Dutoi,  R. G. Edgar,  J. Fosso-Tande,  
 L. Fusti-Molnar,  D. Ghosh,  A. Ghysels,  A. Golubeva-Zadorozhnaya,  
 J. Gonthier,  M. S. Gordon,  S. R. Gwaltney,  G. Hawkins,  J. E. Herr,  
 A. Heyden,  S. Hirata,  E. G. Hohenstein,  G. Kedziora,  F. J. Keil,  
 C. Kelley,  Jihan Kim,  R. A. King,  R. Z. Khaliullin,  P. P. Korambath,  
 W. Kurlancheek,  A. Laurent,  A. M. Lee,  M. S. Lee,  S. V. Levchenko,  
 Ching Yeh Lin,  D. Liotard,  E. Livshits,  R. C. Lochan,  I. Lotan,  
 L. A. Martinez-Martinez,  P. E. Maslen,  N. Nair,  D. P. O'Neill,  
 D. Neuhauser,  E. Neuscamman,  C. M. Oana,  R. Olivares-Amaya,  R. Olson,  
 T. M. Perrine,  B. Peters,  P. A. Pieniazek,  A. Prociuk,  Y. M. Rhee,  
 J. Ritchie,  M. A. Rohrdanz,  E. Rosta,  N. J. Russ,  H. F. Schaefer III,  
 M. W. Schmidt,  N. E. Schultz,  S. Sharma,  N. Shenvi,  C. D. Sherrill,  
 A. C. Simmonett,  A. Sodt,  T. Stein,  D. Stuck,  K. S. Thanthiriwatte,  
 V. Vanovschi,  L. Vogt,  Tao Wang,  A. Warshel,  M. A. Watson,  
 C. F. Williams,  Q. Wu,  X. Xu,  Jun Yang,  W. Zhang,  Yan Zhao

   Please cite Q-Chem as follows:
  "Software for the frontiers of quantum chemistry:
   An overview of developments in the Q-Chem 5 package"
   J. Chem. Phys. 155, 084801 (2021)
   https://doi.org/10.1063/5.0055522 (open access)

 Q-Chem 6.0.1 for Intel X86 EM64T Linux

 Parts of Q-Chem use Armadillo 9.900.5 (Nocturnal Misbehaviour).
 http://arma.sourceforge.net/

 Q-Chem begins on Tue Apr 16 09:39:00 2024  

 Host: atlas-313
0

     Scratch files written to ./qchem39891//
 Processing $rem in /scratch/abel/SOFTWARE/qchem/config/preferences:
 Processing $rem in /dipc/acebg/.qchemrc:

 Checking the input file for inconsistencies... 	...done.

--------------------------------------------------------------
User input:
--------------------------------------------------------------
$comment
 RAS-SF CALCULATION
$end

$molecule
READ C44H20B4_singlet.molecule
$end

$rem
!**CALCULATION TYPE***     
JOBTYPE            sp    
EXCHANGE           HF
CORRELATION        RASCI    !RASCI=Casanova; RASCI2=Zimmerman
BASIS              6-31G*
BASIS2             STO-3G

!***SCF REFERENCE***
!SKIP_SCFMAN        FALSE
UNRESTRICTED       FALSE
!SCF_GUESS          core
!SCF_GUESS_MIX      FALSE
!SCF_GUESS_ALWAYS   FALSE
MAX_SCF_CYCLES      999
SCF_CONVERGENCE    10
SCF_ALGORITHM      DIIS_GDM !DIIS,DM,DIIS_DM,GDM,DIIS_GDM,GD

!SYMMETRY           TRUE   !use of symmetry for calculating integrals
!SYM_IGNORE         FALSE  !turn off using symmetry
!SYM_TOL            5      !tolerance for determining point group
!USE_ABELIAN_SUBGROUP      !define to use abelian group

!THRESH             14
!SCF_FINAL_PRINT     1 !0,1,2,3

!****RAS-SF****
RAS_ROOTS          20       !number of RAS-CI roots to be computed
SET_ITER           150     !number of iterations in RASCI
RAS_ELEC 8
RAS_ELEC_ALPHA 5
RAS_ELEC_BETA 3

RAS_ACT 8
RAS_ACT_ORB [149, 150, 151, 152, 153, 154, 155, 156]
RAS_OCC 148
N_FROZEN_CORE      FC     !Number of frozen core orbitals
N_FROZEN_VIRTUAL   0      !Number of frozen virtual orbitals

!RAS_DO_HOLE        TRUE   !presence of hole excitations in RAS-CI wave function
!RAS_DO_PART        TRUE   !presence of particle excitations
!RAS_AMPL_PRINT     10     !threshold (×10 2 ) for the CI amplitudes

!RAS_GUESS_CS       0      !number of closed shell guess conﬁgurations
!RAS_SPIN_MULT      0      !spin multiplicity. Only for Ms = 0 
!RAS_SRDFT          FALSE  !short-range density functional RAS-CI
!RAS_NFRAG          0     !fragments of excitation analysis in RASCI

RAS_PRINT          2      !level of information
!RAS_NATORB         TRUE   !computation of the natural orbital occupancies
!RAS_NATORB_STATE  0      !Saves NO of i RAS computed state in .fchk ﬁle
!RAS_FOD            TRUE

!****RAS-SOC****
CALC_SOC           TRUE   !calculate SOC for EOM-CC, RAS-CI, ADC, TDDFT/TDA and TDDFT
!RAS_SOC_2E        TRUE   !two-electron mean-ﬁeld contribution, default=true
RAS_SOC_SYM_DENS   TRUE   !averaging of α and β densities

!****MEMORY****
MEM_TOTAL          60000 !Default 2000 MB
MEM_STATIC         20000  !Default 64 MB

!**Molecular Properties and Analysis **                                                                                          
!POP_MULLIKEN       TRUE   !Run Mulliken population analysis
!LOWDIN_POPULATION  TRUE   !Run Löwdin population analysis
GUI                0       !Checkpoints generation
STATE_ANALYSIS     TRUE

!**Wave function analysis of RAS-CI states: MOLDEN**
!PLOTS = 0     ! Note: This can be omitted, default is 0
!NTO_PAIRS = 2 ! Note: This can be omitted, default is 2
!GUI 0
!MOLDEN_FORMAT      TRUE
!PRINT_ORBITALS     15

!**Wave function analysis of RAS-CI state: CUBE**
!NTO_PAIRS = 2 ! Note: This can be omitted, default is 2
!PLOTS = 1
!GUI 0

!**SR-DFT**
!RAS_SRDFT           TRUE !Perform short-range density functional RAS-CI
!RAS_SRDFT_EXC       0 !EX functional. 0=HF. 
!RAS_SRDFT_ONLY_COR  TRUE !No use of EXC functional
!RAS_SRDFT_COR       srPBE !short-range correlation functional
!ras_srdft_0         TRUE !true: no iteration (one-shot); false: iteration
!RAS_OMEGA           400 !Coulomb range-separation parameter. def=400
!RAS_SRDFT_DAMP     0.5 !dumping factor. def=0.5
$end

!$plots
!   grid_points 100 100 100
!   grid_range  (-10,10) (-10,10) (-10,10)
!$end

--------------------------------------------------------------
 ----------------------------------------------------------------
             Standard Nuclear Orientation (Angstroms)
    I     Atom           X                Y                Z
 ----------------------------------------------------------------
    1      H       7.7694330000    -3.4059100000     0.0000000000
    2      H       7.7694330000     3.4059100000    -0.0000000000
    3      H       5.5649970000    -4.7332280000     0.0000000000
    4      H       5.5649970000     4.7332280000    -0.0000000000
    5      H       3.1197830000    -4.7335370000     0.0000000000
    6      H       3.1197830000     4.7335370000    -0.0000000000
    7      H       0.9610350000    -3.4228770000     0.0000000000
    8      H       0.9610350000     3.4228770000    -0.0000000000
    9      H      -0.9610350000    -3.4228770000     0.0000000000
   10      H      -0.9610350000     3.4228770000    -0.0000000000
   11      H      -3.1197830000    -4.7335370000     0.0000000000
   12      H      -3.1197830000     4.7335370000    -0.0000000000
   13      H      -5.5649970000    -4.7332280000     0.0000000000
   14      H      -5.5649970000     4.7332280000    -0.0000000000
   15      H      -7.7694330000    -3.4059100000     0.0000000000
   16      H      -7.7694330000     3.4059100000    -0.0000000000
   17      B       5.7857080000     0.0000000000    -0.0000000000
   18      B       2.9012360000     0.0000000000    -0.0000000000
   19      B      -2.9012360000     0.0000000000     0.0000000000
   20      B      -5.7857080000     0.0000000000     0.0000000000
   21      H       9.0197790000    -1.3499700000    -0.0000000000
   22      H       9.0197790000     1.3499700000    -0.0000000000
   23      C       7.9316140000    -1.2717880000     0.0000000000
   24      C       7.9316140000     1.2717880000    -0.0000000000
   25      C       7.2048590000    -2.4755860000     0.0000000000
   26      C       7.3089370000     0.0000000000    -0.0000000000
   27      C       7.2048590000     2.4755860000    -0.0000000000
   28      C       5.7823870000    -2.5598510000     0.0000000000
   29      C       5.7823870000     2.5598510000    -0.0000000000
   30      C       5.0315450000    -3.7854410000     0.0000000000
   31      C       5.0411390000    -1.3437920000     0.0000000000
   32      C       5.0411390000     1.3437920000    -0.0000000000
   33      C       5.0315450000     3.7854410000    -0.0000000000
   34      C       3.6543110000    -3.7862680000     0.0000000000
   35      C       3.6514600000    -1.3408320000     0.0000000000
   36      C       3.6514600000     1.3408320000    -0.0000000000
   37      C       3.6543110000     3.7862680000    -0.0000000000
   38      C       2.9038450000    -2.5571460000     0.0000000000
   39      C       2.9038450000     2.5571460000    -0.0000000000
   40      C       1.4976630000    -2.4794430000     0.0000000000
   41      C       1.3925120000     0.0000000000    -0.0000000000
   42      C       1.4976630000     2.4794430000    -0.0000000000
   43      C       0.7267440000    -1.2656780000     0.0000000000
   44      C       0.7267440000     1.2656780000    -0.0000000000
   45      C      -0.7267440000    -1.2656780000     0.0000000000
   46      C      -0.7267440000     1.2656780000    -0.0000000000
   47      C      -1.4976630000    -2.4794430000     0.0000000000
   48      C      -1.3925120000    -0.0000000000     0.0000000000
   49      C      -1.4976630000     2.4794430000    -0.0000000000
   50      C      -2.9038450000    -2.5571460000     0.0000000000
   51      C      -2.9038450000     2.5571460000    -0.0000000000
   52      C      -3.6543110000    -3.7862680000     0.0000000000
   53      C      -3.6514600000    -1.3408320000     0.0000000000
   54      C      -3.6514600000     1.3408320000    -0.0000000000
   55      C      -3.6543110000     3.7862680000    -0.0000000000
   56      C      -5.0315450000    -3.7854410000     0.0000000000
   57      C      -5.0411390000    -1.3437920000     0.0000000000
   58      C      -5.0411390000     1.3437920000    -0.0000000000
   59      C      -5.0315450000     3.7854410000    -0.0000000000
   60      C      -5.7823870000    -2.5598510000     0.0000000000
   61      C      -5.7823870000     2.5598510000    -0.0000000000
   62      C      -7.2048590000    -2.4755860000     0.0000000000
   63      C      -7.3089370000    -0.0000000000     0.0000000000
   64      C      -7.2048590000     2.4755860000    -0.0000000000
   65      C      -7.9316140000    -1.2717880000     0.0000000000
   66      C      -7.9316140000     1.2717880000    -0.0000000000
   67      H      -9.0197790000    -1.3499700000     0.0000000000
   68      H      -9.0197790000     1.3499700000     0.0000000000
 ----------------------------------------------------------------
 Molecular Point Group                 D2h   NOp =  8
 Largest Abelian Subgroup              D2h   NOp =  8
 Nuclear Repulsion Energy =        4913.04836819 hartrees
 There are      152 alpha and      152 beta electrons
 Requested basis set is 6-31G(d)
 There are 232 shells and 760 basis functions

 Q-Chem warning in module libmdc/get_mega.C, line 167:

 Allowed MEM_STATIC has been capped at MEM_STATIC=8191.
 Reduce the value of MEM_STATIC to silence this warning.


 Total QAlloc Memory Limit  60000 MB
 Mega-Array Size      8007 MB
 MEM_STATIC part      8191 MB

 A cutoff of  1.0D-14 yielded  12507 shell pairs
 There are    150234 function pairs
 Smallest overlap matrix eigenvalue = 2.31E-04

 Scale SEOQF with 1.000000e-02/1.000000e-01/1.000000e+00

 Standard Electronic Orientation quadrupole field applied
 Nucleus-field energy     =     0.0000001511 hartrees
 Requested basis set is STO-3G
 There are 116 shells and 260 basis functions
 A cutoff of  1.0D-14 yielded   3224 shell pairs
 There are     20786 function pairs
 Smallest overlap matrix eigenvalue = 1.71E-01
 Guess from superposition of atomic densities
 Warning:  Energy on first SCF cycle will be non-variational
 SAD guess density has 304.000001 electrons
 A restricted Hartree-Fock SCF calculation will be
 performed using Pulay DIIS + Geometric Direct Minimization
 SCF converges when RMS gradient is below 1.0E-04
 ---------------------------------------
  Cycle       Energy         DIIS Error
 ---------------------------------------
    1   -1759.7272781497      7.30E-02
    2   -1754.5014429194      5.19E-03 Done DIIS. Switching to GDM
    3   -1754.8563664083      6.63E-02 Normal BFGS step
    4   -1754.8885207477      6.31E-02 Normal BFGS step
    5   -1754.9146724626      1.25E-02 Normal BFGS step
    6   -1754.9159238950      8.97E-03 Normal BFGS step
    7   -1754.9165587991      3.32E-03 Normal BFGS step
    8   -1754.9167369067      8.69E-04 Normal BFGS step
    9   -1754.9167530061      4.88E-04 Normal BFGS step
   10   -1754.9167561569      2.51E-04 Normal BFGS step
   11   -1754.9167568441      1.34E-04 Normal BFGS step
   12   -1754.9167570548      3.64E-05 Convergence criterion met
 ---------------------------------------
 SCF time:  CPU 36.76 s  wall 37.71 s
 SCF   energy in the small basis set = -1754.91675705
 Total energy in the small basis set = -1754.91675705
 ----------------------------------------------------
  Cycle       Energy    
 ----------------------------------------------------
    1    -226.6406150452     -2.27E+02
 A restricted Hartree-Fock SCF calculation will be
 performed using Pulay DIIS + Geometric Direct Minimization
 SCF converges when RMS gradient is below 1.0E-10
 ---------------------------------------
  Cycle       Energy        RMS Gradient
 ---------------------------------------
    1   -1775.7798399798      5.08E-03 Done DIIS. Switching to GDM
    2   -1776.1326731085      4.70E-01 Descent step
    3   -1776.5123892023      8.68E-02 Normal BFGS step
    4   -1776.5809190817      4.76E-02 Normal BFGS step
    5   -1776.5983271218      2.14E-02 Normal BFGS step
    6   -1776.6010006099      7.33E-03 Normal BFGS step
    7   -1776.6016924249      8.43E-03 Normal BFGS step
    8   -1776.6021782643      5.78E-03 Normal BFGS step
    9   -1776.6024917272      3.28E-03 Normal BFGS step
   10   -1776.6026764307      3.07E-03 Normal BFGS step
   11   -1776.6027698966      1.93E-03 Normal BFGS step
   12   -1776.6027994516      6.18E-04 Normal BFGS step
   13   -1776.6028054470      1.95E-04 Normal BFGS step
   14   -1776.6028064232      7.17E-05 Normal BFGS step
   15   -1776.6028065852      3.03E-05 Normal BFGS step
   16   -1776.6028066048      1.06E-05 Normal BFGS step
   17   -1776.6028066081      5.21E-06 Normal BFGS step
   18   -1776.6028066086      2.06E-06 Normal BFGS step
   19   -1776.6028066087      7.43E-07 Normal BFGS step
   20   -1776.6028066087      2.38E-07 Normal BFGS step
   21   -1776.6028066087      1.26E-07 Normal BFGS step
   22   -1776.6028066087      9.03E-08 Normal BFGS step
   GDM::WARNING energy changes are now smaller than effective accuracy.
   GDM::        calculation will continue, but THRESH should be increased
   GDM::        or SCF_CONVERGENCE decreased.
   GDM::        effective_thresh =   2.875985474076748E-009
   23   -1776.6028066087      2.98E-08 Normal BFGS step
   GDM::WARNING energy changes are now smaller than effective accuracy.
   GDM::        calculation will continue, but THRESH should be increased
   GDM::        or SCF_CONVERGENCE decreased.
   GDM::        effective_thresh =   2.875985474076748E-009
   24   -1776.6028066087      1.07E-08 Normal BFGS step
   GDM::WARNING energy changes are now smaller than effective accuracy.
   GDM::        calculation will continue, but THRESH should be increased
   GDM::        or SCF_CONVERGENCE decreased.
   GDM::        effective_thresh =   2.875985474076748E-009
   25   -1776.6028066087      5.41E-09 Normal BFGS step
   26   -1776.6028066087      1.52E-09 Normal BFGS step
   GDM::WARNING energy changes are now smaller than effective accuracy.
   GDM::        calculation will continue, but THRESH should be increased
   GDM::        or SCF_CONVERGENCE decreased.
   GDM::        effective_thresh =   2.875985474076748E-009
   27   -1776.6028066087      6.27E-10 Normal BFGS step
   GDM::WARNING energy changes are now smaller than effective accuracy.
   GDM::        calculation will continue, but THRESH should be increased
   GDM::        or SCF_CONVERGENCE decreased.
   GDM::        effective_thresh =   2.875985474076748E-009
   28   -1776.6028066087      3.99E-10 Normal BFGS step
   29   -1776.6028066087      2.18E-10 Normal BFGS step
   GDM::WARNING energy changes are now smaller than effective accuracy.
   GDM::        calculation will continue, but THRESH should be increased
   GDM::        or SCF_CONVERGENCE decreased.
   GDM::        effective_thresh =   2.875985474076748E-009
   30   -1776.6028066087      2.04E-10 Normal BFGS step
   GDM::WARNING dE/dT very small =   2.229476915115553E-012
        Return without modification 
   31   -1776.6028066087      8.40E-11 Convergence criterion met
 ---------------------------------------
 SCF time:  CPU 2036.83 s  wall 2057.83 s
 SCF   energy in the final basis set = -1776.60280661
 Total energy in the final basis set = -1776.60280661
  
     ##========================================##
     ||                                        ||
     ||              R A S M A N 2             ||
     ||________________________________________||
     ||                                        ||
     ||  Author:                               ||
     ||                                        ||
     ||        David Casanova (2010)           ||
     ||                                        ||
     ##========================================##
  
Setting single-point xc-functionals (if necessary)

  ***************************************************
  *  RAS-CI Dimensions:                             *
  *                                                 *
  *  Active Elec.:   8 ( 5, 3)   Active Orb.:   8   *
  *  Doubly Occ. : 148           Doubly Vir.: 604   *
  *  Frozen Occ. :  48           Frozen Vir.:   0   *
  *                                                 *
  *  Total CI configurations:   3866688             * 
  *    Active configurations:      3136             * 
  *      Hole configurations:    548800             * 
  *  Particle configurations:   3314752             * 
  *                                                 *
  *   Requested states:       20                    *
  *  Spin multiplicity: Any multiplicity            *
  *                                                 *
  ***************************************************
-----------------------------------------
    Memory requirements of RASCI

 Each CI-vector requires     29.50 MiB 
 Max. subspace vectors           3000      

 Reduced Lists                0.00 MiB 
 Excitation Lists             0.00 MiB 
 Excitation Lists Sign        0.00 MiB 
 CI-space (Max)           89160.16 MiB 
 Integrals                  403.94 MiB 
 Memory required (Max)    89160.17 MiB 
 Memory available          7811.55 MiB 

 Q-Chem warning in module rasman2/ras_mem_check.C, line 162:

 Static memory may be insufficient to store the subspace vectors


    Disk requirements of RASCI

 Fock matrix                  8.81 MiB 
 2-electron integrals       796.61 MiB 
 CI-space                177002.93 MiB 
 Disk required           177808.35 MiB 
-----------------------------------------
  
RAS1 HF-like energy:          -1771.8203322223
 Computing integrals
 Computing J and K matrices
 Computing addressing
 Making amplitude guesses
 
Direct CI diagonalization
 ---------------------------------------------------
 Iter    Rts Conv    Rts Left    Ttl Dev     Max Dev
 ---------------------------------------------------
   1         0          20      0.001776    0.000099
   2         0          20      0.001042    0.000058
   3         0          20      0.000712    0.000043
   4         0          20      0.000560    0.000045
   5         0          20      0.000461    0.000042
   6         0          20      0.000382    0.000041
   7         0          20      0.000422    0.000062
   8         0          20      0.000414    0.000047
   9         0          20      0.000403    0.000047
  10         0          20      0.000411    0.000042
  11         0          20      0.000412    0.000049
  12         0          20      0.000411    0.000049
  13         1          19      0.000358    0.000040
  14         1          19      0.000332    0.000037
  15         3          17      0.000332    0.000043
  16         3          17      0.000358    0.000042
  17         4          16      0.000301    0.000041
  18         4          16      0.000219    0.000033
  19         4          16      0.000178    0.000027
  20         5          15      0.000136    0.000023
  21         5          15      0.000103    0.000019
  22         6          14      0.000079    0.000015
  23         6          14      0.000062    0.000013
  24         8          12      0.000049    0.000010
  25         9          11      0.000053    0.000017
  26         9          11      0.000042    0.000014
  27        11           9      0.000033    0.000011
  28        12           8      0.000027    0.000008
  29        14           6      0.000021    0.000007
  30        16           4      0.000018    0.000005
  31        18           2      0.000015    0.000004
  32        18           2      0.000014    0.000003
  33        18           2      0.000013    0.000003
  34        18           2      0.000012    0.000002
  35        19           1      0.000011    0.000002
  36        19           1      0.000010    0.000001
  37        19           1      0.000010    0.000001
  38        20           0      0.000010    0.000001    Roots Converged
 ---------------------------------------------------
   
**************************************************
 RAS-CI total energy for state   1:  -1776.674609691201
  Excitation energy (eV) =  0.000000000000
  State symmetry: B1g   (D2h      )
  <S^2>      :  2.0000
  Dipole Moment:   -0.0000 X     0.0000 Y    -0.0000 Z
 NATURAL OCCUPATION NUMBERS (higher than 1.0E-05)
            1           2           3           4           5           6
    1   2.0000000   2.0000000   2.0000000   2.0000000   2.0000000   2.0000000
            7           8           9          10          11          12
    1   2.0000000   2.0000000   2.0000000   2.0000000   2.0000000   2.0000000
           13          14          15          16          17          18
    1   2.0000000   2.0000000   2.0000000   2.0000000   2.0000000   2.0000000
           19          20          21          22          23          24
    1   2.0000000   2.0000000   2.0000000   2.0000000   2.0000000   2.0000000
           25          26          27          28          29          30
    1   2.0000000   2.0000000   2.0000000   2.0000000   2.0000000   2.0000000
           31          32          33          34          35          36
    1   2.0000000   2.0000000   2.0000000   2.0000000   2.0000000   2.0000000
           37          38          39          40          41          42
    1   2.0000000   2.0000000   2.0000000   2.0000000   2.0000000   2.0000000
           43          44          45          46          47          48
    1   2.0000000   2.0000000   2.0000000   2.0000000   2.0000000   2.0000000
           49          50          51          52          53          54
    1   2.0000000   2.0000000   2.0000000   2.0000000   2.0000000   2.0000000
           55          56          57          58          59          60
    1   2.0000000   2.0000000   2.0000000   2.0000000   2.0000000   2.0000000
           61          62          63          64          65          66
    1   2.0000000   2.0000000   2.0000000   2.0000000   2.0000000   2.0000000
           67          68          69          70          71          72
    1   2.0000000   2.0000000   2.0000000   2.0000000   2.0000000   2.0000000
           73          74          75          76          77          78
    1   2.0000000   2.0000000   2.0000000   2.0000000   2.0000000   2.0000000
           79          80          81          82          83          84
    1   2.0000000   2.0000000   2.0000000   2.0000000   2.0000000   2.0000000
           85          86          87          88          89          90
    1   2.0000000   2.0000000   2.0000000   2.0000000   2.0000000   2.0000000
           91          92          93          94          95          96
    1   2.0000000   2.0000000   2.0000000   2.0000000   2.0000000   2.0000000
           97          98          99         100         101         102
    1   2.0000000   2.0000000   2.0000000   2.0000000   2.0000000   2.0000000
          103         104         105         106         107         108
    1   2.0000000   2.0000000   2.0000000   2.0000000   2.0000000   2.0000000
          109         110         111         112         113         114
    1   2.0000000   2.0000000   2.0000000   2.0000000   2.0000000   2.0000000
          115         116         117         118         119         120
    1   2.0000000   2.0000000   2.0000000   2.0000000   2.0000000   2.0000000
          121         122         123         124         125         126
    1   2.0000000   2.0000000   2.0000000   2.0000000   2.0000000   2.0000000
          127         128         129         130         131         132
    1   2.0000000   2.0000000   2.0000000   2.0000000   1.9999258   1.9999241
          133         134         135         136         137         138
    1   1.9998958   1.9998935   1.9996894   1.9996802   1.9995239   1.9992539
          139         140         141         142         143         144
    1   1.9992150   1.9990427   1.9988123   1.9985464   1.9979960   1.9972527
          145         146         147         148         149         150
    1   1.9959936   1.9939808   1.9936405   1.9823364   1.8925676   1.8837308
          151         152         153         154         155         156
    1   1.8485645   1.0421847   0.9550202   0.2467070   0.0998951   0.0382936
          157         158         159         160         161         162
    1   0.0108561   0.0060350   0.0057452   0.0055976   0.0031883   0.0026500
          163         164         165         166         167         168
    1   0.0008619   0.0004787   0.0004497   0.0004264   0.0003706   0.0003118
          169         170         171         172         173         174
    1   0.0002430   0.0001831   0.0001010   0.0000978   0.0000791   0.0000756
          175         176         177         178         179         180
    1   0.0000681   0.0000656   0.0000593   0.0000567   0.0000454   0.0000452
          181         182         183         184         185         186
    1   0.0000360   0.0000309   0.0000288   0.0000277   0.0000240   0.0000235
          187         188         189         190         191         192
    1   0.0000233   0.0000145   0.0000135   0.0000116   0.0000105   0.0000102

 Head-Gordon Nu:    2.76
 Head-Gordon Nu_nl: 2.39
 Created directory ./qchem39891/plots

  Amplitudes : 
  
 | HOLE  | ALPHA    | BETA     | PART  |    AMPLITUDE 
--------------------------------------------------
 |       | 11111000 | 11100000 |       |     8.4132771208173E-01
 |       | 11110100 | 01110000 |       |    -2.0918063080138E-01
 |       | 11101100 | 11010000 |       |    -1.3286589382915E-01
 |       | 11100110 | 11100000 |       |    -1.1786191126461E-01
 |       | 11011100 | 11000100 |       |    -1.0395371385068E-01
 |       | 10111100 | 11001000 |       |     1.0015075065708E-01
--------------------------------------------------
*** Contributions RASCI wfn    Active:  89.55
                                 Hole:   6.07
                                 Part:   4.38

      Mulliken population analysis 
 ---------------------------------------------------
   Atom    Charge (a.u.)   Spin (a.u.)  
 ---------------------------------------------------
   1  H    0.210966       -0.000000 
   2  H    0.210966       -0.000000 
   3  H    0.204042       -0.000000 
   4  H    0.204042       -0.000000 
   5  H    0.202975       -0.000000 
   6  H    0.202975       -0.000000 
   7  H    0.212162       -0.000000 
   8  H    0.212162       -0.000000 
   9  H    0.212162       -0.000000 
  10  H    0.212162       -0.000000 
  11  H    0.202975       -0.000000 
  12  H    0.202975       -0.000000 
  13  H    0.204042       -0.000000 
  14  H    0.204042       -0.000000 
  15  H    0.210966       -0.000000 
  16  H    0.210966       -0.000000 
  17  B    0.377738        0.069815 
  18  B    0.328762        0.078521 
  19  B    0.328762        0.078521 
  20  B    0.377738        0.069815 
  21  H    0.196142       -0.000000 
  22  H    0.196142       -0.000000 
  23  C   -0.158262        0.051570 
  24  C   -0.158262        0.051570 
  25  C   -0.257065        0.035439 
  26  C   -0.174716        0.041137 
  27  C   -0.257065        0.035439 
  28  C    0.058306        0.042625 
  29  C    0.058306        0.042625 
  30  C   -0.191668        0.002845 
  31  C   -0.175973        0.025608 
  32  C   -0.175973        0.025608 
  33  C   -0.191668        0.002845 
  34  C   -0.179139        0.018770 
  35  C   -0.136788        0.041541 
  36  C   -0.136788        0.041541 
  37  C   -0.179139        0.018770 
  38  C    0.038455        0.015904 
  39  C    0.038455        0.015904 
  40  C   -0.236800        0.089754 
  41  C   -0.186072        0.062324 
  42  C   -0.236800        0.089754 
  43  C    0.039790        0.050044 
  44  C    0.039790        0.050044 
  45  C    0.039790        0.050044 
  46  C    0.039790        0.050044 
  47  C   -0.236800        0.089754 
  48  C   -0.186072        0.062324 
  49  C   -0.236800        0.089754 
  50  C    0.038455        0.015904 
  51  C    0.038455        0.015904 
  52  C   -0.179139        0.018770 
  53  C   -0.136788        0.041541 
  54  C   -0.136788        0.041541 
  55  C   -0.179139        0.018770 
  56  C   -0.191668        0.002845 
  57  C   -0.175973        0.025608 
  58  C   -0.175973        0.025608 
  59  C   -0.191668        0.002845 
  60  C    0.058306        0.042625 
  61  C    0.058306        0.042625 
  62  C   -0.257065        0.035439 
  63  C   -0.174716        0.041137 
  64  C   -0.257065        0.035439 
  65  C   -0.158262        0.051570 
  66  C   -0.158262        0.051570 
  67  H    0.196142       -0.000000 
  68  H    0.196142       -0.000000 
 ---------------------------------------------------
   Sum:    0.000000        2.000000 
 ---------------------------------------------------
 
*** Unpaired Electrons
 Yamaguchi Nd:         3.56
  
**************************************************
 RAS-CI total energy for state   2:  -1776.668424972611
  Excitation energy (eV) =  0.168294755397
  State symmetry: B3u   (D2h      )
  <S^2>      :  2.0000
  Dipole Moment:    0.0000 X     0.0000 Y    -0.0000 Z
  Trans. Moment:    0.0000 X    -0.1429 Y     0.0000 Z
  Strength   :  0.000084
  Natural transition orbitals ( 1 -> 2 ):
   e-/hole pair  1 alpha:  ampl =  0.162702 (  2.6%)   [8 : 9]
   e-/hole pair  2 alpha:  ampl =  0.119577 (  1.4%)   [7 : 10]
   e-/hole pair  1 beta :  ampl =  0.683771 ( 46.8%)   [8 : 9]
   e-/hole pair  2 beta :  ampl =  0.140962 (  2.0%)   [7 : 10]
   Sum of square amplitudes: 0.55

 NATURAL OCCUPATION NUMBERS (higher than 1.0E-05)
            1           2           3           4           5           6
    1   2.0000000   2.0000000   2.0000000   2.0000000   2.0000000   2.0000000
            7           8           9          10          11          12
    1   2.0000000   2.0000000   2.0000000   2.0000000   2.0000000   2.0000000
           13          14          15          16          17          18
    1   2.0000000   2.0000000   2.0000000   2.0000000   2.0000000   2.0000000
           19          20          21          22          23          24
    1   2.0000000   2.0000000   2.0000000   2.0000000   2.0000000   2.0000000
           25          26          27          28          29          30
    1   2.0000000   2.0000000   2.0000000   2.0000000   2.0000000   2.0000000
           31          32          33          34          35          36
    1   2.0000000   2.0000000   2.0000000   2.0000000   2.0000000   2.0000000
           37          38          39          40          41          42
    1   2.0000000   2.0000000   2.0000000   2.0000000   2.0000000   2.0000000
           43          44          45          46          47          48
    1   2.0000000   2.0000000   2.0000000   2.0000000   2.0000000   2.0000000
           49          50          51          52          53          54
    1   2.0000000   2.0000000   2.0000000   2.0000000   2.0000000   2.0000000
           55          56          57          58          59          60
    1   2.0000000   2.0000000   2.0000000   2.0000000   2.0000000   2.0000000
           61          62          63          64          65          66
    1   2.0000000   2.0000000   2.0000000   2.0000000   2.0000000   2.0000000
           67          68          69          70          71          72
    1   2.0000000   2.0000000   2.0000000   2.0000000   2.0000000   2.0000000
           73          74          75          76          77          78
    1   2.0000000   2.0000000   2.0000000   2.0000000   2.0000000   2.0000000
           79          80          81          82          83          84
    1   2.0000000   2.0000000   2.0000000   2.0000000   2.0000000   2.0000000
           85          86          87          88          89          90
    1   2.0000000   2.0000000   2.0000000   2.0000000   2.0000000   2.0000000
           91          92          93          94          95          96
    1   2.0000000   2.0000000   2.0000000   2.0000000   2.0000000   2.0000000
           97          98          99         100         101         102
    1   2.0000000   2.0000000   2.0000000   2.0000000   2.0000000   2.0000000
          103         104         105         106         107         108
    1   2.0000000   2.0000000   2.0000000   2.0000000   2.0000000   2.0000000
          109         110         111         112         113         114
    1   2.0000000   2.0000000   2.0000000   2.0000000   2.0000000   2.0000000
          115         116         117         118         119         120
    1   2.0000000   2.0000000   2.0000000   2.0000000   2.0000000   2.0000000
          121         122         123         124         125         126
    1   2.0000000   2.0000000   2.0000000   2.0000000   2.0000000   2.0000000
          127         128         129         130         131         132
    1   2.0000000   2.0000000   2.0000000   2.0000000   1.9999710   1.9999690
          133         134         135         136         137         138
    1   1.9999047   1.9999046   1.9997676   1.9996905   1.9995430   1.9993013
          139         140         141         142         143         144
    1   1.9990547   1.9988952   1.9987655   1.9987376   1.9975714   1.9968885
          145         146         147         148         149         150
    1   1.9964616   1.9950772   1.9906180   1.9901886   1.9547245   1.8188326
          151         152         153         154         155         156
    1   1.5834137   1.2787257   0.7605179   0.4674294   0.1025704   0.0404985
          157         158         159         160         161         162
    1   0.0076268   0.0067810   0.0061037   0.0039079   0.0022294   0.0021178
          163         164         165         166         167         168
    1   0.0007807   0.0006068   0.0004666   0.0004021   0.0003772   0.0003290
          169         170         171         172         173         174
    1   0.0001823   0.0001805   0.0000872   0.0000819   0.0000791   0.0000695
          175         176         177         178         179         180
    1   0.0000666   0.0000483   0.0000434   0.0000431   0.0000389   0.0000378
          181         182         183         184         185         186
    1   0.0000302   0.0000233   0.0000229   0.0000218   0.0000192   0.0000189
          187         188         189         190         191
    1   0.0000168   0.0000135   0.0000120   0.0000108   0.0000105

 Head-Gordon Nu:    2.81
 Head-Gordon Nu_nl: 2.85

  Amplitudes : 
  
 | HOLE  | ALPHA    | BETA     | PART  |    AMPLITUDE 
--------------------------------------------------
 |       | 11111000 | 11010000 |       |     7.0718509117840E-01
 |       | 11110100 | 10110000 |       |    -4.8748649052137E-01
 |       | 11101100 | 11100000 |       |    -1.7042106665950E-01
 |       | 11011100 | 10011000 |       |     1.5838735635028E-01
 |       | 10111100 | 10010100 |       |    -1.3556037557083E-01
--------------------------------------------------
*** Contributions RASCI wfn    Active:  89.49
                                 Hole:   6.41
                                 Part:   4.10

      Mulliken population analysis 
 ---------------------------------------------------
   Atom    Charge (a.u.)   Spin (a.u.)  
 ---------------------------------------------------
   1  H    0.210966       -0.000000 
   2  H    0.210966       -0.000000 
   3  H    0.204042       -0.000000 
   4  H    0.204042       -0.000000 
   5  H    0.202975       -0.000000 
   6  H    0.202975       -0.000000 
   7  H    0.212162       -0.000000 
   8  H    0.212162       -0.000000 
   9  H    0.212162       -0.000000 
  10  H    0.212162       -0.000000 
  11  H    0.202975       -0.000000 
  12  H    0.202975       -0.000000 
  13  H    0.204042       -0.000000 
  14  H    0.204042       -0.000000 
  15  H    0.210966       -0.000000 
  16  H    0.210966       -0.000000 
  17  B    0.387417        0.102655 
  18  B    0.356029        0.080577 
  19  B    0.356029        0.080577 
  20  B    0.387417        0.102655 
  21  H    0.196142       -0.000000 
  22  H    0.196142       -0.000000 
  23  C   -0.200372       -0.008540 
  24  C   -0.200372       -0.008540 
  25  C   -0.220771        0.111731 
  26  C   -0.127931        0.123113 
  27  C   -0.220771        0.111731 
  28  C    0.037037        0.015987 
  29  C    0.037037        0.015987 
  30  C   -0.183512        0.018138 
  31  C   -0.175844        0.027286 
  32  C   -0.175844        0.027286 
  33  C   -0.183512        0.018138 
  34  C   -0.180022        0.015863 
  35  C   -0.157647        0.020936 
  36  C   -0.157647        0.020936 
  37  C   -0.180022        0.015863 
  38  C    0.038560        0.019548 
  39  C    0.038560        0.019548 
  40  C   -0.233156        0.077628 
  41  C   -0.120679        0.090607 
  42  C   -0.233156        0.077628 
  43  C    0.002020        0.002946 
  44  C    0.002020        0.002946 
  45  C    0.002020        0.002946 
  46  C    0.002020        0.002946 
  47  C   -0.233156        0.077628 
  48  C   -0.120679        0.090607 
  49  C   -0.233156        0.077628 
  50  C    0.038560        0.019548 
  51  C    0.038560        0.019548 
  52  C   -0.180022        0.015863 
  53  C   -0.157647        0.020936 
  54  C   -0.157647        0.020936 
  55  C   -0.180022        0.015863 
  56  C   -0.183512        0.018138 
  57  C   -0.175844        0.027286 
  58  C   -0.175844        0.027286 
  59  C   -0.183512        0.018138 
  60  C    0.037037        0.015987 
  61  C    0.037037        0.015987 
  62  C   -0.220771        0.111731 
  63  C   -0.127931        0.123113 
  64  C   -0.220771        0.111731 
  65  C   -0.200372       -0.008540 
  66  C   -0.200372       -0.008540 
  67  H    0.196142       -0.000000 
  68  H    0.196142       -0.000000 
 ---------------------------------------------------
   Sum:    0.000000        2.000000 
 ---------------------------------------------------
 
*** Unpaired Electrons
 Yamaguchi Nd:         4.08
  
**************************************************
 RAS-CI total energy for state   3:  -1776.665518744474
  Excitation energy (eV) =  0.247377246609
  State symmetry: Ag    (D2h      )
  <S^2>      :  2.0000
  Dipole Moment:    0.0000 X     0.0000 Y    -0.0000 Z
  Trans. Moment:    0.0000 X     0.0000 Y     0.0000 Z
  Strength   :  0.000000
  Natural transition orbitals ( 1 -> 3 ):
   e-/hole pair  1 alpha:  ampl =  0.080736 (  0.7%)   [8 : 9]
   e-/hole pair  2 alpha:  ampl =  0.061146 (  0.4%)   [7 : 10]
   e-/hole pair  1 beta :  ampl =  0.646151 ( 41.8%)   [8 : 9]
   e-/hole pair  2 beta :  ampl =  0.155213 (  2.4%)   [7 : 10]
   Sum of square amplitudes: 0.46

 NATURAL OCCUPATION NUMBERS (higher than 1.0E-05)
            1           2           3           4           5           6
    1   2.0000000   2.0000000   2.0000000   2.0000000   2.0000000   2.0000000
            7           8           9          10          11          12
    1   2.0000000   2.0000000   2.0000000   2.0000000   2.0000000   2.0000000
           13          14          15          16          17          18
    1   2.0000000   2.0000000   2.0000000   2.0000000   2.0000000   2.0000000
           19          20          21          22          23          24
    1   2.0000000   2.0000000   2.0000000   2.0000000   2.0000000   2.0000000
           25          26          27          28          29          30
    1   2.0000000   2.0000000   2.0000000   2.0000000   2.0000000   2.0000000
           31          32          33          34          35          36
    1   2.0000000   2.0000000   2.0000000   2.0000000   2.0000000   2.0000000
           37          38          39          40          41          42
    1   2.0000000   2.0000000   2.0000000   2.0000000   2.0000000   2.0000000
           43          44          45          46          47          48
    1   2.0000000   2.0000000   2.0000000   2.0000000   2.0000000   2.0000000
           49          50          51          52          53          54
    1   2.0000000   2.0000000   2.0000000   2.0000000   2.0000000   2.0000000
           55          56          57          58          59          60
    1   2.0000000   2.0000000   2.0000000   2.0000000   2.0000000   2.0000000
           61          62          63          64          65          66
    1   2.0000000   2.0000000   2.0000000   2.0000000   2.0000000   2.0000000
           67          68          69          70          71          72
    1   2.0000000   2.0000000   2.0000000   2.0000000   2.0000000   2.0000000
           73          74          75          76          77          78
    1   2.0000000   2.0000000   2.0000000   2.0000000   2.0000000   2.0000000
           79          80          81          82          83          84
    1   2.0000000   2.0000000   2.0000000   2.0000000   2.0000000   2.0000000
           85          86          87          88          89          90
    1   2.0000000   2.0000000   2.0000000   2.0000000   2.0000000   2.0000000
           91          92          93          94          95          96
    1   2.0000000   2.0000000   2.0000000   2.0000000   2.0000000   2.0000000
           97          98          99         100         101         102
    1   2.0000000   2.0000000   2.0000000   2.0000000   2.0000000   2.0000000
          103         104         105         106         107         108
    1   2.0000000   2.0000000   2.0000000   2.0000000   2.0000000   2.0000000
          109         110         111         112         113         114
    1   2.0000000   2.0000000   2.0000000   2.0000000   2.0000000   2.0000000
          115         116         117         118         119         120
    1   2.0000000   2.0000000   2.0000000   2.0000000   2.0000000   2.0000000
          121         122         123         124         125         126
    1   2.0000000   2.0000000   2.0000000   2.0000000   2.0000000   2.0000000
          127         128         129         130         131         132
    1   2.0000000   2.0000000   2.0000000   2.0000000   1.9999751   1.9999715
          133         134         135         136         137         138
    1   1.9999066   1.9998972   1.9997408   1.9997129   1.9995016   1.9992879
          139         140         141         142         143         144
    1   1.9992202   1.9989791   1.9989369   1.9986992   1.9972247   1.9971555
          145         146         147         148         149         150
    1   1.9961381   1.9940138   1.9915165   1.9902042   1.9561311   1.8963926
          151         152         153         154         155         156
    1   1.4698598   1.3526064   0.6558012   0.5396312   0.0939543   0.0415696
          157         158         159         160         161         162
    1   0.0072781   0.0071925   0.0067227   0.0035516   0.0025049   0.0023728
          163         164         165         166         167         168
    1   0.0009012   0.0005764   0.0005346   0.0004709   0.0003767   0.0002697
          169         170         171         172         173         174
    1   0.0001898   0.0001886   0.0000883   0.0000833   0.0000798   0.0000714
          175         176         177         178         179         180
    1   0.0000485   0.0000448   0.0000439   0.0000386   0.0000382   0.0000357
          181         182         183         184         185         186
    1   0.0000266   0.0000227   0.0000196   0.0000184   0.0000183   0.0000168
          187         188         189         190         191
    1   0.0000147   0.0000125   0.0000113   0.0000111   0.0000107

 Head-Gordon Nu:    2.73
 Head-Gordon Nu_nl: 2.86

  Amplitudes : 
  
 | HOLE  | ALPHA    | BETA     | PART  |    AMPLITUDE 
--------------------------------------------------
 |       | 11111000 | 10110000 |       |     6.6446397001583E-01
 |       | 11110100 | 11010000 |       |    -5.8153446810335E-01
 |       | 11011100 | 10010100 |       |     1.4889975823484E-01
 |       | 10111100 | 10011000 |       |    -1.5659441099355E-01
--------------------------------------------------
*** Contributions RASCI wfn    Active:  89.52
                                 Hole:   6.37
                                 Part:   4.11

      Mulliken population analysis 
 ---------------------------------------------------
   Atom    Charge (a.u.)   Spin (a.u.)  
 ---------------------------------------------------
   1  H    0.210966       -0.000000 
   2  H    0.210966       -0.000000 
   3  H    0.204042       -0.000000 
   4  H    0.204042       -0.000000 
   5  H    0.202975       -0.000000 
   6  H    0.202975       -0.000000 
   7  H    0.212162       -0.000000 
   8  H    0.212162       -0.000000 
   9  H    0.212162       -0.000000 
  10  H    0.212162       -0.000000 
  11  H    0.202975       -0.000000 
  12  H    0.202975       -0.000000 
  13  H    0.204042       -0.000000 
  14  H    0.204042       -0.000000 
  15  H    0.210966       -0.000000 
  16  H    0.210966       -0.000000 
  17  B    0.389503        0.089735 
  18  B    0.358438        0.086494 
  19  B    0.358438        0.086494 
  20  B    0.389503        0.089735 
  21  H    0.196142       -0.000000 
  22  H    0.196142       -0.000000 
  23  C   -0.203389       -0.006017 
  24  C   -0.203389       -0.006017 
  25  C   -0.217636        0.096816 
  26  C   -0.125446        0.108830 
  27  C   -0.217636        0.096816 
  28  C    0.035471        0.020896 
  29  C    0.035471        0.020896 
  30  C   -0.183888        0.015869 
  31  C   -0.175049        0.023769 
  32  C   -0.175049        0.023769 
  33  C   -0.183888        0.015869 
  34  C   -0.179972        0.019477 
  35  C   -0.159221        0.024944 
  36  C   -0.159221        0.024944 
  37  C   -0.179972        0.019477 
  38  C    0.037592        0.015801 
  39  C    0.037592        0.015801 
  40  C   -0.232564        0.098185 
  41  C   -0.113449        0.093516 
  42  C   -0.232564        0.098185 
  43  C   -0.002156        0.000971 
  44  C   -0.002156        0.000971 
  45  C   -0.002156        0.000971 
  46  C   -0.002156        0.000971 
  47  C   -0.232564        0.098185 
  48  C   -0.113449        0.093516 
  49  C   -0.232564        0.098185 
  50  C    0.037592        0.015801 
  51  C    0.037592        0.015801 
  52  C   -0.179972        0.019477 
  53  C   -0.159221        0.024944 
  54  C   -0.159221        0.024944 
  55  C   -0.179972        0.019477 
  56  C   -0.183888        0.015869 
  57  C   -0.175049        0.023769 
  58  C   -0.175049        0.023769 
  59  C   -0.183888        0.015869 
  60  C    0.035471        0.020896 
  61  C    0.035471        0.020896 
  62  C   -0.217636        0.096816 
  63  C   -0.125446        0.108830 
  64  C   -0.217636        0.096816 
  65  C   -0.203389       -0.006017 
  66  C   -0.203389       -0.006017 
  67  H    0.196142       -0.000000 
  68  H    0.196142       -0.000000 
 ---------------------------------------------------
   Sum:    0.000000        2.000000 
 ---------------------------------------------------
 
*** Unpaired Electrons
 Yamaguchi Nd:         4.01
  
**************************************************
 RAS-CI total energy for state   4:  -1776.663844019381
  Excitation energy (eV) =  0.292948834997
  State symmetry: B2u   (D2h      )
  <S^2>      :  2.0000
  Dipole Moment:    0.0000 X     0.0000 Y    -0.0000 Z
  Trans. Moment:   -2.6903 X    -0.0000 Y     0.0000 Z
  Strength   :  0.051945
  Natural transition orbitals ( 1 -> 4 ):
   e-/hole pair  1 alpha:  ampl =  0.746662 ( 55.8%)   [8 : 9]
   e-/hole pair  2 alpha:  ampl =  0.132511 (  1.8%)   [7 : 10]
   e-/hole pair  1 beta :  ampl =  0.270235 (  7.3%)   [8 : 9]
   e-/hole pair  2 beta :  ampl =  0.190395 (  3.6%)   [7 : 10]
   Sum of square amplitudes: 0.77

 NATURAL OCCUPATION NUMBERS (higher than 1.0E-05)
            1           2           3           4           5           6
    1   2.0000000   2.0000000   2.0000000   2.0000000   2.0000000   2.0000000
            7           8           9          10          11          12
    1   2.0000000   2.0000000   2.0000000   2.0000000   2.0000000   2.0000000
           13          14          15          16          17          18
    1   2.0000000   2.0000000   2.0000000   2.0000000   2.0000000   2.0000000
           19          20          21          22          23          24
    1   2.0000000   2.0000000   2.0000000   2.0000000   2.0000000   2.0000000
           25          26          27          28          29          30
    1   2.0000000   2.0000000   2.0000000   2.0000000   2.0000000   2.0000000
           31          32          33          34          35          36
    1   2.0000000   2.0000000   2.0000000   2.0000000   2.0000000   2.0000000
           37          38          39          40          41          42
    1   2.0000000   2.0000000   2.0000000   2.0000000   2.0000000   2.0000000
           43          44          45          46          47          48
    1   2.0000000   2.0000000   2.0000000   2.0000000   2.0000000   2.0000000
           49          50          51          52          53          54
    1   2.0000000   2.0000000   2.0000000   2.0000000   2.0000000   2.0000000
           55          56          57          58          59          60
    1   2.0000000   2.0000000   2.0000000   2.0000000   2.0000000   2.0000000
           61          62          63          64          65          66
    1   2.0000000   2.0000000   2.0000000   2.0000000   2.0000000   2.0000000
           67          68          69          70          71          72
    1   2.0000000   2.0000000   2.0000000   2.0000000   2.0000000   2.0000000
           73          74          75          76          77          78
    1   2.0000000   2.0000000   2.0000000   2.0000000   2.0000000   2.0000000
           79          80          81          82          83          84
    1   2.0000000   2.0000000   2.0000000   2.0000000   2.0000000   2.0000000
           85          86          87          88          89          90
    1   2.0000000   2.0000000   2.0000000   2.0000000   2.0000000   2.0000000
           91          92          93          94          95          96
    1   2.0000000   2.0000000   2.0000000   2.0000000   2.0000000   2.0000000
           97          98          99         100         101         102
    1   2.0000000   2.0000000   2.0000000   2.0000000   2.0000000   2.0000000
          103         104         105         106         107         108
    1   2.0000000   2.0000000   2.0000000   2.0000000   2.0000000   2.0000000
          109         110         111         112         113         114
    1   2.0000000   2.0000000   2.0000000   2.0000000   2.0000000   2.0000000
          115         116         117         118         119         120
    1   2.0000000   2.0000000   2.0000000   2.0000000   2.0000000   2.0000000
          121         122         123         124         125         126
    1   2.0000000   2.0000000   2.0000000   2.0000000   2.0000000   2.0000000
          127         128         129         130         131         132
    1   2.0000000   2.0000000   2.0000000   2.0000000   1.9999309   1.9999218
          133         134         135         136         137         138
    1   1.9999007   1.9998913   1.9996958   1.9996797   1.9994599   1.9990898
          139         140         141         142         143         144
    1   1.9990819   1.9989583   1.9986779   1.9982244   1.9977959   1.9977904
          145         146         147         148         149         150
    1   1.9953229   1.9937691   1.9932363   1.9820181   1.8536386   1.8481366
          151         152         153         154         155         156
    1   1.8238085   1.0859018   0.8815899   0.3707823   0.1091869   0.0381659
          157         158         159         160         161         162
    1   0.0080789   0.0060827   0.0059270   0.0047058   0.0039081   0.0030640
          163         164         165         166         167         168
    1   0.0010283   0.0004905   0.0004406   0.0004218   0.0003838   0.0003203
          169         170         171         172         173         174
    1   0.0002481   0.0002000   0.0001181   0.0001033   0.0000838   0.0000795
          175         176         177         178         179         180
    1   0.0000665   0.0000625   0.0000560   0.0000546   0.0000482   0.0000450
          181         182         183         184         185         186
    1   0.0000302   0.0000264   0.0000257   0.0000248   0.0000241   0.0000225
          187         188         189         190         191         192
    1   0.0000188   0.0000142   0.0000134   0.0000124   0.0000110   0.0000108

 Head-Gordon Nu:    2.87
 Head-Gordon Nu_nl: 2.63

  Amplitudes : 
  
 | HOLE  | ALPHA    | BETA     | PART  |    AMPLITUDE 
--------------------------------------------------
 |       | 11111000 | 11001000 |       |    -1.6908656503412E-01
 |       | 11111000 | 01110000 |       |    -2.7746441288633E-01
 |       | 11110100 | 11100000 |       |     7.9215805363769E-01
 |       | 11101100 | 10110000 |       |    -1.0492948023342E-01
 |       | 11101010 | 11100000 |       |    -1.3127464104822E-01
 |       | 11011100 | 11001000 |       |     1.2428827872572E-01
 |       | 10111100 | 11000100 |       |    -1.0777957543152E-01
--------------------------------------------------
*** Contributions RASCI wfn    Active:  89.24
                                 Hole:   6.41
                                 Part:   4.35

      Mulliken population analysis 
 ---------------------------------------------------
   Atom    Charge (a.u.)   Spin (a.u.)  
 ---------------------------------------------------
   1  H    0.210966       -0.000000 
   2  H    0.210966       -0.000000 
   3  H    0.204042       -0.000000 
   4  H    0.204042       -0.000000 
   5  H    0.202975       -0.000000 
   6  H    0.202975       -0.000000 
   7  H    0.212162       -0.000000 
   8  H    0.212162       -0.000000 
   9  H    0.212162       -0.000000 
  10  H    0.212162       -0.000000 
  11  H    0.202975       -0.000000 
  12  H    0.202975       -0.000000 
  13  H    0.204042       -0.000000 
  14  H    0.204042       -0.000000 
  15  H    0.210966       -0.000000 
  16  H    0.210966       -0.000000 
  17  B    0.375570        0.059556 
  18  B    0.335218        0.073925 
  19  B    0.335218        0.073925 
  20  B    0.375570        0.059556 
  21  H    0.196142       -0.000000 
  22  H    0.196142       -0.000000 
  23  C   -0.160772        0.055636 
  24  C   -0.160772        0.055636 
  25  C   -0.251771        0.021474 
  26  C   -0.172761        0.029749 
  27  C   -0.251771        0.021474 
  28  C    0.055705        0.046676 
  29  C    0.055705        0.046676 
  30  C   -0.189940        0.002581 
  31  C   -0.172123        0.020168 
  32  C   -0.172123        0.020168 
  33  C   -0.189940        0.002581 
  34  C   -0.179060        0.020972 
  35  C   -0.147986        0.052494 
  36  C   -0.147986        0.052494 
  37  C   -0.179060        0.020972 
  38  C    0.043205        0.015956 
  39  C    0.043205        0.015956 
  40  C   -0.250252        0.114934 
  41  C   -0.161423        0.032826 
  42  C   -0.250252        0.114934 
  43  C    0.038406        0.051080 
  44  C    0.038406        0.051080 
  45  C    0.038406        0.051080 
  46  C    0.038406        0.051080 
  47  C   -0.250252        0.114934 
  48  C   -0.161423        0.032826 
  49  C   -0.250252        0.114934 
  50  C    0.043205        0.015956 
  51  C    0.043205        0.015956 
  52  C   -0.179060        0.020972 
  53  C   -0.147986        0.052494 
  54  C   -0.147986        0.052494 
  55  C   -0.179060        0.020972 
  56  C   -0.189940        0.002581 
  57  C   -0.172123        0.020168 
  58  C   -0.172123        0.020168 
  59  C   -0.189940        0.002581 
  60  C    0.055705        0.046676 
  61  C    0.055705        0.046676 
  62  C   -0.251771        0.021474 
  63  C   -0.172761        0.029749 
  64  C   -0.251771        0.021474 
  65  C   -0.160772        0.055636 
  66  C   -0.160772        0.055636 
  67  H    0.196142       -0.000000 
  68  H    0.196142       -0.000000 
 ---------------------------------------------------
   Sum:    0.000000        2.000000 
 ---------------------------------------------------
 
*** Unpaired Electrons
 Yamaguchi Nd:         3.90
  
**************************************************
 RAS-CI total energy for state   5:  -1776.654706458543
  Excitation energy (eV) =  0.541594516092
  State symmetry: B3u   (D2h      )
  <S^2>      :  2.0000
  Dipole Moment:    0.0000 X     0.0000 Y    -0.0000 Z
  Trans. Moment:    0.0000 X    -0.5997 Y     0.0000 Z
  Strength   :  0.004772
  Natural transition orbitals ( 1 -> 5 ):
   e-/hole pair  1 alpha:  ampl =  0.768127 ( 59.0%)   [8 : 9]
   e-/hole pair  2 alpha:  ampl =  0.139135 (  1.9%)   [7 : 10]
   e-/hole pair  1 beta :  ampl =  0.130595 (  1.7%)   [8 : 9]
   e-/hole pair  2 beta :  ampl =  0.115291 (  1.3%)   [7 : 10]
   Sum of square amplitudes: 0.66

 NATURAL OCCUPATION NUMBERS (higher than 1.0E-05)
            1           2           3           4           5           6
    1   2.0000000   2.0000000   2.0000000   2.0000000   2.0000000   2.0000000
            7           8           9          10          11          12
    1   2.0000000   2.0000000   2.0000000   2.0000000   2.0000000   2.0000000
           13          14          15          16          17          18
    1   2.0000000   2.0000000   2.0000000   2.0000000   2.0000000   2.0000000
           19          20          21          22          23          24
    1   2.0000000   2.0000000   2.0000000   2.0000000   2.0000000   2.0000000
           25          26          27          28          29          30
    1   2.0000000   2.0000000   2.0000000   2.0000000   2.0000000   2.0000000
           31          32          33          34          35          36
    1   2.0000000   2.0000000   2.0000000   2.0000000   2.0000000   2.0000000
           37          38          39          40          41          42
    1   2.0000000   2.0000000   2.0000000   2.0000000   2.0000000   2.0000000
           43          44          45          46          47          48
    1   2.0000000   2.0000000   2.0000000   2.0000000   2.0000000   2.0000000
           49          50          51          52          53          54
    1   2.0000000   2.0000000   2.0000000   2.0000000   2.0000000   2.0000000
           55          56          57          58          59          60
    1   2.0000000   2.0000000   2.0000000   2.0000000   2.0000000   2.0000000
           61          62          63          64          65          66
    1   2.0000000   2.0000000   2.0000000   2.0000000   2.0000000   2.0000000
           67          68          69          70          71          72
    1   2.0000000   2.0000000   2.0000000   2.0000000   2.0000000   2.0000000
           73          74          75          76          77          78
    1   2.0000000   2.0000000   2.0000000   2.0000000   2.0000000   2.0000000
           79          80          81          82          83          84
    1   2.0000000   2.0000000   2.0000000   2.0000000   2.0000000   2.0000000
           85          86          87          88          89          90
    1   2.0000000   2.0000000   2.0000000   2.0000000   2.0000000   2.0000000
           91          92          93          94          95          96
    1   2.0000000   2.0000000   2.0000000   2.0000000   2.0000000   2.0000000
           97          98          99         100         101         102
    1   2.0000000   2.0000000   2.0000000   2.0000000   2.0000000   2.0000000
          103         104         105         106         107         108
    1   2.0000000   2.0000000   2.0000000   2.0000000   2.0000000   2.0000000
          109         110         111         112         113         114
    1   2.0000000   2.0000000   2.0000000   2.0000000   2.0000000   2.0000000
          115         116         117         118         119         120
    1   2.0000000   2.0000000   2.0000000   2.0000000   2.0000000   2.0000000
          121         122         123         124         125         126
    1   2.0000000   2.0000000   2.0000000   2.0000000   2.0000000   2.0000000
          127         128         129         130         131         132
    1   2.0000000   2.0000000   2.0000000   2.0000000   1.9999513   1.9999361
          133         134         135         136         137         138
    1   1.9999073   1.9999026   1.9997563   1.9997050   1.9994234   1.9993895
          139         140         141         142         143         144
    1   1.9993817   1.9993461   1.9993374   1.9992106   1.9990070   1.9973664
          145         146         147         148         149         150
    1   1.9938679   1.9903937   1.9868720   1.9787505   1.8998173   1.8876651
          151         152         153         154         155         156
    1   1.8137569   0.9769769   0.9432147   0.3610071   0.1039094   0.0307886
          157         158         159         160         161         162
    1   0.0090607   0.0073454   0.0064222   0.0050812   0.0044603   0.0044336
          163         164         165         166         167         168
    1   0.0009210   0.0006385   0.0005277   0.0005055   0.0003086   0.0002832
          169         170         171         172         173         174
    1   0.0002341   0.0001575   0.0001091   0.0000980   0.0000949   0.0000680
          175         176         177         178         179         180
    1   0.0000614   0.0000612   0.0000559   0.0000441   0.0000439   0.0000383
          181         182         183         184         185         186
    1   0.0000339   0.0000316   0.0000288   0.0000261   0.0000250   0.0000238
          187         188
    1   0.0000150   0.0000145

 Head-Gordon Nu:    2.91
 Head-Gordon Nu_nl: 2.58

  Amplitudes : 
  
 | HOLE  | ALPHA    | BETA     | PART  |    AMPLITUDE 
--------------------------------------------------
 |       | 11111000 | 10100010 |       |    -1.0886329428712E-01
 |       | 11110100 | 10110000 |       |    -2.5736983423280E-01
 |       | 11101100 | 11100000 |       |     8.2153641934538E-01
 |       | 01111100 | 01110000 |       |    -1.4458826314955E-01
--------------------------------------------------
*** Contributions RASCI wfn    Active:  87.45
                                 Hole:   7.49
                                 Part:   5.05

      Mulliken population analysis 
 ---------------------------------------------------
   Atom    Charge (a.u.)   Spin (a.u.)  
 ---------------------------------------------------
   1  H    0.210966       -0.000000 
   2  H    0.210966       -0.000000 
   3  H    0.204042       -0.000000 
   4  H    0.204042       -0.000000 
   5  H    0.202975       -0.000000 
   6  H    0.202975       -0.000000 
   7  H    0.212162       -0.000000 
   8  H    0.212162       -0.000000 
   9  H    0.212162       -0.000000 
  10  H    0.212162       -0.000000 
  11  H    0.202975       -0.000000 
  12  H    0.202975       -0.000000 
  13  H    0.204042       -0.000000 
  14  H    0.204042       -0.000000 
  15  H    0.210966       -0.000000 
  16  H    0.210966       -0.000000 
  17  B    0.330052        0.156774 
  18  B    0.280030        0.115563 
  19  B    0.280030        0.115563 
  20  B    0.330052        0.156774 
  21  H    0.196142       -0.000000 
  22  H    0.196142       -0.000000 
  23  C   -0.136549       -0.000345 
  24  C   -0.136549       -0.000345 
  25  C   -0.271907        0.103154 
  26  C   -0.182877        0.115736 
  27  C   -0.271907        0.103154 
  28  C    0.082795        0.000194 
  29  C    0.082795        0.000194 
  30  C   -0.187736        0.005987 
  31  C   -0.186623        0.050595 
  32  C   -0.186623        0.050595 
  33  C   -0.187736        0.005987 
  34  C   -0.167939       -0.001277 
  35  C   -0.143700        0.044559 
  36  C   -0.143700        0.044559 
  37  C   -0.167939       -0.001277 
  38  C    0.048513        0.010633 
  39  C    0.048513        0.010633 
  40  C   -0.242264        0.052635 
  41  C   -0.184251        0.054257 
  42  C   -0.242264        0.052635 
  43  C    0.057645        0.012700 
  44  C    0.057645        0.012700 
  45  C    0.057645        0.012700 
  46  C    0.057645        0.012700 
  47  C   -0.242264        0.052635 
  48  C   -0.184251        0.054257 
  49  C   -0.242264        0.052635 
  50  C    0.048513        0.010633 
  51  C    0.048513        0.010633 
  52  C   -0.167939       -0.001277 
  53  C   -0.143700        0.044559 
  54  C   -0.143700        0.044559 
  55  C   -0.167939       -0.001277 
  56  C   -0.187736        0.005987 
  57  C   -0.186623        0.050595 
  58  C   -0.186623        0.050595 
  59  C   -0.187736        0.005987 
  60  C    0.082795        0.000194 
  61  C    0.082795        0.000194 
  62  C   -0.271907        0.103154 
  63  C   -0.182877        0.115736 
  64  C   -0.271907        0.103154 
  65  C   -0.136549       -0.000345 
  66  C   -0.136549       -0.000345 
  67  H    0.196142       -0.000000 
  68  H    0.196142       -0.000000 
 ---------------------------------------------------
   Sum:    0.000000        2.000000 
 ---------------------------------------------------
 
*** Unpaired Electrons
 Yamaguchi Nd:         3.78
  
**************************************************
 RAS-CI total energy for state   6:  -1776.646081290931
  Excitation energy (eV) =  0.776297268120
  State symmetry: B2u   (D2h      )
  <S^2>      :  2.0000
  Dipole Moment:   -0.0000 X     0.0000 Y    -0.0000 Z
  Trans. Moment:    0.8245 X    -0.0000 Y     0.0000 Z
  Strength   :  0.012929
  Natural transition orbitals ( 1 -> 6 ):
   e-/hole pair  1 alpha:  ampl =  0.286971 (  8.2%)   [8 : 9]
   e-/hole pair  2 alpha:  ampl =  0.070556 (  0.5%)   [7 : 10]
   e-/hole pair  1 beta :  ampl =  0.581189 ( 33.8%)   [8 : 9]
   e-/hole pair  2 beta :  ampl =  0.108979 (  1.2%)   [7 : 10]
   Sum of square amplitudes: 0.45

 NATURAL OCCUPATION NUMBERS (higher than 1.0E-05)
            1           2           3           4           5           6
    1   2.0000000   2.0000000   2.0000000   2.0000000   2.0000000   2.0000000
            7           8           9          10          11          12
    1   2.0000000   2.0000000   2.0000000   2.0000000   2.0000000   2.0000000
           13          14          15          16          17          18
    1   2.0000000   2.0000000   2.0000000   2.0000000   2.0000000   2.0000000
           19          20          21          22          23          24
    1   2.0000000   2.0000000   2.0000000   2.0000000   2.0000000   2.0000000
           25          26          27          28          29          30
    1   2.0000000   2.0000000   2.0000000   2.0000000   2.0000000   2.0000000
           31          32          33          34          35          36
    1   2.0000000   2.0000000   2.0000000   2.0000000   2.0000000   2.0000000
           37          38          39          40          41          42
    1   2.0000000   2.0000000   2.0000000   2.0000000   2.0000000   2.0000000
           43          44          45          46          47          48
    1   2.0000000   2.0000000   2.0000000   2.0000000   2.0000000   2.0000000
           49          50          51          52          53          54
    1   2.0000000   2.0000000   2.0000000   2.0000000   2.0000000   2.0000000
           55          56          57          58          59          60
    1   2.0000000   2.0000000   2.0000000   2.0000000   2.0000000   2.0000000
           61          62          63          64          65          66
    1   2.0000000   2.0000000   2.0000000   2.0000000   2.0000000   2.0000000
           67          68          69          70          71          72
    1   2.0000000   2.0000000   2.0000000   2.0000000   2.0000000   2.0000000
           73          74          75          76          77          78
    1   2.0000000   2.0000000   2.0000000   2.0000000   2.0000000   2.0000000
           79          80          81          82          83          84
    1   2.0000000   2.0000000   2.0000000   2.0000000   2.0000000   2.0000000
           85          86          87          88          89          90
    1   2.0000000   2.0000000   2.0000000   2.0000000   2.0000000   2.0000000
           91          92          93          94          95          96
    1   2.0000000   2.0000000   2.0000000   2.0000000   2.0000000   2.0000000
           97          98          99         100         101         102
    1   2.0000000   2.0000000   2.0000000   2.0000000   2.0000000   2.0000000
          103         104         105         106         107         108
    1   2.0000000   2.0000000   2.0000000   2.0000000   2.0000000   2.0000000
          109         110         111         112         113         114
    1   2.0000000   2.0000000   2.0000000   2.0000000   2.0000000   2.0000000
          115         116         117         118         119         120
    1   2.0000000   2.0000000   2.0000000   2.0000000   2.0000000   2.0000000
          121         122         123         124         125         126
    1   2.0000000   2.0000000   2.0000000   2.0000000   2.0000000   2.0000000
          127         128         129         130         131         132
    1   2.0000000   2.0000000   2.0000000   2.0000000   1.9999242   1.9999180
          133         134         135         136         137         138
    1   1.9999149   1.9999013   1.9997992   1.9997729   1.9995073   1.9992082
          139         140         141         142         143         144
    1   1.9989719   1.9989426   1.9989094   1.9986941   1.9985791   1.9969547
          145         146         147         148         149         150
    1   1.9933067   1.9928330   1.9894397   1.9789501   1.8789576   1.6844134
          151         152         153         154         155         156
    1   1.2718125   1.2273913   1.0767666   0.7386227   0.1054203   0.0336915
          157         158         159         160         161         162
    1   0.0084265   0.0073685   0.0056558   0.0054377   0.0047227   0.0031624
          163         164         165         166         167         168
    1   0.0008590   0.0007501   0.0004527   0.0004310   0.0003277   0.0003099
          169         170         171         172         173         174
    1   0.0002592   0.0001794   0.0001128   0.0000999   0.0000876   0.0000732
          175         176         177         178         179         180
    1   0.0000656   0.0000574   0.0000570   0.0000518   0.0000443   0.0000404
          181         182         183         184         185         186
    1   0.0000385   0.0000353   0.0000331   0.0000313   0.0000283   0.0000205
          187         188         189         190         191         192
    1   0.0000183   0.0000148   0.0000131   0.0000128   0.0000119   0.0000117

 Head-Gordon Nu:    3.83
 Head-Gordon Nu_nl: 4.00

  Amplitudes : 
  
 | HOLE  | ALPHA    | BETA     | PART  |    AMPLITUDE 
--------------------------------------------------
 |       | 11111000 | 11001000 |       |    -6.2507885432961E-01
 |       | 11111000 | 10100100 |       |    -1.0933500603938E-01
 |       | 11111000 | 01110000 |       |     1.1860257276334E-01
 |       | 11111000 | 00111000 |       |    -1.4453887278092E-01
 |       | 11110100 | 11100000 |       |    -1.5869425781723E-01
 |       | 11110100 | 11000100 |       |     4.1551035586303E-01
 |       | 11110100 | 10101000 |       |     2.1783947024864E-01
 |       | 11110100 | 00110100 |       |     1.4204713995621E-01
 |       | 10111100 | 11100000 |       |    -2.7770653722926E-01
--------------------------------------------------
*** Contributions RASCI wfn    Active:  87.61
                                 Hole:   7.65
                                 Part:   4.74

      Mulliken population analysis 
 ---------------------------------------------------
   Atom    Charge (a.u.)   Spin (a.u.)  
 ---------------------------------------------------
   1  H    0.210966       -0.000000 
   2  H    0.210966       -0.000000 
   3  H    0.204042       -0.000000 
   4  H    0.204042       -0.000000 
   5  H    0.202975       -0.000000 
   6  H    0.202975       -0.000000 
   7  H    0.212162       -0.000000 
   8  H    0.212162       -0.000000 
   9  H    0.212162       -0.000000 
  10  H    0.212162       -0.000000 
  11  H    0.202975       -0.000000 
  12  H    0.202975       -0.000000 
  13  H    0.204042       -0.000000 
  14  H    0.204042       -0.000000 
  15  H    0.210966       -0.000000 
  16  H    0.210966       -0.000000 
  17  B    0.335195        0.035539 
  18  B    0.297789        0.022035 
  19  B    0.297789        0.022035 
  20  B    0.335195        0.035539 
  21  H    0.196142       -0.000000 
  22  H    0.196142       -0.000000 
  23  C   -0.168272        0.043239 
  24  C   -0.168272        0.043239 
  25  C   -0.245572        0.059376 
  26  C   -0.148491        0.064850 
  27  C   -0.245572        0.059376 
  28  C    0.066487        0.054329 
  29  C    0.066487        0.054329 
  30  C   -0.179761        0.018072 
  31  C   -0.188946        0.006246 
  32  C   -0.188946        0.006246 
  33  C   -0.179761        0.018072 
  34  C   -0.167732        0.033369 
  35  C   -0.155602        0.025325 
  36  C   -0.155602        0.025325 
  37  C   -0.167732        0.033369 
  38  C    0.047221        0.028293 
  39  C    0.047221        0.028293 
  40  C   -0.232536        0.103041 
  41  C   -0.148765        0.044946 
  42  C   -0.232536        0.103041 
  43  C    0.030560        0.045025 
  44  C    0.030560        0.045025 
  45  C    0.030560        0.045025 
  46  C    0.030560        0.045025 
  47  C   -0.232536        0.103041 
  48  C   -0.148765        0.044946 
  49  C   -0.232536        0.103041 
  50  C    0.047221        0.028293 
  51  C    0.047221        0.028293 
  52  C   -0.167732        0.033369 
  53  C   -0.155602        0.025325 
  54  C   -0.155602        0.025325 
  55  C   -0.167732        0.033369 
  56  C   -0.179761        0.018072 
  57  C   -0.188946        0.006246 
  58  C   -0.188946        0.006246 
  59  C   -0.179761        0.018072 
  60  C    0.066487        0.054329 
  61  C    0.066487        0.054329 
  62  C   -0.245572        0.059376 
  63  C   -0.148491        0.064850 
  64  C   -0.245572        0.059376 
  65  C   -0.168272        0.043239 
  66  C   -0.168272        0.043239 
[...]
 -0.061  -0.046   0.003   0.076   0.087   0.096   0.133   0.139
  7 B1u   7 B2g   6 B3g   6 Au    8 B1u   8 B2g   9 B1u   7 B3g                
  0.154   0.158   0.158   0.166   0.190   0.199   0.237   0.238
  7 Au    8 B3g  10 B1u   9 B2g  10 B2g   8 Au   37 Ag   11 B1u                
  0.244   0.246   0.251   0.252   0.259   0.260   0.269   0.275
 36 B3u  31 B2u  38 Ag   30 B1g   9 B3g  32 B2u  37 B3u  11 B2g                
  0.276   0.277   0.280   0.290   0.294   0.295   0.301   0.310
 39 Ag   31 B1g  12 B1u  33 B2u   9 Au   38 B3u  40 Ag   32 B1g                
  0.317   0.319   0.325   0.335   0.347   0.352   0.355   0.368
 34 B2u  12 B2g  39 B3u  41 Ag   33 B1g  35 B2u  40 B3u  34 B1g                
  0.369   0.373   0.376   0.376   0.379   0.383   0.392   0.398
 42 Ag   41 B3u  43 Ag   13 B1u  44 Ag   42 B3u  10 B3g  43 B3u                
  0.404   0.408   0.416   0.420   0.425   0.429   0.429   0.433
 10 Au   45 Ag   36 B2u  35 B1g  37 B2u  44 B3u  13 B2g  46 Ag                 
  0.437   0.441   0.445   0.451   0.463   0.465   0.466   0.468
 38 B2u  47 Ag   36 B1g  45 B3u  46 B3u  48 Ag   37 B1g  39 B2u                
  0.477   0.479   0.480   0.486   0.491   0.493   0.499   0.504
 49 Ag   40 B2u  38 B1g  41 B2u  50 Ag   47 B3u  39 B1g  14 B1u                
  0.507   0.508   0.509   0.522   0.524   0.528   0.529   0.535
 48 B3u  40 B1g  41 B1g  14 B2g  42 B2u  51 Ag   49 B3u  43 B2u                
  0.549   0.551   0.553   0.572   0.583   0.590   0.603   0.603
 44 B2u  50 B3u  52 Ag   42 B1g  51 B3u  53 Ag   52 B3u  45 B2u                
  0.615   0.619   0.623   0.642   0.642   0.656   0.659   0.670
 54 Ag   43 B1g  53 B3u  44 B1g  55 Ag   15 B1u  15 B2g  54 B3u                
  0.671   0.676   0.682   0.687   0.691   0.695   0.697   0.707
 45 B1g  46 B2u  55 B3u  56 Ag   16 B1u  57 Ag   16 B2g  46 B1g                
  0.715   0.718   0.737   0.738   0.740   0.744   0.751   0.753
 56 B3u  47 B2u  58 Ag   48 B2u  49 B2u  11 B3g  11 Au   59 Ag                 
  0.759   0.760   0.762   0.765   0.766   0.769   0.769   0.773
 47 B1g  57 B3u  17 B1u  60 Ag   58 B3u  17 B2g  12 B3g  48 B1g                
  0.777   0.783   0.786   0.788   0.789   0.795   0.795   0.798
 18 B1u  49 B1g  50 B2u  12 Au   59 B3u  61 Ag   18 B2g  51 B2u                
  0.799   0.801   0.805   0.809   0.810   0.811   0.811   0.815
 52 B2u  19 B1u  50 B1g  60 B3u  53 B2u  51 B1g  13 B3g  62 Ag                 
  0.816   0.821   0.821   0.824   0.827   0.828   0.830   0.833
 61 B3u  63 Ag   62 B3u  20 B1u  19 B2g  52 B1g  64 Ag   54 B2u                
  0.835   0.835   0.836   0.837   0.848   0.854   0.864   0.865
 13 Au   63 B3u  65 Ag   53 B1g  66 Ag   64 B3u  14 B3g  21 B1u                
  0.868   0.872   0.873   0.878   0.883   0.883   0.895   0.914
 55 B2u  14 Au   20 B2g  56 B2u  54 B1g  15 B3g  15 Au   67 Ag                 
  0.920   0.923   0.925   0.927   0.931   0.934   0.945   0.952
 21 B2g  22 B1u  55 B1g  65 B3u  22 B2g  23 B1u  16 B3g  24 B1u                
  0.956   0.959   0.984   0.995   0.995   1.001   1.002   1.007
 16 Au   17 B3g  23 B2g  57 B2u  17 Au   66 B3u  68 Ag   69 Ag                 
  1.008   1.008   1.010   1.018   1.025   1.040   1.046   1.047
 18 B3g  67 B3u  24 B2g  25 B1u  56 B1g  25 B2g  19 B3g  18 Au                 
  1.055   1.055   1.058   1.058   1.063   1.066   1.070   1.079
 26 B1u  70 Ag   57 B1g  58 B2u  19 Au   58 B1g  59 B2u  71 Ag                 
  1.080   1.092   1.092   1.094   1.103   1.103   1.104   1.107
 68 B3u  72 Ag   60 B2u  69 B3u  61 B2u  70 B3u  59 B1g  60 B1g                
  1.107   1.108   1.111   1.113   1.114   1.117   1.121   1.124
 73 Ag   26 B2g  62 B2u  74 Ag   71 B3u  20 B3g  72 B3u  75 Ag                 
  1.125   1.127   1.133   1.135   1.142   1.149   1.149   1.150
 61 B1g  63 B2u  73 B3u  20 Au   76 Ag   64 B2u  27 B1u  62 B1g                
  1.164   1.183   1.187   1.189   1.193   1.197   1.200   1.200
 74 B3u  63 B1g  65 B2u  77 Ag   64 B1g  27 B2g  75 B3u  66 B2u                
  1.205   1.206   1.208   1.212   1.218   1.219   1.222   1.226
 76 B3u  78 Ag   65 B1g  67 B2u  77 B3u  66 B1g  79 Ag   68 B2u                
  1.236   1.245   1.246   1.251   1.260   1.271   1.275   1.284
 80 Ag   67 B1g  81 Ag   78 B3u  28 B1u  79 B3u  69 B2u  68 B1g                
  1.296   1.297   1.305   1.309   1.316   1.321   1.335   1.340
 80 B3u  28 B2g  82 Ag   70 B2u  69 B1g  71 B2u  81 B3u  21 B3g                
  1.345   1.347   1.349   1.352   1.355   1.373   1.377   1.377
 70 B1g  83 Ag   21 Au   82 B3u  84 Ag   29 B1u  72 B2u  71 B1g                
  1.379   1.386   1.388   1.403   1.408   1.410   1.411   1.414
 83 B3u  29 B2g  73 B2u  30 B1u  85 Ag   72 B1g  84 B3u  30 B2g                
  1.414   1.452   1.460   1.460   1.465   1.469   1.473   1.473
 74 B2u  73 B1g  22 B3g  75 B2u  86 Ag   74 B1g  76 B2u  22 Au                 
  1.486   1.487   1.498   1.503   1.505   1.509   1.511   1.514
 85 B3u  77 B2u  87 Ag   23 B3g  75 B1g  23 Au   88 Ag   31 B1u                
  1.514   1.515   1.515   1.529   1.531   1.534   1.535   1.544
 86 B3u  24 B3g  31 B2g  89 Ag   78 B2u  76 B1g  87 B3u  25 B3g                
  1.554   1.563   1.571   1.578   1.580   1.584   1.586   1.608
 24 Au   77 B1g  90 Ag   32 B1u  79 B2u  88 B3u  89 B3u  80 B2u                
  1.623   1.624   1.629   1.631   1.645   1.645   1.647   1.665
 26 B3g  91 Ag   90 B3u  25 Au   32 B2g  78 B1g  33 B1u  33 B2g                
  1.675   1.683   1.683   1.685   1.691   1.704   1.705   1.705
 92 Ag   34 B1u  27 B3g  26 Au   91 B3u  93 Ag   92 B3u  28 B3g                
  1.714   1.728   1.733   1.733   1.736   1.737   1.739   1.757
 79 B1g  27 Au   34 B2g  35 B1u  29 B3g  28 Au   93 B3u  36 B1u                
  1.757   1.763   1.764   1.767   1.776   1.779   1.785   1.795
 35 B2g  30 B3g  29 Au   94 Ag   81 B2u  80 B1g  82 B2u  95 Ag                 
  1.796   1.803   1.806   1.823   1.826   1.836   1.839   1.842
 83 B2u  94 B3u  81 B1g  82 B1g  96 Ag   84 B2u  95 B3u  97 Ag                 
  1.856   1.861   1.868   1.870   1.874   1.883   1.908   1.908
 85 B2u  83 B1g  96 B3u  98 Ag   84 B1g  97 B3u  86 B2u  99 Ag                 
  1.932   1.932   1.943   1.943   1.957   1.963   1.969   1.974
 36 B2g  37 B1u  85 B1g  37 B2g  30 Au   31 B3g 100 Ag   38 B1u                
  1.996   2.000   2.007   2.010   2.022   2.025   2.038   2.040
 38 B2g  87 B2u  98 B3u 101 Ag   86 B1g  39 B1u  99 B3u  88 B2u                
  2.050   2.056   2.064   2.077   2.084   2.088   2.090   2.090
 87 B1g 100 B3u 102 Ag   88 B1g  89 B2u  39 B2g  40 B1u  31 Au                 
  2.103   2.106   2.107   2.114   2.118   2.119   2.120   2.128
 90 B2u 103 Ag  101 B3u  89 B1g 104 Ag  102 B3u  91 B2u  32 B3g                
  2.129   2.140   2.153   2.159   2.172   2.177   2.185   2.202
 32 Au   90 B1g  92 B2u  91 B1g 105 Ag   40 B2g  93 B2u 103 B3u                
  2.207   2.208   2.211   2.221   2.223   2.230   2.232   2.237
104 B3u 106 Ag   92 B1g 107 Ag   41 B1u 105 B3u  94 B2u  95 B2u                
  2.246   2.247   2.259   2.270   2.277   2.278   2.278   2.283
108 Ag   93 B1g 106 B3u  33 B3g 107 B3u 109 Ag   96 B2u  94 B1g                
  2.289   2.292   2.294   2.295   2.297   2.301   2.302   2.305
110 Ag   34 B3g  33 Au   95 B1g  97 B2u 108 B3u  41 B2g 111 Ag                 
  2.309   2.316   2.320   2.327   2.342   2.347   2.367   2.374
 42 B1u  34 Au  109 B3u 110 B3u  96 B1g 112 Ag  113 Ag  111 B3u                
  2.379   2.386   2.387   2.392   2.392   2.393   2.397   2.399
 98 B2u  42 B2g 114 Ag   43 B1u  99 B2u  43 B2g 112 B3u  97 B1g                
  2.401   2.409   2.412   2.421   2.425   2.448   2.456   2.467
 44 B1u  35 B3g 113 B3u 100 B2u 115 Ag   98 B1g  99 B1g 114 B3u                
  2.484   2.486   2.507   2.507   2.515   2.517   2.532   2.532
 35 Au  101 B2u  44 B2g  45 B1u  36 B3g  46 B1u 100 B1g 116 Ag                 
  2.535   2.537   2.552   2.561   2.561   2.562   2.565   2.577
102 B2u  45 B2g 115 B3u 101 B1g  37 B3g  36 Au   46 B2g 103 B2u                
  2.586   2.588   2.588   2.600   2.604   2.607   2.613   2.613
102 B1g 104 B2u 117 Ag   37 Au  116 B3u  38 B3g 118 Ag   47 B1u                
  2.620   2.630   2.636   2.638   2.641   2.649   2.653   2.659
103 B1g  39 B3g 119 Ag   38 Au  117 B3u  48 B1u  47 B2g  48 B2g                
  2.659   2.667   2.677   2.681   2.687   2.690   2.700   2.709
 49 B1u 104 B1g  40 B3g 105 B2u  39 Au  118 B3u  41 B3g  40 Au                 
  2.710   2.719   2.724   2.732   2.742   2.753   2.770   2.792
106 B2u 105 B1g  49 B2g 120 Ag  119 B3u 107 B2u 106 B1g 121 Ag                 
  2.803   2.832   2.832   2.840   2.846   2.847   2.850   2.860
120 B3u 122 Ag   41 Au  108 B2u 121 B3u 122 B3u  42 B3g  50 B1u                
  2.870   2.894   2.895   2.923   2.935   2.939   2.942   2.960
123 Ag   51 B1u  50 B2g  42 Au   51 B2g  43 B3g 107 B1g 109 B2u                
  2.962   2.973   2.973   2.975   2.976   2.978   2.989   3.007
124 Ag  123 B3u  43 Au  124 B3u 108 B1g 125 Ag   44 B3g 110 B2u                
  3.012   3.013   3.033   3.058   3.066   3.087   3.090   3.098
 52 B1u  44 Au   52 B2g 126 Ag  111 B2u 109 B1g 112 B2u 125 B3u                
  3.099   3.105   3.106   3.116   3.118   3.129   3.130   3.149
110 B1g 127 Ag  111 B1g 126 B3u 128 Ag  113 B2u 112 B1g 127 B3u                
  3.159   3.174   3.188   3.190   3.194   3.211   3.234   3.246
129 Ag  114 B2u 115 B2u 113 B1g 128 B3u 114 B1g 130 Ag  115 B1g                
  3.249   3.251   3.254   3.275   3.280   3.280   3.296   3.322
131 Ag  116 B2u 129 B3u 117 B2u 130 B3u 132 Ag  116 B1g 133 Ag                 
  3.340   3.365   3.370   3.371   3.393   3.432   3.442   3.468
131 B3u 117 B1g 118 B2u 134 Ag  132 B3u 118 B1g 119 B2u 135 Ag                 
  3.472   3.496   3.542   3.557   3.560   3.605   3.662   3.674
133 B3u 134 B3u 136 Ag  119 B1g 135 B3u 120 B2u 121 B2u 120 B1g                
  3.694   3.745   3.756   3.797   3.818   3.896   3.897   3.953
136 B3u 137 Ag  121 B1g 137 B3u 138 Ag  138 B3u 122 B2u 122 B1g                
  4.160   4.176   4.272   4.324   4.512   4.515   4.520   4.524
139 Ag  139 B3u 140 Ag  140 B3u 141 Ag  141 B3u 123 B2u 123 B1g                
  4.532   4.532   4.539   4.542   4.547   4.551   4.574   4.588
142 Ag  124 B2u 142 B3u 143 Ag  124 B1g 125 B2u 143 B3u 125 B1g                
  4.598   4.608   4.621   4.645   4.648   4.670   4.687   4.701
126 B2u 144 Ag  126 B1g 145 Ag  144 B3u 127 B2u 145 B3u 146 Ag                 
  4.712   4.714   4.726   4.755   4.819   4.821   4.853   4.887
146 B3u 127 B1g 147 Ag  128 B2u 147 B3u 128 B1g 129 B2u 148 Ag                 
  4.895   4.910   4.959   4.969   4.970   4.973   4.974   5.032
148 B3u 129 B1g 130 B2u 131 B2u 149 Ag  149 B3u 130 B1g 131 B1g                
  5.051   5.119   5.120   5.240   5.247   5.255   5.341   5.398
150 Ag  151 Ag  150 B3u 132 B2u 132 B1g 151 B3u 152 Ag  152 B3u                
 --------------------------------------------------------------
 
          Ground-State Mulliken Net Atomic Charges

     Atom                 Charge (a.u.)
  ----------------------------------------
      1 H                     0.210966
      2 H                     0.210966
      3 H                     0.204042
      4 H                     0.204042
      5 H                     0.202975
      6 H                     0.202975
      7 H                     0.212162
      8 H                     0.212162
      9 H                     0.212162
     10 H                     0.212162
     11 H                     0.202975
     12 H                     0.202975
     13 H                     0.204042
     14 H                     0.204042
     15 H                     0.210966
     16 H                     0.210966
     17 B                     0.450869
     18 B                     0.396830
     19 B                     0.396830
     20 B                     0.450869
     21 H                     0.196142
     22 H                     0.196142
     23 C                    -0.202612
     24 C                    -0.202612
     25 C                    -0.216577
     26 C                    -0.143430
     27 C                    -0.216577
     28 C                     0.011313
     29 C                     0.011313
     30 C                    -0.194923
     31 C                    -0.148699
     32 C                    -0.148699
     33 C                    -0.194923
     34 C                    -0.201199
     35 C                    -0.141025
     36 C                    -0.141025
     37 C                    -0.201199
     38 C                     0.035868
     39 C                     0.035868
     40 C                    -0.260454
     41 C                    -0.144965
     42 C                    -0.260454
     43 C                     0.012367
     44 C                     0.012367
     45 C                     0.012367
     46 C                     0.012367
     47 C                    -0.260454
     48 C                    -0.144965
     49 C                    -0.260454
     50 C                     0.035868
     51 C                     0.035868
     52 C                    -0.201199
     53 C                    -0.141025
     54 C                    -0.141025
     55 C                    -0.201199
     56 C                    -0.194923
     57 C                    -0.148699
     58 C                    -0.148699
     59 C                    -0.194923
     60 C                     0.011313
     61 C                     0.011313
     62 C                    -0.216577
     63 C                    -0.143430
     64 C                    -0.216577
     65 C                    -0.202612
     66 C                    -0.202612
     67 H                     0.196142
     68 H                     0.196142
  ----------------------------------------
  Sum of atomic charges =     0.000000

 -----------------------------------------------------------------
                    Cartesian Multipole Moments
 -----------------------------------------------------------------
    Charge (ESU x 10^10)
                 0.0000
    Dipole Moment (Debye)
         X       0.0000      Y      -0.0000      Z       0.0000
       Tot       0.0000
    Quadrupole Moments (Debye-Ang)
        XX    -221.5630     XY       0.0000     YY    -234.6966
        XZ      -0.0000     YZ      -0.0000     ZZ    -285.4577
    Octopole Moments (Debye-Ang^2)
       XXX       0.0000    XXY      -0.0000    XYY       0.0000
       YYY      -0.0000    XXZ       0.0000    XYZ       0.0000
       YYZ       0.0000    XZZ       0.0000    YZZ       0.0000
       ZZZ       0.0000
    Hexadecapole Moments (Debye-Ang^3)
      XXXX  -34097.2549   XXXY       0.0000   XXYY   -6988.4344
      XYYY       0.0000   YYYY   -8100.4569   XXXZ       0.0000
      XXYZ      -0.0000   XYYZ       0.0000   YYYZ       0.0000
      XXZZ   -7145.8387   XYZZ       0.0000   YYZZ   -1738.9644
      XZZZ       0.0000   YZZZ       0.0000   ZZZZ    -313.0969
 -----------------------------------------------------------------
 Total job time:  156034.15s(wall), 133480.18s(cpu) 
 Thu Apr 18 04:59:34 2024

======= MOLDEN-FORMATTED INPUT FILE FOLLOWS =======
[Molden Format]
[Atoms] (Angs)
  H      1    1      7.76943300     -3.40591000      0.00000000
  H      2    1      7.76943300      3.40591000     -0.00000000
  H      3    1      5.56499700     -4.73322800      0.00000000
  H      4    1      5.56499700      4.73322800     -0.00000000
  H      5    1      3.11978300     -4.73353700      0.00000000
  H      6    1      3.11978300      4.73353700     -0.00000000
  H      7    1      0.96103500     -3.42287700      0.00000000
  H      8    1      0.96103500      3.42287700     -0.00000000
  H      9    1     -0.96103500     -3.42287700      0.00000000
  H     10    1     -0.96103500      3.42287700     -0.00000000
  H     11    1     -3.11978300     -4.73353700      0.00000000
  H     12    1     -3.11978300      4.73353700     -0.00000000
  H     13    1     -5.56499700     -4.73322800      0.00000000
  H     14    1     -5.56499700      4.73322800     -0.00000000
  H     15    1     -7.76943300     -3.40591000      0.00000000
  H     16    1     -7.76943300      3.40591000     -0.00000000
  B     17    5      5.78570800      0.00000000     -0.00000000
  B     18    5      2.90123600      0.00000000     -0.00000000
  B     19    5     -2.90123600      0.00000000      0.00000000
  B     20    5     -5.78570800      0.00000000      0.00000000
  H     21    1      9.01977900     -1.34997000     -0.00000000
  H     22    1      9.01977900      1.34997000     -0.00000000
  C     23    6      7.93161400     -1.27178800      0.00000000
  C     24    6      7.93161400      1.27178800     -0.00000000
  C     25    6      7.20485900     -2.47558600      0.00000000
  C     26    6      7.30893700      0.00000000     -0.00000000
  C     27    6      7.20485900      2.47558600     -0.00000000
  C     28    6      5.78238700     -2.55985100      0.00000000
  C     29    6      5.78238700      2.55985100     -0.00000000
  C     30    6      5.03154500     -3.78544100      0.00000000
  C     31    6      5.04113900     -1.34379200      0.00000000
  C     32    6      5.04113900      1.34379200     -0.00000000
  C     33    6      5.03154500      3.78544100     -0.00000000
  C     34    6      3.65431100     -3.78626800      0.00000000
  C     35    6      3.65146000     -1.34083200      0.00000000
  C     36    6      3.65146000      1.34083200     -0.00000000
  C     37    6      3.65431100      3.78626800     -0.00000000
  C     38    6      2.90384500     -2.55714600      0.00000000
  C     39    6      2.90384500      2.55714600     -0.00000000
  C     40    6      1.49766300     -2.47944300      0.00000000
  C     41    6      1.39251200      0.00000000     -0.00000000
  C     42    6      1.49766300      2.47944300     -0.00000000
  C     43    6      0.72674400     -1.26567800      0.00000000
  C     44    6      0.72674400      1.26567800     -0.00000000
  C     45    6     -0.72674400     -1.26567800      0.00000000
  C     46    6     -0.72674400      1.26567800     -0.00000000
  C     47    6     -1.49766300     -2.47944300      0.00000000
  C     48    6     -1.39251200     -0.00000000      0.00000000
  C     49    6     -1.49766300      2.47944300     -0.00000000
  C     50    6     -2.90384500     -2.55714600      0.00000000
  C     51    6     -2.90384500      2.55714600     -0.00000000
  C     52    6     -3.65431100     -3.78626800      0.00000000
  C     53    6     -3.65146000     -1.34083200      0.00000000
  C     54    6     -3.65146000      1.34083200     -0.00000000
  C     55    6     -3.65431100      3.78626800     -0.00000000
  C     56    6     -5.03154500     -3.78544100      0.00000000
  C     57    6     -5.04113900     -1.34379200      0.00000000
  C     58    6     -5.04113900      1.34379200     -0.00000000
  C     59    6     -5.03154500      3.78544100     -0.00000000
  C     60    6     -5.78238700     -2.55985100      0.00000000
  C     61    6     -5.78238700      2.55985100     -0.00000000
  C     62    6     -7.20485900     -2.47558600      0.00000000
  C     63    6     -7.30893700     -0.00000000      0.00000000
  C     64    6     -7.20485900      2.47558600     -0.00000000
  C     65    6     -7.93161400     -1.27178800      0.00000000
  C     66    6     -7.93161400      1.27178800     -0.00000000
  H     67    1     -9.01977900     -1.34997000      0.00000000
  H     68    1     -9.01977900      1.34997000      0.00000000

======= END OF MOLDEN-FORMATTED INPUT FILE =======


        *************************************************************
        *                                                           *
        *  Thank you very much for using Q-Chem.  Have a nice day.  *
        *                                                           *
        *************************************************************


