                  Welcome to Q-Chem
     A Quantum Leap Into The Future Of Chemistry


 Q-Chem 6.0 (devel), Q-Chem, Inc., Pleasanton, CA (2022)

 E. Epifanovsky,  A. T. B. Gilbert,  Xintian Feng,  Joonho Lee,  Yuezhi Mao,  
 N. Mardirossian,  P. Pokhilko,  A. White,  M. Wormit,  M. P. Coons,  
 A. L. Dempwolff,  Zhengting Gan,  D. Hait,  P. R. Horn,  L. D. Jacobson,  
 I. Kaliman,  J. Kussmann,  A. W. Lange,  Ka Un Lao,  D. S. Levine,  Jie Liu,  
 S. C. McKenzie,  A. F. Morrison,  K. Nanda,  F. Plasser,  D. R. Rehn,  
 M. L. Vidal,  Zhi-Qiang You,  Ying Zhu,  B. Alam,  B. Albrecht,  
 A. Aldossary,  E. Alguire,  J. H. Andersen,  V. Athavale,  D. Barton,  
 K. Begam,  A. Behn,  N. Bellonzi,  Y. A. Bernard,  E. J. Berquist,  
 H. Burton,  A. Carreras,  K. Carter-Fenk,  Romit Chakraborty,  
 Chandrima Chakravarty,  Junhan Chen,  A. D. Chien,  K. D. Closser,  
 V. Cofer-Shabica,  L. Cunha,  S. Dasgupta,  Jia Deng,  M. de Wergifosse,  
 M. Diedenhofen,  Hainam Do,  S. Ehlert,  Po-Tung Fang,  S. Fatehi,  
 Qingguo Feng,  T. Friedhoff,  B. Ganoe,  J. Gayvert,  Qinghui Ge,  
 G. Gidofalvi,  M. Goldey,  J. Gomes,  C. Gonzalez-Espinoza,  S. Gulania,  
 A. Gunina,  J. A. Gyamfi,  M. W. D. Hanson-Heine,  P. H. P. Harbach,  
 A. W. Hauser,  M. F. Herbst,  M. Hernandez Vera,  M. Hodecker,  
 Z. C. Holden,  S. Houck,  Xunkun Huang,  Kerwin Hui,  B. C. Huynh,  
 K. Ikeda,  M. Ivanov,  Hyunjun Ji,  Zuxin Jin,  Hanjie Jiang,  B. Kaduk,  
 S. Kaehler,  R. Kang,  K. Khistyaev,  Jaehoon Kim,  Yongbin Kim,  
 P. Klunzinger,  Z. Koczor-Benda,  Joong Hoon Koh,  D. Kosenkov,  
 Saikiran Kotaru,  L. Koulias,  T. Kowalczyk,  C. M. Krauter,  K. Kue,  
 A. Kunitsa,  T. Kus,  A. Landau,  K. V. Lawler,  D. Lefrancois,  S. Lehtola,  
 Rain Li,  Shaozhi Li,  Yi-Pei Li,  Jiashu Liang,  M. Liebenthal,  
 Hung-Hsuan Lin,  You-Sheng Lin,  Fenglai Liu,  Kuan-Yu Liu,  
 M. Loipersberger,  A. Luenser,  C. Malbon,  A. Manjanath,  P. Manohar,  
 E. Mansoor,  S. F. Manzer,  Shan-Ping Mao,  A. V. Marenich,  T. Markovich,  
 S. Mason,  F. Matz,  S. A. Maurer,  P. F. McLaughlin,  M. F. S. J. Menger,  
 J.-M. Mewes,  S. A. Mewes,  P. Morgante,  Mohammad Mostafanejad,  
 J. W. Mullinax,  K. J. Oosterbaan,  G. Paran,  V. Parravicini,  
 Alexander C. Paul,  Suranjan K. Paul,  F. Pavosevic,  Zheng Pei,  S. Prager,  
 E. I. Proynov,  E. Ramos,  B. Rana,  A. E. Rask,  A. Rettig,  R. M. Richard,  
 F. Rob,  E. Rossomme,  T. Scheele,  M. Scheurer,  M. Schneider,  
 P. E. Schneider,  N. Sergueev,  S. M. Sharada,  Hengyuan Shen,  
 W. Skomorowski,  D. W. Small,  C. J. Stein,  Yingli Su,  Yu-Chuan Su,  
 E. J. Sundstrom,  Zhen Tao,  J. Thirman,  Hung-Yi Tsai,  T. Tsuchimochi,  
 N. M. Tubman,  C. Utku,  S. P. Veccham,  O. Vydrov,  J. Wenzel,  
 Jonathan Wong,  J. Witte,  A. Yamada,  Chou-Hsun Yang,  Kun Yao,  
 S. Yeganeh,  S. R. Yost,  A. Zech,  F. Zeller,  Igor Ying Zhang,  
 Xing Zhang,  Yu Zhang,  D. Zuev,  A. Aspuru-Guzik,  A. T. Bell,  
 N. A. Besley,  K. B. Bravaya,  B. R. Brooks,  D. Casanova,  Jeng-Da Chai,  
 Hsing-Ta Chen,  S. Coriani,  C. J. Cramer,  A. E. DePrince, III,  
 R. A. DiStasio Jr.,  A. Dreuw,  B. D. Dunietz,  T. R. Furlani,  
 W. A. Goddard III,  S. Grimme,  S. Hammes-Schiffer,  T. Head-Gordon,  
 W. J. Hehre,  Chao-Ping Hsu,  T.-C. Jagau,  Yousung Jung,  A. Klamt,  
 Jing Kong,  D. S. Lambrecht,  Xiangyuan Li,  WanZhen Liang,  N. J. Mayhall,  
 C. W. McCurdy,  J. B. Neaton,  T. Neudecker,  C. Ochsenfeld,  
 J. A. Parkhill,  R. Peverati,  V. A. Rassolov,  Haisheng Ren,  Yihan Shao,  
 L. V. Slipchenko,  R. P. Steele,  J. E. Subotnik,  A. J. W. Thom,  
 A. Tkatchenko,  D. G. Truhlar,  T. Van Voorhis,  Fan Wang,  
 T. A. Wesolowski,  K. B. Whaley,  H. L. Woodcock III,  P. M. Zimmerman,  
 S. Faraji,  P. M. W. Gill,  M. Head-Gordon,  J. M. Herbert,  A. I. Krylov

 Contributors to earlier versions of Q-Chem not listed above: 
 R. D. Adamson,  B. Austin,  R. Baer,  J. Baker,  G. J. O. Beran,  
 K. Brandhorst,  S. T. Brown,  E. F. C. Byrd,  Arup K. Chakraborty,  
 G. K. L. Chan,  Chun-Min Chang,  Yunqing Chen,  C.-L. Cheng,  
 Siu Hung Chien,  D. M. Chipman,  D. L. Crittenden,  H. Dachsel,  
 R. J. Doerksen,  A. D. Dutoi,  R. G. Edgar,  J. Fosso-Tande,  
 L. Fusti-Molnar,  D. Ghosh,  A. Ghysels,  A. Golubeva-Zadorozhnaya,  
 J. Gonthier,  M. S. Gordon,  S. R. Gwaltney,  G. Hawkins,  J. E. Herr,  
 A. Heyden,  S. Hirata,  E. G. Hohenstein,  G. Kedziora,  F. J. Keil,  
 C. Kelley,  Jihan Kim,  R. A. King,  R. Z. Khaliullin,  P. P. Korambath,  
 W. Kurlancheek,  A. Laurent,  A. M. Lee,  M. S. Lee,  S. V. Levchenko,  
 Ching Yeh Lin,  D. Liotard,  E. Livshits,  R. C. Lochan,  I. Lotan,  
 L. A. Martinez-Martinez,  P. E. Maslen,  N. Nair,  D. P. O'Neill,  
 D. Neuhauser,  E. Neuscamman,  C. M. Oana,  R. Olivares-Amaya,  R. Olson,  
 T. M. Perrine,  B. Peters,  P. A. Pieniazek,  A. Prociuk,  Y. M. Rhee,  
 J. Ritchie,  M. A. Rohrdanz,  E. Rosta,  N. J. Russ,  H. F. Schaefer III,  
 M. W. Schmidt,  N. E. Schultz,  S. Sharma,  N. Shenvi,  C. D. Sherrill,  
 A. C. Simmonett,  A. Sodt,  T. Stein,  D. Stuck,  K. S. Thanthiriwatte,  
 V. Vanovschi,  L. Vogt,  Tao Wang,  A. Warshel,  M. A. Watson,  
 C. F. Williams,  Q. Wu,  X. Xu,  Jun Yang,  W. Zhang,  Yan Zhao

   Please cite Q-Chem as follows:
  "Software for the frontiers of quantum chemistry:
   An overview of developments in the Q-Chem 5 package"
   J. Chem. Phys. 155, 084801 (2021)
   https://doi.org/10.1063/5.0055522 (open access)

 Q-Chem 6.0.1 for Intel X86 EM64T Linux

 Parts of Q-Chem use Armadillo 9.900.5 (Nocturnal Misbehaviour).
 http://arma.sourceforge.net/

 Q-Chem begins on Tue Apr 16 09:38:57 2024  

 Host: atlas-301
0

     Scratch files written to ./qchem24372//
 Processing $rem in /scratch/abel/SOFTWARE/qchem/config/preferences:
 Processing $rem in /dipc/acebg/.qchemrc:

 Checking the input file for inconsistencies... 	...done.

--------------------------------------------------------------
User input:
--------------------------------------------------------------
$comment
 RAS-SF CALCULATION
$end

$molecule
READ C44H20B4_singlet.molecule
$end

$rem
!**CALCULATION TYPE***     
JOBTYPE            sp    
EXCHANGE           HF
CORRELATION        RASCI    !RASCI=Casanova; RASCI2=Zimmerman
BASIS              6-31G*
BASIS2             STO-3G

!***SCF REFERENCE***
!SKIP_SCFMAN        FALSE
UNRESTRICTED       FALSE
!SCF_GUESS          core
!SCF_GUESS_MIX      FALSE
!SCF_GUESS_ALWAYS   FALSE
MAX_SCF_CYCLES      999
SCF_CONVERGENCE    10
SCF_ALGORITHM      DIIS_GDM !DIIS,DM,DIIS_DM,GDM,DIIS_GDM,GD

!SYMMETRY           TRUE   !use of symmetry for calculating integrals
!SYM_IGNORE         FALSE  !turn off using symmetry
!SYM_TOL            5      !tolerance for determining point group
!USE_ABELIAN_SUBGROUP      !define to use abelian group

!THRESH             14
!SCF_FINAL_PRINT     1 !0,1,2,3

!****RAS-SF****
RAS_ROOTS          20       !number of RAS-CI roots to be computed
SET_ITER           150     !number of iterations in RASCI
RAS_ELEC 4
!RAS_ELEC_ALPHA 3
!RAS_ELEC_BETA 1

RAS_ACT 4
RAS_ACT_ORB [151, 152, 153, 154]
RAS_OCC 150
N_FROZEN_CORE      FC     !Number of frozen core orbitals
N_FROZEN_VIRTUAL   0      !Number of frozen virtual orbitals

!RAS_DO_HOLE        TRUE   !presence of hole excitations in RAS-CI wave function
!RAS_DO_PART        TRUE   !presence of particle excitations
!RAS_AMPL_PRINT     10     !threshold (×10 2 ) for the CI amplitudes

!RAS_GUESS_CS       0      !number of closed shell guess conﬁgurations
RAS_SPIN_MULT      0      !spin multiplicity. Only for Ms = 0 
!RAS_SRDFT          FALSE  !short-range density functional RAS-CI
!RAS_NFRAG          0     !fragments of excitation analysis in RASCI

RAS_PRINT          2      !level of information
!RAS_NATORB         TRUE   !computation of the natural orbital occupancies
!RAS_NATORB_STATE  0      !Saves NO of i RAS computed state in .fchk ﬁle
!RAS_FOD            TRUE

!****RAS-SOC****
CALC_SOC           TRUE   !calculate SOC for EOM-CC, RAS-CI, ADC, TDDFT/TDA and TDDFT
!RAS_SOC_2E        TRUE   !two-electron mean-ﬁeld contribution, default=true
RAS_SOC_SYM_DENS   TRUE   !averaging of α and β densities

!****MEMORY****
MEM_TOTAL          60000 !Default 2000 MB
MEM_STATIC         20000  !Default 64 MB

!**Molecular Properties and Analysis **                                                                                          
!POP_MULLIKEN       TRUE   !Run Mulliken population analysis
!LOWDIN_POPULATION  TRUE   !Run Löwdin population analysis
GUI                0       !Checkpoints generation
STATE_ANALYSIS     TRUE

!**Wave function analysis of RAS-CI states: MOLDEN**
!PLOTS = 0     ! Note: This can be omitted, default is 0
!NTO_PAIRS = 2 ! Note: This can be omitted, default is 2
!GUI 0
!MOLDEN_FORMAT      TRUE
!PRINT_ORBITALS     15

!**Wave function analysis of RAS-CI state: CUBE**
!NTO_PAIRS = 2 ! Note: This can be omitted, default is 2
!PLOTS = 1
!GUI 0

!**SR-DFT**
!RAS_SRDFT           TRUE !Perform short-range density functional RAS-CI
!RAS_SRDFT_EXC       0 !EX functional. 0=HF. 
!RAS_SRDFT_ONLY_COR  TRUE !No use of EXC functional
!RAS_SRDFT_COR       srPBE !short-range correlation functional
!ras_srdft_0         TRUE !true: no iteration (one-shot); false: iteration
!RAS_OMEGA           400 !Coulomb range-separation parameter. def=400
!RAS_SRDFT_DAMP     0.5 !dumping factor. def=0.5
$end

!$plots
!   grid_points 100 100 100
!   grid_range  (-10,10) (-10,10) (-10,10)
!$end

--------------------------------------------------------------
 ----------------------------------------------------------------
             Standard Nuclear Orientation (Angstroms)
    I     Atom           X                Y                Z
 ----------------------------------------------------------------
    1      H       7.7694330000    -3.4059100000     0.0000000000
    2      H       7.7694330000     3.4059100000    -0.0000000000
    3      H       5.5649970000    -4.7332280000     0.0000000000
    4      H       5.5649970000     4.7332280000    -0.0000000000
    5      H       3.1197830000    -4.7335370000     0.0000000000
    6      H       3.1197830000     4.7335370000    -0.0000000000
    7      H       0.9610350000    -3.4228770000     0.0000000000
    8      H       0.9610350000     3.4228770000    -0.0000000000
    9      H      -0.9610350000    -3.4228770000     0.0000000000
   10      H      -0.9610350000     3.4228770000    -0.0000000000
   11      H      -3.1197830000    -4.7335370000     0.0000000000
   12      H      -3.1197830000     4.7335370000    -0.0000000000
   13      H      -5.5649970000    -4.7332280000     0.0000000000
   14      H      -5.5649970000     4.7332280000    -0.0000000000
   15      H      -7.7694330000    -3.4059100000     0.0000000000
   16      H      -7.7694330000     3.4059100000    -0.0000000000
   17      B       5.7857080000     0.0000000000    -0.0000000000
   18      B       2.9012360000     0.0000000000    -0.0000000000
   19      B      -2.9012360000     0.0000000000     0.0000000000
   20      B      -5.7857080000     0.0000000000     0.0000000000
   21      H       9.0197790000    -1.3499700000    -0.0000000000
   22      H       9.0197790000     1.3499700000    -0.0000000000
   23      C       7.9316140000    -1.2717880000     0.0000000000
   24      C       7.9316140000     1.2717880000    -0.0000000000
   25      C       7.2048590000    -2.4755860000     0.0000000000
   26      C       7.3089370000     0.0000000000    -0.0000000000
   27      C       7.2048590000     2.4755860000    -0.0000000000
   28      C       5.7823870000    -2.5598510000     0.0000000000
   29      C       5.7823870000     2.5598510000    -0.0000000000
   30      C       5.0315450000    -3.7854410000     0.0000000000
   31      C       5.0411390000    -1.3437920000     0.0000000000
   32      C       5.0411390000     1.3437920000    -0.0000000000
   33      C       5.0315450000     3.7854410000    -0.0000000000
   34      C       3.6543110000    -3.7862680000     0.0000000000
   35      C       3.6514600000    -1.3408320000     0.0000000000
   36      C       3.6514600000     1.3408320000    -0.0000000000
   37      C       3.6543110000     3.7862680000    -0.0000000000
   38      C       2.9038450000    -2.5571460000     0.0000000000
   39      C       2.9038450000     2.5571460000    -0.0000000000
   40      C       1.4976630000    -2.4794430000     0.0000000000
   41      C       1.3925120000     0.0000000000    -0.0000000000
   42      C       1.4976630000     2.4794430000    -0.0000000000
   43      C       0.7267440000    -1.2656780000     0.0000000000
   44      C       0.7267440000     1.2656780000    -0.0000000000
   45      C      -0.7267440000    -1.2656780000     0.0000000000
   46      C      -0.7267440000     1.2656780000    -0.0000000000
   47      C      -1.4976630000    -2.4794430000     0.0000000000
   48      C      -1.3925120000    -0.0000000000     0.0000000000
   49      C      -1.4976630000     2.4794430000    -0.0000000000
   50      C      -2.9038450000    -2.5571460000     0.0000000000
   51      C      -2.9038450000     2.5571460000    -0.0000000000
   52      C      -3.6543110000    -3.7862680000     0.0000000000
   53      C      -3.6514600000    -1.3408320000     0.0000000000
   54      C      -3.6514600000     1.3408320000    -0.0000000000
   55      C      -3.6543110000     3.7862680000    -0.0000000000
   56      C      -5.0315450000    -3.7854410000     0.0000000000
   57      C      -5.0411390000    -1.3437920000     0.0000000000
   58      C      -5.0411390000     1.3437920000    -0.0000000000
   59      C      -5.0315450000     3.7854410000    -0.0000000000
   60      C      -5.7823870000    -2.5598510000     0.0000000000
   61      C      -5.7823870000     2.5598510000    -0.0000000000
   62      C      -7.2048590000    -2.4755860000     0.0000000000
   63      C      -7.3089370000    -0.0000000000     0.0000000000
   64      C      -7.2048590000     2.4755860000    -0.0000000000
   65      C      -7.9316140000    -1.2717880000     0.0000000000
   66      C      -7.9316140000     1.2717880000    -0.0000000000
   67      H      -9.0197790000    -1.3499700000     0.0000000000
   68      H      -9.0197790000     1.3499700000     0.0000000000
 ----------------------------------------------------------------
 Molecular Point Group                 D2h   NOp =  8
 Largest Abelian Subgroup              D2h   NOp =  8
 Nuclear Repulsion Energy =        4913.04836819 hartrees
 There are      152 alpha and      152 beta electrons
 Requested basis set is 6-31G(d)
 There are 232 shells and 760 basis functions

 Q-Chem warning in module libmdc/get_mega.C, line 167:

 Allowed MEM_STATIC has been capped at MEM_STATIC=8191.
 Reduce the value of MEM_STATIC to silence this warning.


 Total QAlloc Memory Limit  60000 MB
 Mega-Array Size      8007 MB
 MEM_STATIC part      8191 MB

 A cutoff of  1.0D-14 yielded  12507 shell pairs
 There are    150234 function pairs
 Smallest overlap matrix eigenvalue = 2.31E-04

 Scale SEOQF with 1.000000e-02/1.000000e-01/1.000000e+00

 Standard Electronic Orientation quadrupole field applied
 Nucleus-field energy     =     0.0000001511 hartrees
 Requested basis set is STO-3G
 There are 116 shells and 260 basis functions
 A cutoff of  1.0D-14 yielded   3224 shell pairs
 There are     20786 function pairs
 Smallest overlap matrix eigenvalue = 1.71E-01
 Guess from superposition of atomic densities
 Warning:  Energy on first SCF cycle will be non-variational
 SAD guess density has 304.000001 electrons
 A restricted Hartree-Fock SCF calculation will be
 performed using Pulay DIIS + Geometric Direct Minimization
 SCF converges when RMS gradient is below 1.0E-04
 ---------------------------------------
  Cycle       Energy         DIIS Error
 ---------------------------------------
    1   -1759.7272781497      7.30E-02
    2   -1754.5014429194      5.19E-03 Done DIIS. Switching to GDM
    3   -1754.8563664083      6.63E-02 Normal BFGS step
    4   -1754.8885207477      6.31E-02 Normal BFGS step
    5   -1754.9146724626      1.25E-02 Normal BFGS step
    6   -1754.9159238950      8.97E-03 Normal BFGS step
    7   -1754.9165587991      3.32E-03 Normal BFGS step
    8   -1754.9167369067      8.69E-04 Normal BFGS step
    9   -1754.9167530061      4.88E-04 Normal BFGS step
   10   -1754.9167561569      2.51E-04 Normal BFGS step
   11   -1754.9167568441      1.34E-04 Normal BFGS step
   12   -1754.9167570548      3.64E-05 Convergence criterion met
 ---------------------------------------
 SCF time:  CPU 37.33 s  wall 38.29 s
 SCF   energy in the small basis set = -1754.91675705
 Total energy in the small basis set = -1754.91675705
 ----------------------------------------------------
  Cycle       Energy    
 ----------------------------------------------------
    1    -226.6406150452     -2.27E+02
 A restricted Hartree-Fock SCF calculation will be
 performed using Pulay DIIS + Geometric Direct Minimization
 SCF converges when RMS gradient is below 1.0E-10
 ---------------------------------------
  Cycle       Energy        RMS Gradient
 ---------------------------------------
    1   -1775.7798399798      5.08E-03 Done DIIS. Switching to GDM
    2   -1776.1326731085      4.70E-01 Descent step
    3   -1776.5123892023      8.68E-02 Normal BFGS step
    4   -1776.5809190817      4.76E-02 Normal BFGS step
    5   -1776.5983271218      2.14E-02 Normal BFGS step
    6   -1776.6010006099      7.33E-03 Normal BFGS step
    7   -1776.6016924249      8.43E-03 Normal BFGS step
    8   -1776.6021782643      5.78E-03 Normal BFGS step
    9   -1776.6024917272      3.28E-03 Normal BFGS step
   10   -1776.6026764307      3.07E-03 Normal BFGS step
   11   -1776.6027698966      1.93E-03 Normal BFGS step
   12   -1776.6027994516      6.18E-04 Normal BFGS step
   13   -1776.6028054470      1.95E-04 Normal BFGS step
   14   -1776.6028064232      7.17E-05 Normal BFGS step
   15   -1776.6028065852      3.03E-05 Normal BFGS step
   16   -1776.6028066048      1.06E-05 Normal BFGS step
   17   -1776.6028066081      5.21E-06 Normal BFGS step
   18   -1776.6028066086      2.06E-06 Normal BFGS step
   19   -1776.6028066087      7.43E-07 Normal BFGS step
   20   -1776.6028066087      2.38E-07 Normal BFGS step
   21   -1776.6028066087      1.26E-07 Normal BFGS step
   22   -1776.6028066087      9.03E-08 Normal BFGS step
   GDM::WARNING energy changes are now smaller than effective accuracy.
   GDM::        calculation will continue, but THRESH should be increased
   GDM::        or SCF_CONVERGENCE decreased.
   GDM::        effective_thresh =   2.875985474076748E-009
   23   -1776.6028066087      2.98E-08 Normal BFGS step
   GDM::WARNING energy changes are now smaller than effective accuracy.
   GDM::        calculation will continue, but THRESH should be increased
   GDM::        or SCF_CONVERGENCE decreased.
   GDM::        effective_thresh =   2.875985474076748E-009
   24   -1776.6028066087      1.07E-08 Normal BFGS step
   GDM::WARNING energy changes are now smaller than effective accuracy.
   GDM::        calculation will continue, but THRESH should be increased
   GDM::        or SCF_CONVERGENCE decreased.
   GDM::        effective_thresh =   2.875985474076748E-009
   25   -1776.6028066087      5.41E-09 Normal BFGS step
   26   -1776.6028066087      1.52E-09 Normal BFGS step
   GDM::WARNING energy changes are now smaller than effective accuracy.
   GDM::        calculation will continue, but THRESH should be increased
   GDM::        or SCF_CONVERGENCE decreased.
   GDM::        effective_thresh =   2.875985474076748E-009
   27   -1776.6028066087      6.27E-10 Normal BFGS step
   GDM::WARNING energy changes are now smaller than effective accuracy.
   GDM::        calculation will continue, but THRESH should be increased
   GDM::        or SCF_CONVERGENCE decreased.
   GDM::        effective_thresh =   2.875985474076748E-009
   28   -1776.6028066087      3.99E-10 Normal BFGS step
   29   -1776.6028066087      2.18E-10 Normal BFGS step
   GDM::WARNING energy changes are now smaller than effective accuracy.
   GDM::        calculation will continue, but THRESH should be increased
   GDM::        or SCF_CONVERGENCE decreased.
   GDM::        effective_thresh =   2.875985474076748E-009
   30   -1776.6028066087      2.04E-10 Normal BFGS step
   GDM::WARNING dE/dT very small =   2.229476915115553E-012
        Return without modification 
   31   -1776.6028066087      8.40E-11 Convergence criterion met
 ---------------------------------------
 SCF time:  CPU 1884.69 s  wall 1906.56 s
 SCF   energy in the final basis set = -1776.60280661
 Total energy in the final basis set = -1776.60280661
  
     ##========================================##
     ||                                        ||
     ||              R A S M A N 2             ||
     ||________________________________________||
     ||                                        ||
     ||  Author:                               ||
     ||                                        ||
     ||        David Casanova (2010)           ||
     ||                                        ||
     ##========================================##
  
Setting single-point xc-functionals (if necessary)

  ***************************************************
  *  RAS-CI Dimensions:                             *
  *                                                 *
  *  Active Elec.:   4 ( 2, 2)   Active Orb.:   4   *
  *  Doubly Occ. : 150           Doubly Vir.: 606   *
  *  Frozen Occ. :  48           Frozen Vir.:   0   *
  *                                                 *
  *  Total CI configurations:     34020             * 
  *    Active configurations:        36             * 
  *      Hole configurations:      4896             * 
  *  Particle configurations:     29088             * 
  *                                                 *
  *   Requested states:       20                    *
  *  Spin multiplicity: Any multiplicity            *
  *                                                 *
  ***************************************************
-----------------------------------------
    Memory requirements of RASCI

 Each CI-vector requires      0.26 MiB 
 Max. subspace vectors           3000      

 Reduced Lists                0.00 MiB 
 Excitation Lists             0.00 MiB 
 Excitation Lists Sign        0.00 MiB 
 CI-space (Max)             852.53 MiB 
 Integrals                  115.19 MiB 
 Memory required (Max)      852.54 MiB 
 Memory available          7811.55 MiB 

    Disk requirements of RASCI

 Fock matrix                  8.81 MiB 
 2-electron integrals       200.18 MiB 
 CI-space                  1557.31 MiB 
 Disk required             1766.31 MiB 
-----------------------------------------
  
RAS1 HF-like energy:          -1775.0840857935
 Computing integrals
 Computing J and K matrices
 Computing addressing
 Making amplitude guesses
 
Direct CI diagonalization
 ---------------------------------------------------
 Iter    Rts Conv    Rts Left    Ttl Dev     Max Dev
 ---------------------------------------------------
   1         0          20      0.007812    0.000504
   2         0          20      0.005015    0.000348
   3         0          20      0.003961    0.000298
   4         0          20      0.003013    0.000286
   5         0          20      0.004090    0.000613
   6         0          20      0.003065    0.000372
   7         0          20      0.003109    0.000397
   8         0          20      0.002431    0.000341
   9         0          20      0.001884    0.000271
  10         0          20      0.001809    0.000326
  11         2          18      0.001527    0.000276
  12         2          18      0.001238    0.000284
  13         3          17      0.001076    0.000306
  14         5          15      0.000737    0.000185
  15         5          15      0.000481    0.000131
  16         7          13      0.000277    0.000076
  17         9          11      0.000174    0.000050
  18         9          11      0.000109    0.000032
  19        11           9      0.000065    0.000020
  20        14           6      0.000041    0.000013
  21        15           5      0.000026    0.000007
  22        15           5      0.000018    0.000004
  23        17           3      0.000013    0.000003
  24        19           1      0.000010    0.000002
  25        20           0      0.000009    0.000001    Roots Converged
 ---------------------------------------------------
   
**************************************************
 RAS-CI total energy for state   1:  -1776.630398738364
  Excitation energy (eV) =  0.000000000000
  State symmetry: Ag    (D2h      )
  <S^2>      :  0.0000
  Dipole Moment:    0.0000 X     0.0000 Y    -0.0000 Z
 NATURAL OCCUPATION NUMBERS (higher than 1.0E-05)
            1           2           3           4           5           6
    1   2.0000000   2.0000000   2.0000000   2.0000000   2.0000000   2.0000000
            7           8           9          10          11          12
    1   2.0000000   2.0000000   2.0000000   2.0000000   2.0000000   2.0000000
           13          14          15          16          17          18
    1   2.0000000   2.0000000   2.0000000   2.0000000   2.0000000   2.0000000
           19          20          21          22          23          24
    1   2.0000000   2.0000000   2.0000000   2.0000000   2.0000000   2.0000000
           25          26          27          28          29          30
    1   2.0000000   2.0000000   2.0000000   2.0000000   2.0000000   2.0000000
           31          32          33          34          35          36
    1   2.0000000   2.0000000   2.0000000   2.0000000   2.0000000   2.0000000
           37          38          39          40          41          42
    1   2.0000000   2.0000000   2.0000000   2.0000000   2.0000000   2.0000000
           43          44          45          46          47          48
    1   2.0000000   2.0000000   2.0000000   2.0000000   2.0000000   2.0000000
           49          50          51          52          53          54
    1   2.0000000   2.0000000   2.0000000   2.0000000   2.0000000   2.0000000
           55          56          57          58          59          60
    1   2.0000000   2.0000000   2.0000000   2.0000000   2.0000000   2.0000000
           61          62          63          64          65          66
    1   2.0000000   2.0000000   2.0000000   2.0000000   2.0000000   2.0000000
           67          68          69          70          71          72
    1   2.0000000   2.0000000   2.0000000   2.0000000   2.0000000   2.0000000
           73          74          75          76          77          78
    1   2.0000000   2.0000000   2.0000000   2.0000000   2.0000000   2.0000000
           79          80          81          82          83          84
    1   2.0000000   2.0000000   2.0000000   2.0000000   2.0000000   2.0000000
           85          86          87          88          89          90
    1   2.0000000   2.0000000   2.0000000   2.0000000   2.0000000   2.0000000
           91          92          93          94          95          96
    1   2.0000000   2.0000000   2.0000000   2.0000000   2.0000000   2.0000000
           97          98          99         100         101         102
    1   2.0000000   2.0000000   2.0000000   2.0000000   2.0000000   2.0000000
          103         104         105         106         107         108
    1   2.0000000   2.0000000   2.0000000   2.0000000   2.0000000   2.0000000
          109         110         111         112         113         114
    1   2.0000000   2.0000000   2.0000000   2.0000000   2.0000000   2.0000000
          115         116         117         118         119         120
    1   2.0000000   2.0000000   2.0000000   2.0000000   2.0000000   2.0000000
          121         122         123         124         125         126
    1   2.0000000   2.0000000   2.0000000   2.0000000   2.0000000   2.0000000
          127         128         129         130         131         132
    1   2.0000000   2.0000000   2.0000000   2.0000000   2.0000000   2.0000000
          133         134         135         136         137         138
    1   2.0000000   1.9999999   1.9999991   1.9999988   1.9999987   1.9999964
          139         140         141         142         143         144
    1   1.9999902   1.9999884   1.9999477   1.9998973   1.9998526   1.9998491
          145         146         147         148         149         150
    1   1.9998456   1.9997311   1.9990493   1.9973863   1.9908610   1.9607463
          151         152         153         154         155         156
    1   1.9284662   1.8474738   0.1423008   0.1170557   0.0083166   0.0049702
          157         158         159         160         161         162
    1   0.0015001   0.0009873   0.0006417   0.0006374   0.0002396   0.0001780
          163         164         165         166
    1   0.0000227   0.0000199   0.0000195   0.0000144

 Head-Gordon Nu:    0.55
 Head-Gordon Nu_nl: 0.22
 Created directory ./qchem24372/plots

  Amplitudes : 
  
 | HOLE  | ALPHA | BETA  | PART  |    AMPLITUDE 
--------------------------------------------------
 |       | 1100  | 1100  |       |     9.2468692059386E-01
 |       | 1001  | 1001  |       |    -1.2155451899097E-01
 |       | 0110  | 0110  |       |    -1.7763492056456E-01
 | 150   | 1110  | 0101  |       |     1.0084798438562E-01
 | 150   | 0101  | 1110  |       |     1.0084798438562E-01
--------------------------------------------------
*** Contributions RASCI wfn    Active:  92.01
                                 Hole:   5.88
                                 Part:   2.12

      Mulliken population analysis 
 ---------------------------------------------------
   Atom    Charge (a.u.)   Spin (a.u.)  
 ---------------------------------------------------
   1  H    0.210966       -0.000000 
   2  H    0.210966       -0.000000 
   3  H    0.204042       -0.000000 
   4  H    0.204042       -0.000000 
   5  H    0.202975       -0.000000 
   6  H    0.202975       -0.000000 
   7  H    0.212162       -0.000000 
   8  H    0.212162       -0.000000 
   9  H    0.212162       -0.000000 
  10  H    0.212162       -0.000000 
  11  H    0.202975       -0.000000 
  12  H    0.202975       -0.000000 
  13  H    0.204042       -0.000000 
  14  H    0.204042       -0.000000 
  15  H    0.210966       -0.000000 
  16  H    0.210966       -0.000000 
  17  B    0.432537        0.000000 
  18  B    0.392723       -0.000000 
  19  B    0.392723       -0.000000 
  20  B    0.432537        0.000000 
  21  H    0.196142       -0.000000 
  22  H    0.196142       -0.000000 
  23  C   -0.198115       -0.000000 
  24  C   -0.198115       -0.000000 
  25  C   -0.222456        0.000000 
  26  C   -0.147209        0.000000 
  27  C   -0.222456        0.000000 
  28  C    0.018974       -0.000000 
  29  C    0.018974       -0.000000 
  30  C   -0.193641       -0.000000 
  31  C   -0.156742        0.000000 
  32  C   -0.156742       -0.000000 
  33  C   -0.193641       -0.000000 
  34  C   -0.194870       -0.000000 
  35  C   -0.143348       -0.000000 
  36  C   -0.143348       -0.000000 
  37  C   -0.194870       -0.000000 
  38  C    0.032697       -0.000000 
  39  C    0.032697       -0.000000 
  40  C   -0.249258       -0.000000 
  41  C   -0.140672       -0.000000 
  42  C   -0.249258       -0.000000 
  43  C    0.011781       -0.000000 
  44  C    0.011781       -0.000000 
  45  C    0.011781       -0.000000 
  46  C    0.011781       -0.000000 
  47  C   -0.249258       -0.000000 
  48  C   -0.140672       -0.000000 
  49  C   -0.249258       -0.000000 
  50  C    0.032697        0.000000 
  51  C    0.032697       -0.000000 
  52  C   -0.194870       -0.000000 
  53  C   -0.143348       -0.000000 
  54  C   -0.143348       -0.000000 
  55  C   -0.194870       -0.000000 
  56  C   -0.193641        0.000000 
  57  C   -0.156742       -0.000000 
  58  C   -0.156742        0.000000 
  59  C   -0.193641       -0.000000 
  60  C    0.018974       -0.000000 
  61  C    0.018974       -0.000000 
  62  C   -0.222456        0.000000 
  63  C   -0.147209        0.000000 
  64  C   -0.222456        0.000000 
  65  C   -0.198115       -0.000000 
  66  C   -0.198115       -0.000000 
  67  H    0.196142       -0.000000 
  68  H    0.196142       -0.000000 
 ---------------------------------------------------
   Sum:    0.000000        0.000000 
 ---------------------------------------------------
 
*** Unpaired Electrons
 Yamaguchi Nd:         1.04
  
**************************************************
 RAS-CI total energy for state   2:  -1776.619974152153
  Excitation energy (eV) =  0.283667423348
  State symmetry: B1g   (D2h      )
  <S^2>      :  2.0000
  Dipole Moment:    0.0000 X     0.0000 Y    -0.0000 Z
  Trans. Moment:    0.0000 X    -0.0000 Y    -0.0000 Z
  Strength   :  0.000000
  Natural transition orbitals ( 1 -> 2 ):
   e-/hole pair  1:  ampl =  0.886374 ( 78.6%)   [4 : 5]
   e-/hole pair  2:  ampl =  0.233045 (  5.4%)   [3 : 6]
   Sum of square amplitudes: 0.85

 NATURAL OCCUPATION NUMBERS (higher than 1.0E-05)
            1           2           3           4           5           6
    1   2.0000000   2.0000000   2.0000000   2.0000000   2.0000000   2.0000000
            7           8           9          10          11          12
    1   2.0000000   2.0000000   2.0000000   2.0000000   2.0000000   2.0000000
           13          14          15          16          17          18
    1   2.0000000   2.0000000   2.0000000   2.0000000   2.0000000   2.0000000
           19          20          21          22          23          24
    1   2.0000000   2.0000000   2.0000000   2.0000000   2.0000000   2.0000000
           25          26          27          28          29          30
    1   2.0000000   2.0000000   2.0000000   2.0000000   2.0000000   2.0000000
           31          32          33          34          35          36
    1   2.0000000   2.0000000   2.0000000   2.0000000   2.0000000   2.0000000
           37          38          39          40          41          42
    1   2.0000000   2.0000000   2.0000000   2.0000000   2.0000000   2.0000000
           43          44          45          46          47          48
    1   2.0000000   2.0000000   2.0000000   2.0000000   2.0000000   2.0000000
           49          50          51          52          53          54
    1   2.0000000   2.0000000   2.0000000   2.0000000   2.0000000   2.0000000
           55          56          57          58          59          60
    1   2.0000000   2.0000000   2.0000000   2.0000000   2.0000000   2.0000000
           61          62          63          64          65          66
    1   2.0000000   2.0000000   2.0000000   2.0000000   2.0000000   2.0000000
           67          68          69          70          71          72
    1   2.0000000   2.0000000   2.0000000   2.0000000   2.0000000   2.0000000
           73          74          75          76          77          78
    1   2.0000000   2.0000000   2.0000000   2.0000000   2.0000000   2.0000000
           79          80          81          82          83          84
    1   2.0000000   2.0000000   2.0000000   2.0000000   2.0000000   2.0000000
           85          86          87          88          89          90
    1   2.0000000   2.0000000   2.0000000   2.0000000   2.0000000   2.0000000
           91          92          93          94          95          96
    1   2.0000000   2.0000000   2.0000000   2.0000000   2.0000000   2.0000000
           97          98          99         100         101         102
    1   2.0000000   2.0000000   2.0000000   2.0000000   2.0000000   2.0000000
          103         104         105         106         107         108
    1   2.0000000   2.0000000   2.0000000   2.0000000   2.0000000   2.0000000
          109         110         111         112         113         114
    1   2.0000000   2.0000000   2.0000000   2.0000000   2.0000000   2.0000000
          115         116         117         118         119         120
    1   2.0000000   2.0000000   2.0000000   2.0000000   2.0000000   2.0000000
          121         122         123         124         125         126
    1   2.0000000   2.0000000   2.0000000   2.0000000   2.0000000   2.0000000
          127         128         129         130         131         132
    1   2.0000000   2.0000000   2.0000000   2.0000000   2.0000000   2.0000000
          133         134         135         136         137         138
    1   1.9999993   1.9999991   1.9999909   1.9999872   1.9999867   1.9999637
          139         140         141         142         143         144
    1   1.9999457   1.9998936   1.9998731   1.9998481   1.9992624   1.9991985
          145         146         147         148         149         150
    1   1.9989033   1.9982330   1.9955121   1.9939261   1.9761249   1.9365310
          151         152         153         154         155         156
    1   1.8825950   1.0539576   0.9546782   0.1913717   0.0105152   0.0034780
          157         158         159         160         161         162
    1   0.0022231   0.0014606   0.0007142   0.0005634   0.0004957   0.0004242
          163         164         165         166
    1   0.0001865   0.0000779   0.0000210   0.0000153

 Head-Gordon Nu:    2.33
 Head-Gordon Nu_nl: 2.18

  Amplitudes : 
  
 | HOLE  | ALPHA | BETA  | PART  |    AMPLITUDE 
--------------------------------------------------
 |       | 1100  | 1010  |       |     6.4114106193710E-01
 |       | 1010  | 1100  |       |    -6.4114102070499E-01
 | 149   | 1101  | 1100  |       |     1.6649595146442E-01
 | 149   | 1100  | 1101  |       |    -1.6649594528164E-01
--------------------------------------------------
*** Contributions RASCI wfn    Active:  86.46
                                 Hole:  11.25
                                 Part:   2.29

      Mulliken population analysis 
 ---------------------------------------------------
   Atom    Charge (a.u.)   Spin (a.u.)  
 ---------------------------------------------------
   1  H    0.210966       -0.000000 
   2  H    0.210966       -0.000000 
   3  H    0.204042       -0.000000 
   4  H    0.204042       -0.000000 
   5  H    0.202975       -0.000000 
   6  H    0.202975       -0.000000 
   7  H    0.212162       -0.000000 
   8  H    0.212162       -0.000000 
   9  H    0.212162       -0.000000 
  10  H    0.212162       -0.000000 
  11  H    0.202975       -0.000000 
  12  H    0.202975       -0.000000 
  13  H    0.204042       -0.000000 
  14  H    0.204042       -0.000000 
  15  H    0.210966       -0.000000 
  16  H    0.210966       -0.000000 
  17  B    0.377093       -0.000001 
  18  B    0.320420       -0.000000 
  19  B    0.320420       -0.000000 
  20  B    0.377093       -0.000001 
  21  H    0.196142       -0.000000 
  22  H    0.196142       -0.000000 
  23  C   -0.168666       -0.000000 
  24  C   -0.168666       -0.000000 
  25  C   -0.251854       -0.000000 
  26  C   -0.172356        0.000000 
  27  C   -0.251854       -0.000000 
  28  C    0.050832        0.000000 
  29  C    0.050832        0.000000 
  30  C   -0.188129        0.000000 
  31  C   -0.174755       -0.000000 
  32  C   -0.174755       -0.000000 
  33  C   -0.188129        0.000000 
  34  C   -0.180551        0.000000 
  35  C   -0.138407       -0.000000 
  36  C   -0.138407       -0.000000 
  37  C   -0.180551        0.000000 
  38  C    0.047165        0.000000 
  39  C    0.047165        0.000000 
  40  C   -0.236779        0.000000 
  41  C   -0.195812        0.000000 
  42  C   -0.236779        0.000000 
  43  C    0.050186        0.000000 
  44  C    0.050186        0.000000 
  45  C    0.050186        0.000000 
  46  C    0.050186        0.000000 
  47  C   -0.236779        0.000000 
  48  C   -0.195812        0.000000 
  49  C   -0.236779        0.000000 
  50  C    0.047165        0.000000 
  51  C    0.047165        0.000000 
  52  C   -0.180551        0.000000 
  53  C   -0.138407       -0.000000 
  54  C   -0.138407       -0.000000 
  55  C   -0.180551        0.000000 
  56  C   -0.188129        0.000000 
  57  C   -0.174755       -0.000000 
  58  C   -0.174755       -0.000000 
  59  C   -0.188129        0.000000 
  60  C    0.050832        0.000000 
  61  C    0.050832        0.000000 
  62  C   -0.251854       -0.000000 
  63  C   -0.172356        0.000000 
  64  C   -0.251854       -0.000000 
  65  C   -0.168666       -0.000000 
  66  C   -0.168666       -0.000000 
  67  H    0.196142       -0.000000 
  68  H    0.196142       -0.000000 
 ---------------------------------------------------
   Sum:    0.000000       -0.000000 
 ---------------------------------------------------
 
*** Unpaired Electrons
 Yamaguchi Nd:         2.80
  
**************************************************
 RAS-CI total energy for state   3:  -1776.613593386159
  Excitation energy (eV) =  0.457296900026
  State symmetry: B1g   (D2h      )
  <S^2>      :  0.0000
  Dipole Moment:    0.0000 X    -0.0000 Y    -0.0000 Z
  Trans. Moment:   -0.0000 X    -0.0000 Y     0.0000 Z
  Strength   :  0.000000
  Natural transition orbitals ( 1 -> 3 ):
   e-/hole pair  1:  ampl =  0.854208 ( 73.0%)   [4 : 5]
   e-/hole pair  2:  ampl =  0.115432 (  1.3%)   [3 : 6]
   Sum of square amplitudes: 0.76

 NATURAL OCCUPATION NUMBERS (higher than 1.0E-05)
            1           2           3           4           5           6
    1   2.0000000   2.0000000   2.0000000   2.0000000   2.0000000   2.0000000
            7           8           9          10          11          12
    1   2.0000000   2.0000000   2.0000000   2.0000000   2.0000000   2.0000000
           13          14          15          16          17          18
    1   2.0000000   2.0000000   2.0000000   2.0000000   2.0000000   2.0000000
           19          20          21          22          23          24
    1   2.0000000   2.0000000   2.0000000   2.0000000   2.0000000   2.0000000
           25          26          27          28          29          30
    1   2.0000000   2.0000000   2.0000000   2.0000000   2.0000000   2.0000000
           31          32          33          34          35          36
    1   2.0000000   2.0000000   2.0000000   2.0000000   2.0000000   2.0000000
           37          38          39          40          41          42
    1   2.0000000   2.0000000   2.0000000   2.0000000   2.0000000   2.0000000
           43          44          45          46          47          48
    1   2.0000000   2.0000000   2.0000000   2.0000000   2.0000000   2.0000000
           49          50          51          52          53          54
    1   2.0000000   2.0000000   2.0000000   2.0000000   2.0000000   2.0000000
           55          56          57          58          59          60
    1   2.0000000   2.0000000   2.0000000   2.0000000   2.0000000   2.0000000
           61          62          63          64          65          66
    1   2.0000000   2.0000000   2.0000000   2.0000000   2.0000000   2.0000000
           67          68          69          70          71          72
    1   2.0000000   2.0000000   2.0000000   2.0000000   2.0000000   2.0000000
           73          74          75          76          77          78
    1   2.0000000   2.0000000   2.0000000   2.0000000   2.0000000   2.0000000
           79          80          81          82          83          84
    1   2.0000000   2.0000000   2.0000000   2.0000000   2.0000000   2.0000000
           85          86          87          88          89          90
    1   2.0000000   2.0000000   2.0000000   2.0000000   2.0000000   2.0000000
           91          92          93          94          95          96
    1   2.0000000   2.0000000   2.0000000   2.0000000   2.0000000   2.0000000
           97          98          99         100         101         102
    1   2.0000000   2.0000000   2.0000000   2.0000000   2.0000000   2.0000000
          103         104         105         106         107         108
    1   2.0000000   2.0000000   2.0000000   2.0000000   2.0000000   2.0000000
          109         110         111         112         113         114
    1   2.0000000   2.0000000   2.0000000   2.0000000   2.0000000   2.0000000
          115         116         117         118         119         120
    1   2.0000000   2.0000000   2.0000000   2.0000000   2.0000000   2.0000000
          121         122         123         124         125         126
    1   2.0000000   2.0000000   2.0000000   2.0000000   2.0000000   2.0000000
          127         128         129         130         131         132
    1   2.0000000   2.0000000   2.0000000   2.0000000   2.0000000   2.0000000
          133         134         135         136         137         138
    1   1.9999992   1.9999976   1.9999956   1.9999946   1.9999912   1.9999843
          139         140         141         142         143         144
    1   1.9999568   1.9999455   1.9999311   1.9996298   1.9995324   1.9991979
          145         146         147         148         149         150
    1   1.9991513   1.9958956   1.9937114   1.9911109   1.9815892   1.9810758
          151         152         153         154         155         156
    1   1.8458145   1.0113834   0.9714897   0.1838733   0.0379905   0.0022186
          157         158         159         160         161         162
    1   0.0019166   0.0014804   0.0013833   0.0005499   0.0004870   0.0002771
          163         164         165         166         167         168
    1   0.0002305   0.0000674   0.0000483   0.0000474   0.0000298   0.0000103

 Head-Gordon Nu:    2.40
 Head-Gordon Nu_nl: 2.20

  Amplitudes : 
  
 | HOLE  | ALPHA | BETA  | PART  |    AMPLITUDE 
--------------------------------------------------
 |       | 1100  | 1010  |       |     6.0901978483550E-01
 |       | 1010  | 1100  |       |     6.0901978477473E-01
 |       | 1001  | 0110  |       |     1.1314335295770E-01
 |       | 0110  | 1001  |       |     1.1314254810786E-01
 | 150   | 1110  | 1010  |       |    -1.7053187700060E-01
 | 150   | 1010  | 1110  |       |    -1.7053736770464E-01
--------------------------------------------------
*** Contributions RASCI wfn    Active:  80.21
                                 Hole:  14.78
                                 Part:   5.01

      Mulliken population analysis 
 ---------------------------------------------------
   Atom    Charge (a.u.)   Spin (a.u.)  
 ---------------------------------------------------
   1  H    0.210966       -0.000000 
   2  H    0.210966       -0.000000 
   3  H    0.204042       -0.000000 
   4  H    0.204042       -0.000000 
   5  H    0.202975       -0.000000 
   6  H    0.202975       -0.000000 
   7  H    0.212162       -0.000000 
   8  H    0.212162       -0.000000 
   9  H    0.212162       -0.000000 
  10  H    0.212162       -0.000000 
  11  H    0.202975       -0.000000 
  12  H    0.202975       -0.000000 
  13  H    0.204042       -0.000000 
  14  H    0.204042       -0.000000 
  15  H    0.210966       -0.000000 
  16  H    0.210966       -0.000000 
  17  B    0.382104        0.000002 
  18  B    0.297438       -0.000000 
  19  B    0.297438       -0.000000 
  20  B    0.382104        0.000002 
  21  H    0.196142       -0.000000 
  22  H    0.196142       -0.000000 
  23  C   -0.180245       -0.000000 
  24  C   -0.180245       -0.000000 
  25  C   -0.237002        0.000001 
  26  C   -0.148212        0.000001 
  27  C   -0.237002        0.000001 
  28  C    0.047530       -0.000001 
  29  C    0.047530       -0.000001 
  30  C   -0.187385        0.000000 
  31  C   -0.173686        0.000001 
  32  C   -0.173686        0.000001 
  33  C   -0.187385        0.000000 
  34  C   -0.179957       -0.000001 
  35  C   -0.143227        0.000000 
  36  C   -0.143227        0.000000 
  37  C   -0.179957       -0.000001 
  38  C    0.047330        0.000000 
  39  C    0.047330        0.000000 
  40  C   -0.232613       -0.000001 
  41  C   -0.206214       -0.000000 
  42  C   -0.232613       -0.000001 
  43  C    0.050410        0.000000 
  44  C    0.050410        0.000000 
  45  C    0.050410        0.000000 
  46  C    0.050410        0.000000 
  47  C   -0.232613       -0.000001 
  48  C   -0.206214       -0.000000 
  49  C   -0.232613       -0.000001 
  50  C    0.047330        0.000000 
  51  C    0.047330        0.000000 
  52  C   -0.179957       -0.000001 
  53  C   -0.143227        0.000000 
  54  C   -0.143227        0.000000 
  55  C   -0.179957       -0.000001 
  56  C   -0.187385        0.000000 
  57  C   -0.173686        0.000001 
  58  C   -0.173686        0.000001 
  59  C   -0.187385        0.000000 
  60  C    0.047530       -0.000001 
  61  C    0.047530       -0.000001 
  62  C   -0.237002        0.000001 
  63  C   -0.148212        0.000001 
  64  C   -0.237002        0.000001 
  65  C   -0.180245       -0.000000 
  66  C   -0.180245       -0.000000 
  67  H    0.196142       -0.000000 
  68  H    0.196142       -0.000000 
 ---------------------------------------------------
   Sum:    0.000000        0.000000 
 ---------------------------------------------------
 
*** Unpaired Electrons
 Yamaguchi Nd:         2.83
  
**************************************************
 RAS-CI total energy for state   4:  -1776.610396608638
  Excitation energy (eV) =  0.544285642206
  State symmetry: B3u   (D2h      )
  <S^2>      :  2.0000
  Dipole Moment:    0.0000 X     0.0000 Y    -0.0000 Z
  Trans. Moment:    0.0000 X     0.0000 Y    -0.0000 Z
  Strength   :  0.000000
  Natural transition orbitals ( 1 -> 4 ):
   e-/hole pair  1:  ampl =  0.781334 ( 61.0%)   [4 : 5]
   e-/hole pair  2:  ampl =  0.490763 ( 24.1%)   [3 : 6]
   Sum of square amplitudes: 0.91

 NATURAL OCCUPATION NUMBERS (higher than 1.0E-05)
            1           2           3           4           5           6
    1   2.0000000   2.0000000   2.0000000   2.0000000   2.0000000   2.0000000
            7           8           9          10          11          12
    1   2.0000000   2.0000000   2.0000000   2.0000000   2.0000000   2.0000000
           13          14          15          16          17          18
    1   2.0000000   2.0000000   2.0000000   2.0000000   2.0000000   2.0000000
           19          20          21          22          23          24
    1   2.0000000   2.0000000   2.0000000   2.0000000   2.0000000   2.0000000
           25          26          27          28          29          30
    1   2.0000000   2.0000000   2.0000000   2.0000000   2.0000000   2.0000000
           31          32          33          34          35          36
    1   2.0000000   2.0000000   2.0000000   2.0000000   2.0000000   2.0000000
           37          38          39          40          41          42
    1   2.0000000   2.0000000   2.0000000   2.0000000   2.0000000   2.0000000
           43          44          45          46          47          48
    1   2.0000000   2.0000000   2.0000000   2.0000000   2.0000000   2.0000000
           49          50          51          52          53          54
    1   2.0000000   2.0000000   2.0000000   2.0000000   2.0000000   2.0000000
           55          56          57          58          59          60
    1   2.0000000   2.0000000   2.0000000   2.0000000   2.0000000   2.0000000
           61          62          63          64          65          66
    1   2.0000000   2.0000000   2.0000000   2.0000000   2.0000000   2.0000000
           67          68          69          70          71          72
    1   2.0000000   2.0000000   2.0000000   2.0000000   2.0000000   2.0000000
           73          74          75          76          77          78
    1   2.0000000   2.0000000   2.0000000   2.0000000   2.0000000   2.0000000
           79          80          81          82          83          84
    1   2.0000000   2.0000000   2.0000000   2.0000000   2.0000000   2.0000000
           85          86          87          88          89          90
    1   2.0000000   2.0000000   2.0000000   2.0000000   2.0000000   2.0000000
           91          92          93          94          95          96
    1   2.0000000   2.0000000   2.0000000   2.0000000   2.0000000   2.0000000
           97          98          99         100         101         102
    1   2.0000000   2.0000000   2.0000000   2.0000000   2.0000000   2.0000000
          103         104         105         106         107         108
    1   2.0000000   2.0000000   2.0000000   2.0000000   2.0000000   2.0000000
          109         110         111         112         113         114
    1   2.0000000   2.0000000   2.0000000   2.0000000   2.0000000   2.0000000
          115         116         117         118         119         120
    1   2.0000000   2.0000000   2.0000000   2.0000000   2.0000000   2.0000000
          121         122         123         124         125         126
    1   2.0000000   2.0000000   2.0000000   2.0000000   2.0000000   2.0000000
          127         128         129         130         131         132
    1   2.0000000   2.0000000   2.0000000   2.0000000   2.0000000   1.9999999
          133         134         135         136         137         138
    1   1.9999994   1.9999990   1.9999977   1.9999936   1.9999761   1.9999695
          139         140         141         142         143         144
    1   1.9999560   1.9999408   1.9997734   1.9997397   1.9996950   1.9990370
          145         146         147         148         149         150
    1   1.9989986   1.9979100   1.9977294   1.9969938   1.9953694   1.8539527
          151         152         153         154         155         156
    1   1.7274766   1.2764622   0.7583685   0.3793429   0.0123337   0.0025857
          157         158         159         160         161         162
    1   0.0015516   0.0007972   0.0005380   0.0005251   0.0004091   0.0003160
          163         164         165         166         167         168
    1   0.0001043   0.0000609   0.0000242   0.0000167   0.0000150   0.0000127

 Head-Gordon Nu:    2.31
 Head-Gordon Nu_nl: 2.41

  Amplitudes : 
  
 | HOLE  | ALPHA | BETA  | PART  |    AMPLITUDE 
--------------------------------------------------
 |       | 1100  | 0110  |       |    -5.5456566606927E-01
 |       | 1010  | 1001  |       |     1.4083302787091E-01
 |       | 1001  | 1010  |       |    -1.4083302787091E-01
 |       | 0110  | 1100  |       |     5.5456566606927E-01
 | 150   | 1101  | 1100  |       |    -3.5202439691315E-01
 | 150   | 1100  | 1101  |       |     3.5202439691315E-01
--------------------------------------------------
*** Contributions RASCI wfn    Active:  67.54
                                 Hole:  30.33
                                 Part:   2.12

      Mulliken population analysis 
 ---------------------------------------------------
   Atom    Charge (a.u.)   Spin (a.u.)  
 ---------------------------------------------------
   1  H    0.210966       -0.000000 
   2  H    0.210966       -0.000000 
   3  H    0.204042       -0.000000 
   4  H    0.204042       -0.000000 
   5  H    0.202975       -0.000000 
   6  H    0.202975       -0.000000 
   7  H    0.212162       -0.000000 
   8  H    0.212162       -0.000000 
   9  H    0.212162       -0.000000 
  10  H    0.212162       -0.000000 
  11  H    0.202975       -0.000000 
  12  H    0.202975       -0.000000 
  13  H    0.204042       -0.000000 
  14  H    0.204042       -0.000000 
  15  H    0.210966       -0.000000 
  16  H    0.210966       -0.000000 
  17  B    0.388053       -0.000000 
  18  B    0.350334       -0.000000 
  19  B    0.350334        0.000000 
  20  B    0.388053        0.000000 
  21  H    0.196142       -0.000000 
  22  H    0.196142       -0.000000 
  23  C   -0.202626       -0.000000 
  24  C   -0.202626       -0.000000 
  25  C   -0.217185       -0.000000 
  26  C   -0.123551       -0.000000 
  27  C   -0.217185       -0.000000 
  28  C    0.032368       -0.000000 
  29  C    0.032368       -0.000000 
  30  C   -0.183130       -0.000000 
  31  C   -0.176119       -0.000000 
  32  C   -0.176119       -0.000000 
  33  C   -0.183130       -0.000000 
  34  C   -0.181061       -0.000000 
  35  C   -0.158847       -0.000000 
  36  C   -0.158847       -0.000000 
  37  C   -0.181061       -0.000000 
  38  C    0.040146       -0.000000 
  39  C    0.040146       -0.000000 
  40  C   -0.234444       -0.000000 
  41  C   -0.129302       -0.000000 
  42  C   -0.234444        0.000000 
  43  C    0.011844       -0.000000 
  44  C    0.011844       -0.000000 
  45  C    0.011844       -0.000000 
  46  C    0.011844        0.000000 
  47  C   -0.234444       -0.000000 
  48  C   -0.129302        0.000000 
  49  C   -0.234444        0.000000 
  50  C    0.040146        0.000000 
  51  C    0.040146        0.000000 
  52  C   -0.181061       -0.000000 
  53  C   -0.158847        0.000000 
  54  C   -0.158847        0.000000 
  55  C   -0.181061       -0.000000 
  56  C   -0.183130       -0.000000 
  57  C   -0.176119        0.000000 
  58  C   -0.176119        0.000000 
  59  C   -0.183130       -0.000000 
  60  C    0.032368       -0.000000 
  61  C    0.032368       -0.000000 
  62  C   -0.217185        0.000000 
  63  C   -0.123551        0.000000 
  64  C   -0.217185        0.000000 
  65  C   -0.202626       -0.000000 
  66  C   -0.202626       -0.000000 
  67  H    0.196142       -0.000000 
  68  H    0.196142       -0.000000 
 ---------------------------------------------------
   Sum:    0.000000        0.000000 
 ---------------------------------------------------
 
*** Unpaired Electrons
 Yamaguchi Nd:         3.29
  
**************************************************
 RAS-CI total energy for state   5:  -1776.608197774194
  Excitation energy (eV) =  0.604118971660
  State symmetry: B2u   (D2h      )
  <S^2>      :  2.0000
  Dipole Moment:   -0.0000 X    -0.0000 Y    -0.0000 Z
  Trans. Moment:   -0.0000 X    -0.0000 Y     0.0000 Z
  Strength   :  0.000000
  Natural transition orbitals ( 1 -> 5 ):
   e-/hole pair  1:  ampl =  0.857666 ( 73.6%)   [4 : 5]
   e-/hole pair  2:  ampl =  0.294323 (  8.7%)   [3 : 6]
   Sum of square amplitudes: 0.84

 NATURAL OCCUPATION NUMBERS (higher than 1.0E-05)
            1           2           3           4           5           6
    1   2.0000000   2.0000000   2.0000000   2.0000000   2.0000000   2.0000000
            7           8           9          10          11          12
    1   2.0000000   2.0000000   2.0000000   2.0000000   2.0000000   2.0000000
           13          14          15          16          17          18
    1   2.0000000   2.0000000   2.0000000   2.0000000   2.0000000   2.0000000
           19          20          21          22          23          24
    1   2.0000000   2.0000000   2.0000000   2.0000000   2.0000000   2.0000000
           25          26          27          28          29          30
    1   2.0000000   2.0000000   2.0000000   2.0000000   2.0000000   2.0000000
           31          32          33          34          35          36
    1   2.0000000   2.0000000   2.0000000   2.0000000   2.0000000   2.0000000
           37          38          39          40          41          42
    1   2.0000000   2.0000000   2.0000000   2.0000000   2.0000000   2.0000000
           43          44          45          46          47          48
    1   2.0000000   2.0000000   2.0000000   2.0000000   2.0000000   2.0000000
           49          50          51          52          53          54
    1   2.0000000   2.0000000   2.0000000   2.0000000   2.0000000   2.0000000
           55          56          57          58          59          60
    1   2.0000000   2.0000000   2.0000000   2.0000000   2.0000000   2.0000000
           61          62          63          64          65          66
    1   2.0000000   2.0000000   2.0000000   2.0000000   2.0000000   2.0000000
           67          68          69          70          71          72
    1   2.0000000   2.0000000   2.0000000   2.0000000   2.0000000   2.0000000
           73          74          75          76          77          78
    1   2.0000000   2.0000000   2.0000000   2.0000000   2.0000000   2.0000000
           79          80          81          82          83          84
    1   2.0000000   2.0000000   2.0000000   2.0000000   2.0000000   2.0000000
           85          86          87          88          89          90
    1   2.0000000   2.0000000   2.0000000   2.0000000   2.0000000   2.0000000
           91          92          93          94          95          96
    1   2.0000000   2.0000000   2.0000000   2.0000000   2.0000000   2.0000000
           97          98          99         100         101         102
    1   2.0000000   2.0000000   2.0000000   2.0000000   2.0000000   2.0000000
          103         104         105         106         107         108
    1   2.0000000   2.0000000   2.0000000   2.0000000   2.0000000   2.0000000
          109         110         111         112         113         114
    1   2.0000000   2.0000000   2.0000000   2.0000000   2.0000000   2.0000000
          115         116         117         118         119         120
    1   2.0000000   2.0000000   2.0000000   2.0000000   2.0000000   2.0000000
          121         122         123         124         125         126
    1   2.0000000   2.0000000   2.0000000   2.0000000   2.0000000   2.0000000
          127         128         129         130         131         132
    1   2.0000000   2.0000000   2.0000000   2.0000000   2.0000000   1.9999990
          133         134         135         136         137         138
    1   1.9999957   1.9999952   1.9999942   1.9999744   1.9999715   1.9999435
          139         140         141         142         143         144
    1   1.9999266   1.9999160   1.9998342   1.9996009   1.9995743   1.9988815
          145         146         147         148         149         150
    1   1.9982495   1.9981118   1.9974836   1.9965092   1.9631112   1.8982789
          151         152         153         154         155         156
    1   1.8279115   1.0887095   0.8842996   0.3298788   0.0134717   0.0017553
          157         158         159         160         161         162
    1   0.0014509   0.0011249   0.0006244   0.0004546   0.0003229   0.0002486
          163         164         165         166         167         168
    1   0.0001886   0.0000629   0.0000518   0.0000283   0.0000199   0.0000122

 Head-Gordon Nu:    2.47
 Head-Gordon Nu_nl: 2.40

  Amplitudes : 
  
 | HOLE  | ALPHA | BETA  | PART  |    AMPLITUDE 
--------------------------------------------------
 |       | 1100  | 1001  |       |     5.9479909636771E-01
 |       | 1010  | 0110  |       |    -1.4625298890783E-01
 |       | 1001  | 1100  |       |    -5.9479909636771E-01
 |       | 0110  | 1010  |       |     1.4625298890783E-01
 |       | 0110  | 0011  |       |     1.1963666786324E-01
 |       | 0011  | 0110  |       |    -1.1963666786324E-01
 | 149   | 1110  | 1100  |       |     2.1469506857935E-01
 | 149   | 1100  | 1110  |       |    -2.1469506857935E-01
 | 150   | 1110  | 1001  |       |    -1.1185618495241E-01
 | 150   | 1001  | 1110  |       |     1.1185618495242E-01
--------------------------------------------------
*** Contributions RASCI wfn    Active:  79.45
                                 Hole:  18.16
                                 Part:   2.40

      Mulliken population analysis 
 ---------------------------------------------------
   Atom    Charge (a.u.)   Spin (a.u.)  
 ---------------------------------------------------
   1  H    0.210966       -0.000000 
   2  H    0.210966       -0.000000 
   3  H    0.204042       -0.000000 
   4  H    0.204042       -0.000000 
   5  H    0.202975       -0.000000 
   6  H    0.202975       -0.000000 
   7  H    0.212162       -0.000000 
   8  H    0.212162       -0.000000 
   9  H    0.212162       -0.000000 
  10  H    0.212162       -0.000000 
  11  H    0.202975       -0.000000 
  12  H    0.202975       -0.000000 
  13  H    0.204042       -0.000000 
  14  H    0.204042       -0.000000 
  15  H    0.210966       -0.000000 
  16  H    0.210966       -0.000000 
  17  B    0.376807       -0.000000 
  18  B    0.317630       -0.000000 
  19  B    0.317630       -0.000000 
  20  B    0.376807       -0.000000 
  21  H    0.196142       -0.000000 
  22  H    0.196142       -0.000000 
  23  C   -0.168111       -0.000000 
  24  C   -0.168111       -0.000000 
  25  C   -0.241968       -0.000000 
  26  C   -0.163946       -0.000000 
  27  C   -0.241968        0.000000 
  28  C    0.050611       -0.000000 
  29  C    0.050611       -0.000000 
  30  C   -0.185810       -0.000000 
  31  C   -0.171858       -0.000000 
  32  C   -0.171858       -0.000000 
  33  C   -0.185810       -0.000000 
  34  C   -0.179947       -0.000000 
  35  C   -0.151541       -0.000000 
  36  C   -0.151541       -0.000000 
  37  C   -0.179947       -0.000000 
  38  C    0.051483       -0.000000 
  39  C    0.051483       -0.000000 
  40  C   -0.255373        0.000000 
  41  C   -0.177271       -0.000000 
  42  C   -0.255373       -0.000000 
  43  C    0.049617       -0.000000 
  44  C    0.049617        0.000000 
  45  C    0.049617       -0.000000 
  46  C    0.049617       -0.000000 
  47  C   -0.255373       -0.000000 
  48  C   -0.177271       -0.000000 
  49  C   -0.255373       -0.000000 
  50  C    0.051483       -0.000000 
  51  C    0.051483       -0.000000 
  52  C   -0.179947       -0.000000 
  53  C   -0.151541       -0.000000 
  54  C   -0.151541       -0.000000 
  55  C   -0.179947       -0.000000 
  56  C   -0.185810       -0.000000 
  57  C   -0.171858       -0.000000 
  58  C   -0.171858       -0.000000 
  59  C   -0.185810       -0.000000 
  60  C    0.050611       -0.000000 
  61  C    0.050611       -0.000000 
  62  C   -0.241968       -0.000000 
  63  C   -0.163946       -0.000000 
  64  C   -0.241968       -0.000000 
  65  C   -0.168111       -0.000000 
  66  C   -0.168111       -0.000000 
  67  H    0.196142       -0.000000 
  68  H    0.196142       -0.000000 
 ---------------------------------------------------
   Sum:    0.000000       -0.000000 
 ---------------------------------------------------
 
*** Unpaired Electrons
 Yamaguchi Nd:         3.17
  
**************************************************
 RAS-CI total energy for state   6:  -1776.605154078325
  Excitation energy (eV) =  0.686942150167
  State symmetry: Ag    (D2h      )
  <S^2>      :  2.0000
  Dipole Moment:    0.0000 X     0.0000 Y    -0.0000 Z
  Trans. Moment:   -0.0000 X    -0.0000 Y    -0.0000 Z
  Strength   :  0.000000
  Natural transition orbitals ( 1 -> 6 ):
   e-/hole pair  1:  ampl =  0.687986 ( 47.3%)   [4 : 5]
   e-/hole pair  2:  ampl =  0.633655 ( 40.2%)   [3 : 6]
   Sum of square amplitudes: 0.90

 NATURAL OCCUPATION NUMBERS (higher than 1.0E-05)
            1           2           3           4           5           6
    1   2.0000000   2.0000000   2.0000000   2.0000000   2.0000000   2.0000000
            7           8           9          10          11          12
    1   2.0000000   2.0000000   2.0000000   2.0000000   2.0000000   2.0000000
           13          14          15          16          17          18
    1   2.0000000   2.0000000   2.0000000   2.0000000   2.0000000   2.0000000
           19          20          21          22          23          24
    1   2.0000000   2.0000000   2.0000000   2.0000000   2.0000000   2.0000000
           25          26          27          28          29          30
    1   2.0000000   2.0000000   2.0000000   2.0000000   2.0000000   2.0000000
           31          32          33          34          35          36
    1   2.0000000   2.0000000   2.0000000   2.0000000   2.0000000   2.0000000
           37          38          39          40          41          42
    1   2.0000000   2.0000000   2.0000000   2.0000000   2.0000000   2.0000000
           43          44          45          46          47          48
    1   2.0000000   2.0000000   2.0000000   2.0000000   2.0000000   2.0000000
           49          50          51          52          53          54
    1   2.0000000   2.0000000   2.0000000   2.0000000   2.0000000   2.0000000
           55          56          57          58          59          60
    1   2.0000000   2.0000000   2.0000000   2.0000000   2.0000000   2.0000000
           61          62          63          64          65          66
    1   2.0000000   2.0000000   2.0000000   2.0000000   2.0000000   2.0000000
           67          68          69          70          71          72
    1   2.0000000   2.0000000   2.0000000   2.0000000   2.0000000   2.0000000
           73          74          75          76          77          78
    1   2.0000000   2.0000000   2.0000000   2.0000000   2.0000000   2.0000000
           79          80          81          82          83          84
    1   2.0000000   2.0000000   2.0000000   2.0000000   2.0000000   2.0000000
           85          86          87          88          89          90
    1   2.0000000   2.0000000   2.0000000   2.0000000   2.0000000   2.0000000
           91          92          93          94          95          96
    1   2.0000000   2.0000000   2.0000000   2.0000000   2.0000000   2.0000000
           97          98          99         100         101         102
    1   2.0000000   2.0000000   2.0000000   2.0000000   2.0000000   2.0000000
          103         104         105         106         107         108
    1   2.0000000   2.0000000   2.0000000   2.0000000   2.0000000   2.0000000
          109         110         111         112         113         114
    1   2.0000000   2.0000000   2.0000000   2.0000000   2.0000000   2.0000000
          115         116         117         118         119         120
    1   2.0000000   2.0000000   2.0000000   2.0000000   2.0000000   2.0000000
          121         122         123         124         125         126
    1   2.0000000   2.0000000   2.0000000   2.0000000   2.0000000   2.0000000
          127         128         129         130         131         132
    1   2.0000000   2.0000000   2.0000000   2.0000000   2.0000000   1.9999999
          133         134         135         136         137         138
    1   1.9999999   1.9999997   1.9999932   1.9999911   1.9999878   1.9999749
          139         140         141         142         143         144
    1   1.9999633   1.9999504   1.9999490   1.9999303   1.9997517   1.9989873
          145         146         147         148         149         150
    1   1.9987525   1.9982064   1.9973550   1.9957579   1.9952544   1.9606263
          151         152         153         154         155         156
    1   1.5087199   1.4612571   0.5705034   0.5030487   0.0070452   0.0013121
          157         158         159         160         161         162
    1   0.0010419   0.0008215   0.0005659   0.0005086   0.0002229   0.0002126
          163         164         165         166         167
    1   0.0001611   0.0000645   0.0000247   0.0000240   0.0000111

 Head-Gordon Nu:    2.17
 Head-Gordon Nu_nl: 2.41

  Amplitudes : 
  
 | HOLE  | ALPHA | BETA  | PART  |    AMPLITUDE 
--------------------------------------------------
 |       | 1100  | 0101  |       |     4.5976455010872E-01
 |       | 0101  | 1100  |       |    -4.5976455010871E-01
 | 150   | 1110  | 1100  |       |     5.0348597474409E-01
 | 150   | 1100  | 1110  |       |    -5.0348597474408E-01
--------------------------------------------------
*** Contributions RASCI wfn    Active:  42.54
                                 Hole:  56.18
                                 Part:   1.28

      Mulliken population analysis 
 ---------------------------------------------------
   Atom    Charge (a.u.)   Spin (a.u.)  
 ---------------------------------------------------
   1  H    0.210966       -0.000000 
   2  H    0.210966       -0.000000 
   3  H    0.204042       -0.000000 
   4  H    0.204042       -0.000000 
   5  H    0.202975       -0.000000 
   6  H    0.202975       -0.000000 
   7  H    0.212162       -0.000000 
   8  H    0.212162       -0.000000 
   9  H    0.212162       -0.000000 
  10  H    0.212162       -0.000000 
  11  H    0.202975       -0.000000 
  12  H    0.202975       -0.000000 
  13  H    0.204042       -0.000000 
  14  H    0.204042       -0.000000 
  15  H    0.210966       -0.000000 
  16  H    0.210966       -0.000000 
  17  B    0.391267       -0.000000 
  18  B    0.355225        0.000000 
  19  B    0.355225        0.000000 
  20  B    0.391267       -0.000000 
  21  H    0.196142       -0.000000 
  22  H    0.196142       -0.000000 
  23  C   -0.204055        0.000000 
  24  C   -0.204055       -0.000000 
  25  C   -0.214850       -0.000000 
  26  C   -0.124790       -0.000000 
  27  C   -0.214850       -0.000000 
  28  C    0.031153        0.000000 
  29  C    0.031153       -0.000000 
  30  C   -0.183522       -0.000000 
  31  C   -0.173316       -0.000000 
  32  C   -0.173316       -0.000000 
  33  C   -0.183522        0.000000 
  34  C   -0.181987        0.000000 
  35  C   -0.159878       -0.000000 
  36  C   -0.159878        0.000000 
  37  C   -0.181987       -0.000000 
  38  C    0.040353       -0.000000 
  39  C    0.040353       -0.000000 
  40  C   -0.235254       -0.000000 
  41  C   -0.119495        0.000000 
  42  C   -0.235254        0.000000 
  43  C    0.003963        0.000000 
  44  C    0.003963       -0.000000 
  45  C    0.003963       -0.000000 
  46  C    0.003963       -0.000000 
  47  C   -0.235254        0.000000 
  48  C   -0.119495        0.000000 
  49  C   -0.235254       -0.000000 
  50  C    0.040353       -0.000000 
  51  C    0.040353       -0.000000 
  52  C   -0.181987       -0.000000 
  53  C   -0.159878        0.000000 
  54  C   -0.159878       -0.000000 
  55  C   -0.181987        0.000000 
  56  C   -0.183522       -0.000000 
  57  C   -0.173316        0.000000 
  58  C   -0.173316       -0.000000 
  59  C   -0.183522       -0.000000 
  60  C    0.031153       -0.000000 
  61  C    0.031153        0.000000 
  62  C   -0.214850       -0.000000 
  63  C   -0.124790       -0.000000 
  64  C   -0.214850       -0.000000 
  65  C   -0.204055       -0.000000 
  66  C   -0.204055        0.000000 
  67  H    0.196142       -0.000000 
  68  H    0.196142       -0.000000 
 ---------------------------------------------------
   Sum:    0.000000        0.000000 
 ---------------------------------------------------
 
*** Unpaired Electrons
 Yamaguchi Nd:         3.23
  
**************************************************
 RAS-CI total energy for state   7:  -1776.597487460692
  Excitation energy (eV) =  0.895561430182
  State symmetry: Ag    (D2h      )
  <S^2>      :  0.0000
  Dipole Moment:    0.0000 X     0.0000 Y    -0.0000 Z
  Trans. Moment:    0.0000 X     0.0000 Y     0.0000 Z
  Strength   :  0.000000
  Natural transition orbitals ( 1 -> 7 ):
   e-/hole pair  1:  ampl =  0.161244 (  2.6%)   [4 : 5]
   e-/hole pair  2:  ampl =  0.140784 (  2.0%)   [3 : 6]
   Sum of square amplitudes: 0.05

 NATURAL OCCUPATION NUMBERS (higher than 1.0E-05)
            1           2           3           4           5           6
    1   2.0000000   2.0000000   2.0000000   2.0000000   2.0000000   2.0000000
            7           8           9          10          11          12
    1   2.0000000   2.0000000   2.0000000   2.0000000   2.0000000   2.0000000
           13          14          15          16          17          18
    1   2.0000000   2.0000000   2.0000000   2.0000000   2.0000000   2.0000000
           19          20          21          22          23          24
    1   2.0000000   2.0000000   2.0000000   2.0000000   2.0000000   2.0000000
           25          26          27          28          29          30
    1   2.0000000   2.0000000   2.0000000   2.0000000   2.0000000   2.0000000
           31          32          33          34          35          36
    1   2.0000000   2.0000000   2.0000000   2.0000000   2.0000000   2.0000000
           37          38          39          40          41          42
    1   2.0000000   2.0000000   2.0000000   2.0000000   2.0000000   2.0000000
           43          44          45          46          47          48
    1   2.0000000   2.0000000   2.0000000   2.0000000   2.0000000   2.0000000
           49          50          51          52          53          54
    1   2.0000000   2.0000000   2.0000000   2.0000000   2.0000000   2.0000000
           55          56          57          58          59          60
    1   2.0000000   2.0000000   2.0000000   2.0000000   2.0000000   2.0000000
           61          62          63          64          65          66
    1   2.0000000   2.0000000   2.0000000   2.0000000   2.0000000   2.0000000
           67          68          69          70          71          72
    1   2.0000000   2.0000000   2.0000000   2.0000000   2.0000000   2.0000000
           73          74          75          76          77          78
    1   2.0000000   2.0000000   2.0000000   2.0000000   2.0000000   2.0000000
           79          80          81          82          83          84
    1   2.0000000   2.0000000   2.0000000   2.0000000   2.0000000   2.0000000
           85          86          87          88          89          90
    1   2.0000000   2.0000000   2.0000000   2.0000000   2.0000000   2.0000000
           91          92          93          94          95          96
    1   2.0000000   2.0000000   2.0000000   2.0000000   2.0000000   2.0000000
           97          98          99         100         101         102
    1   2.0000000   2.0000000   2.0000000   2.0000000   2.0000000   2.0000000
          103         104         105         106         107         108
    1   2.0000000   2.0000000   2.0000000   2.0000000   2.0000000   2.0000000
          109         110         111         112         113         114
    1   2.0000000   2.0000000   2.0000000   2.0000000   2.0000000   2.0000000
          115         116         117         118         119         120
    1   2.0000000   2.0000000   2.0000000   2.0000000   2.0000000   2.0000000
          121         122         123         124         125         126
    1   2.0000000   2.0000000   2.0000000   2.0000000   2.0000000   2.0000000
          127         128         129         130         131         132
    1   2.0000000   2.0000000   2.0000000   2.0000000   2.0000000   2.0000000
          133         134         135         136         137         138
    1   1.9999985   1.9999981   1.9999943   1.9999942   1.9999747   1.9999633
          139         140         141         142         143         144
    1   1.9999591   1.9999380   1.9998701   1.9998594   1.9997727   1.9996618
          145         146         147         148         149         150
    1   1.9993152   1.9974506   1.9965628   1.9912390   1.9723366   1.9685678
          151         152         153         154         155         156
    1   1.8835009   1.3990934   0.5714982   0.2006304   0.0090166   0.0070945
          157         158         159         160         161         162
    1   0.0015764   0.0008814   0.0008641   0.0007272   0.0002250   0.0001267
          163         164         165         166         167
    1   0.0000981   0.0000893   0.0000688   0.0000192   0.0000155

 Head-Gordon Nu:    1.59
 Head-Gordon Nu_nl: 1.56

  Amplitudes : 
  
 | HOLE  | ALPHA | BETA  | PART  |    AMPLITUDE 
--------------------------------------------------
 |       | 1010  | 1010  |       |    -7.8070109901974E-01
 |       | 1001  | 1001  |       |     4.6629866923501E-01
[...]
 -0.061  -0.046   0.003   0.076   0.087   0.096   0.133   0.139
  7 B1u   7 B2g   6 B3g   6 Au    8 B1u   8 B2g   9 B1u   7 B3g                
  0.154   0.158   0.158   0.166   0.190   0.199   0.237   0.238
  7 Au    8 B3g  10 B1u   9 B2g  10 B2g   8 Au   37 Ag   11 B1u                
  0.244   0.246   0.251   0.252   0.259   0.260   0.269   0.275
 36 B3u  31 B2u  38 Ag   30 B1g   9 B3g  32 B2u  37 B3u  11 B2g                
  0.276   0.277   0.280   0.290   0.294   0.295   0.301   0.310
 39 Ag   31 B1g  12 B1u  33 B2u   9 Au   38 B3u  40 Ag   32 B1g                
  0.317   0.319   0.325   0.335   0.347   0.352   0.355   0.368
 34 B2u  12 B2g  39 B3u  41 Ag   33 B1g  35 B2u  40 B3u  34 B1g                
  0.369   0.373   0.376   0.376   0.379   0.383   0.392   0.398
 42 Ag   41 B3u  43 Ag   13 B1u  44 Ag   42 B3u  10 B3g  43 B3u                
  0.404   0.408   0.416   0.420   0.425   0.429   0.429   0.433
 10 Au   45 Ag   36 B2u  35 B1g  37 B2u  44 B3u  13 B2g  46 Ag                 
  0.437   0.441   0.445   0.451   0.463   0.465   0.466   0.468
 38 B2u  47 Ag   36 B1g  45 B3u  46 B3u  48 Ag   37 B1g  39 B2u                
  0.477   0.479   0.480   0.486   0.491   0.493   0.499   0.504
 49 Ag   40 B2u  38 B1g  41 B2u  50 Ag   47 B3u  39 B1g  14 B1u                
  0.507   0.508   0.509   0.522   0.524   0.528   0.529   0.535
 48 B3u  40 B1g  41 B1g  14 B2g  42 B2u  51 Ag   49 B3u  43 B2u                
  0.549   0.551   0.553   0.572   0.583   0.590   0.603   0.603
 44 B2u  50 B3u  52 Ag   42 B1g  51 B3u  53 Ag   52 B3u  45 B2u                
  0.615   0.619   0.623   0.642   0.642   0.656   0.659   0.670
 54 Ag   43 B1g  53 B3u  44 B1g  55 Ag   15 B1u  15 B2g  54 B3u                
  0.671   0.676   0.682   0.687   0.691   0.695   0.697   0.707
 45 B1g  46 B2u  55 B3u  56 Ag   16 B1u  57 Ag   16 B2g  46 B1g                
  0.715   0.718   0.737   0.738   0.740   0.744   0.751   0.753
 56 B3u  47 B2u  58 Ag   48 B2u  49 B2u  11 B3g  11 Au   59 Ag                 
  0.759   0.760   0.762   0.765   0.766   0.769   0.769   0.773
 47 B1g  57 B3u  17 B1u  60 Ag   58 B3u  17 B2g  12 B3g  48 B1g                
  0.777   0.783   0.786   0.788   0.789   0.795   0.795   0.798
 18 B1u  49 B1g  50 B2u  12 Au   59 B3u  61 Ag   18 B2g  51 B2u                
  0.799   0.801   0.805   0.809   0.810   0.811   0.811   0.815
 52 B2u  19 B1u  50 B1g  60 B3u  53 B2u  51 B1g  13 B3g  62 Ag                 
  0.816   0.821   0.821   0.824   0.827   0.828   0.830   0.833
 61 B3u  63 Ag   62 B3u  20 B1u  19 B2g  52 B1g  64 Ag   54 B2u                
  0.835   0.835   0.836   0.837   0.848   0.854   0.864   0.865
 13 Au   63 B3u  65 Ag   53 B1g  66 Ag   64 B3u  14 B3g  21 B1u                
  0.868   0.872   0.873   0.878   0.883   0.883   0.895   0.914
 55 B2u  14 Au   20 B2g  56 B2u  54 B1g  15 B3g  15 Au   67 Ag                 
  0.920   0.923   0.925   0.927   0.931   0.934   0.945   0.952
 21 B2g  22 B1u  55 B1g  65 B3u  22 B2g  23 B1u  16 B3g  24 B1u                
  0.956   0.959   0.984   0.995   0.995   1.001   1.002   1.007
 16 Au   17 B3g  23 B2g  57 B2u  17 Au   66 B3u  68 Ag   69 Ag                 
  1.008   1.008   1.010   1.018   1.025   1.040   1.046   1.047
 18 B3g  67 B3u  24 B2g  25 B1u  56 B1g  25 B2g  19 B3g  18 Au                 
  1.055   1.055   1.058   1.058   1.063   1.066   1.070   1.079
 26 B1u  70 Ag   57 B1g  58 B2u  19 Au   58 B1g  59 B2u  71 Ag                 
  1.080   1.092   1.092   1.094   1.103   1.103   1.104   1.107
 68 B3u  72 Ag   60 B2u  69 B3u  61 B2u  70 B3u  59 B1g  60 B1g                
  1.107   1.108   1.111   1.113   1.114   1.117   1.121   1.124
 73 Ag   26 B2g  62 B2u  74 Ag   71 B3u  20 B3g  72 B3u  75 Ag                 
  1.125   1.127   1.133   1.135   1.142   1.149   1.149   1.150
 61 B1g  63 B2u  73 B3u  20 Au   76 Ag   64 B2u  27 B1u  62 B1g                
  1.164   1.183   1.187   1.189   1.193   1.197   1.200   1.200
 74 B3u  63 B1g  65 B2u  77 Ag   64 B1g  27 B2g  75 B3u  66 B2u                
  1.205   1.206   1.208   1.212   1.218   1.219   1.222   1.226
 76 B3u  78 Ag   65 B1g  67 B2u  77 B3u  66 B1g  79 Ag   68 B2u                
  1.236   1.245   1.246   1.251   1.260   1.271   1.275   1.284
 80 Ag   67 B1g  81 Ag   78 B3u  28 B1u  79 B3u  69 B2u  68 B1g                
  1.296   1.297   1.305   1.309   1.316   1.321   1.335   1.340
 80 B3u  28 B2g  82 Ag   70 B2u  69 B1g  71 B2u  81 B3u  21 B3g                
  1.345   1.347   1.349   1.352   1.355   1.373   1.377   1.377
 70 B1g  83 Ag   21 Au   82 B3u  84 Ag   29 B1u  72 B2u  71 B1g                
  1.379   1.386   1.388   1.403   1.408   1.410   1.411   1.414
 83 B3u  29 B2g  73 B2u  30 B1u  85 Ag   72 B1g  84 B3u  30 B2g                
  1.414   1.452   1.460   1.460   1.465   1.469   1.473   1.473
 74 B2u  73 B1g  22 B3g  75 B2u  86 Ag   74 B1g  76 B2u  22 Au                 
  1.486   1.487   1.498   1.503   1.505   1.509   1.511   1.514
 85 B3u  77 B2u  87 Ag   23 B3g  75 B1g  23 Au   88 Ag   31 B1u                
  1.514   1.515   1.515   1.529   1.531   1.534   1.535   1.544
 86 B3u  24 B3g  31 B2g  89 Ag   78 B2u  76 B1g  87 B3u  25 B3g                
  1.554   1.563   1.571   1.578   1.580   1.584   1.586   1.608
 24 Au   77 B1g  90 Ag   32 B1u  79 B2u  88 B3u  89 B3u  80 B2u                
  1.623   1.624   1.629   1.631   1.645   1.645   1.647   1.665
 26 B3g  91 Ag   90 B3u  25 Au   32 B2g  78 B1g  33 B1u  33 B2g                
  1.675   1.683   1.683   1.685   1.691   1.704   1.705   1.705
 92 Ag   34 B1u  27 B3g  26 Au   91 B3u  93 Ag   92 B3u  28 B3g                
  1.714   1.728   1.733   1.733   1.736   1.737   1.739   1.757
 79 B1g  27 Au   34 B2g  35 B1u  29 B3g  28 Au   93 B3u  36 B1u                
  1.757   1.763   1.764   1.767   1.776   1.779   1.785   1.795
 35 B2g  30 B3g  29 Au   94 Ag   81 B2u  80 B1g  82 B2u  95 Ag                 
  1.796   1.803   1.806   1.823   1.826   1.836   1.839   1.842
 83 B2u  94 B3u  81 B1g  82 B1g  96 Ag   84 B2u  95 B3u  97 Ag                 
  1.856   1.861   1.868   1.870   1.874   1.883   1.908   1.908
 85 B2u  83 B1g  96 B3u  98 Ag   84 B1g  97 B3u  86 B2u  99 Ag                 
  1.932   1.932   1.943   1.943   1.957   1.963   1.969   1.974
 36 B2g  37 B1u  85 B1g  37 B2g  30 Au   31 B3g 100 Ag   38 B1u                
  1.996   2.000   2.007   2.010   2.022   2.025   2.038   2.040
 38 B2g  87 B2u  98 B3u 101 Ag   86 B1g  39 B1u  99 B3u  88 B2u                
  2.050   2.056   2.064   2.077   2.084   2.088   2.090   2.090
 87 B1g 100 B3u 102 Ag   88 B1g  89 B2u  39 B2g  40 B1u  31 Au                 
  2.103   2.106   2.107   2.114   2.118   2.119   2.120   2.128
 90 B2u 103 Ag  101 B3u  89 B1g 104 Ag  102 B3u  91 B2u  32 B3g                
  2.129   2.140   2.153   2.159   2.172   2.177   2.185   2.202
 32 Au   90 B1g  92 B2u  91 B1g 105 Ag   40 B2g  93 B2u 103 B3u                
  2.207   2.208   2.211   2.221   2.223   2.230   2.232   2.237
104 B3u 106 Ag   92 B1g 107 Ag   41 B1u 105 B3u  94 B2u  95 B2u                
  2.246   2.247   2.259   2.270   2.277   2.278   2.278   2.283
108 Ag   93 B1g 106 B3u  33 B3g 107 B3u 109 Ag   96 B2u  94 B1g                
  2.289   2.292   2.294   2.295   2.297   2.301   2.302   2.305
110 Ag   34 B3g  33 Au   95 B1g  97 B2u 108 B3u  41 B2g 111 Ag                 
  2.309   2.316   2.320   2.327   2.342   2.347   2.367   2.374
 42 B1u  34 Au  109 B3u 110 B3u  96 B1g 112 Ag  113 Ag  111 B3u                
  2.379   2.386   2.387   2.392   2.392   2.393   2.397   2.399
 98 B2u  42 B2g 114 Ag   43 B1u  99 B2u  43 B2g 112 B3u  97 B1g                
  2.401   2.409   2.412   2.421   2.425   2.448   2.456   2.467
 44 B1u  35 B3g 113 B3u 100 B2u 115 Ag   98 B1g  99 B1g 114 B3u                
  2.484   2.486   2.507   2.507   2.515   2.517   2.532   2.532
 35 Au  101 B2u  44 B2g  45 B1u  36 B3g  46 B1u 100 B1g 116 Ag                 
  2.535   2.537   2.552   2.561   2.561   2.562   2.565   2.577
102 B2u  45 B2g 115 B3u 101 B1g  37 B3g  36 Au   46 B2g 103 B2u                
  2.586   2.588   2.588   2.600   2.604   2.607   2.613   2.613
102 B1g 104 B2u 117 Ag   37 Au  116 B3u  38 B3g 118 Ag   47 B1u                
  2.620   2.630   2.636   2.638   2.641   2.649   2.653   2.659
103 B1g  39 B3g 119 Ag   38 Au  117 B3u  48 B1u  47 B2g  48 B2g                
  2.659   2.667   2.677   2.681   2.687   2.690   2.700   2.709
 49 B1u 104 B1g  40 B3g 105 B2u  39 Au  118 B3u  41 B3g  40 Au                 
  2.710   2.719   2.724   2.732   2.742   2.753   2.770   2.792
106 B2u 105 B1g  49 B2g 120 Ag  119 B3u 107 B2u 106 B1g 121 Ag                 
  2.803   2.832   2.832   2.840   2.846   2.847   2.850   2.860
120 B3u 122 Ag   41 Au  108 B2u 121 B3u 122 B3u  42 B3g  50 B1u                
  2.870   2.894   2.895   2.923   2.935   2.939   2.942   2.960
123 Ag   51 B1u  50 B2g  42 Au   51 B2g  43 B3g 107 B1g 109 B2u                
  2.962   2.973   2.973   2.975   2.976   2.978   2.989   3.007
124 Ag  123 B3u  43 Au  124 B3u 108 B1g 125 Ag   44 B3g 110 B2u                
  3.012   3.013   3.033   3.058   3.066   3.087   3.090   3.098
 52 B1u  44 Au   52 B2g 126 Ag  111 B2u 109 B1g 112 B2u 125 B3u                
  3.099   3.105   3.106   3.116   3.118   3.129   3.130   3.149
110 B1g 127 Ag  111 B1g 126 B3u 128 Ag  113 B2u 112 B1g 127 B3u                
  3.159   3.174   3.188   3.190   3.194   3.211   3.234   3.246
129 Ag  114 B2u 115 B2u 113 B1g 128 B3u 114 B1g 130 Ag  115 B1g                
  3.249   3.251   3.254   3.275   3.280   3.280   3.296   3.322
131 Ag  116 B2u 129 B3u 117 B2u 130 B3u 132 Ag  116 B1g 133 Ag                 
  3.340   3.365   3.370   3.371   3.393   3.432   3.442   3.468
131 B3u 117 B1g 118 B2u 134 Ag  132 B3u 118 B1g 119 B2u 135 Ag                 
  3.472   3.496   3.542   3.557   3.560   3.605   3.662   3.674
133 B3u 134 B3u 136 Ag  119 B1g 135 B3u 120 B2u 121 B2u 120 B1g                
  3.694   3.745   3.756   3.797   3.818   3.896   3.897   3.953
136 B3u 137 Ag  121 B1g 137 B3u 138 Ag  138 B3u 122 B2u 122 B1g                
  4.160   4.176   4.272   4.324   4.512   4.515   4.520   4.524
139 Ag  139 B3u 140 Ag  140 B3u 141 Ag  141 B3u 123 B2u 123 B1g                
  4.532   4.532   4.539   4.542   4.547   4.551   4.574   4.588
142 Ag  124 B2u 142 B3u 143 Ag  124 B1g 125 B2u 143 B3u 125 B1g                
  4.598   4.608   4.621   4.645   4.648   4.670   4.687   4.701
126 B2u 144 Ag  126 B1g 145 Ag  144 B3u 127 B2u 145 B3u 146 Ag                 
  4.712   4.714   4.726   4.755   4.819   4.821   4.853   4.887
146 B3u 127 B1g 147 Ag  128 B2u 147 B3u 128 B1g 129 B2u 148 Ag                 
  4.895   4.910   4.959   4.969   4.970   4.973   4.974   5.032
148 B3u 129 B1g 130 B2u 131 B2u 149 Ag  149 B3u 130 B1g 131 B1g                
  5.051   5.119   5.120   5.240   5.247   5.255   5.341   5.398
150 Ag  151 Ag  150 B3u 132 B2u 132 B1g 151 B3u 152 Ag  152 B3u                
 --------------------------------------------------------------
 
          Ground-State Mulliken Net Atomic Charges

     Atom                 Charge (a.u.)
  ----------------------------------------
      1 H                     0.210966
      2 H                     0.210966
      3 H                     0.204042
      4 H                     0.204042
      5 H                     0.202975
      6 H                     0.202975
      7 H                     0.212162
      8 H                     0.212162
      9 H                     0.212162
     10 H                     0.212162
     11 H                     0.202975
     12 H                     0.202975
     13 H                     0.204042
     14 H                     0.204042
     15 H                     0.210966
     16 H                     0.210966
     17 B                     0.450869
     18 B                     0.396830
     19 B                     0.396830
     20 B                     0.450869
     21 H                     0.196142
     22 H                     0.196142
     23 C                    -0.202612
     24 C                    -0.202612
     25 C                    -0.216577
     26 C                    -0.143430
     27 C                    -0.216577
     28 C                     0.011313
     29 C                     0.011313
     30 C                    -0.194923
     31 C                    -0.148699
     32 C                    -0.148699
     33 C                    -0.194923
     34 C                    -0.201199
     35 C                    -0.141025
     36 C                    -0.141025
     37 C                    -0.201199
     38 C                     0.035868
     39 C                     0.035868
     40 C                    -0.260454
     41 C                    -0.144965
     42 C                    -0.260454
     43 C                     0.012367
     44 C                     0.012367
     45 C                     0.012367
     46 C                     0.012367
     47 C                    -0.260454
     48 C                    -0.144965
     49 C                    -0.260454
     50 C                     0.035868
     51 C                     0.035868
     52 C                    -0.201199
     53 C                    -0.141025
     54 C                    -0.141025
     55 C                    -0.201199
     56 C                    -0.194923
     57 C                    -0.148699
     58 C                    -0.148699
     59 C                    -0.194923
     60 C                     0.011313
     61 C                     0.011313
     62 C                    -0.216577
     63 C                    -0.143430
     64 C                    -0.216577
     65 C                    -0.202612
     66 C                    -0.202612
     67 H                     0.196142
     68 H                     0.196142
  ----------------------------------------
  Sum of atomic charges =     0.000000

 -----------------------------------------------------------------
                    Cartesian Multipole Moments
 -----------------------------------------------------------------
    Charge (ESU x 10^10)
                 0.0000
    Dipole Moment (Debye)
         X       0.0000      Y      -0.0000      Z       0.0000
       Tot       0.0000
    Quadrupole Moments (Debye-Ang)
        XX    -221.5630     XY       0.0000     YY    -234.6966
        XZ      -0.0000     YZ      -0.0000     ZZ    -285.4577
    Octopole Moments (Debye-Ang^2)
       XXX       0.0000    XXY      -0.0000    XYY       0.0000
       YYY      -0.0000    XXZ       0.0000    XYZ       0.0000
       YYZ       0.0000    XZZ       0.0000    YZZ       0.0000
       ZZZ       0.0000
    Hexadecapole Moments (Debye-Ang^3)
      XXXX  -34097.2549   XXXY       0.0000   XXYY   -6988.4344
      XYYY       0.0000   YYYY   -8100.4569   XXXZ       0.0000
      XXYZ      -0.0000   XYYZ       0.0000   YYYZ       0.0000
      XXZZ   -7145.8387   XYZZ       0.0000   YYZZ   -1738.9644
      XZZZ       0.0000   YZZZ       0.0000   ZZZZ    -313.0969
 -----------------------------------------------------------------
 Total job time:  19231.75s(wall), 18926.19s(cpu) 
 Tue Apr 16 14:59:29 2024

======= MOLDEN-FORMATTED INPUT FILE FOLLOWS =======
[Molden Format]
[Atoms] (Angs)
  H      1    1      7.76943300     -3.40591000      0.00000000
  H      2    1      7.76943300      3.40591000     -0.00000000
  H      3    1      5.56499700     -4.73322800      0.00000000
  H      4    1      5.56499700      4.73322800     -0.00000000
  H      5    1      3.11978300     -4.73353700      0.00000000
  H      6    1      3.11978300      4.73353700     -0.00000000
  H      7    1      0.96103500     -3.42287700      0.00000000
  H      8    1      0.96103500      3.42287700     -0.00000000
  H      9    1     -0.96103500     -3.42287700      0.00000000
  H     10    1     -0.96103500      3.42287700     -0.00000000
  H     11    1     -3.11978300     -4.73353700      0.00000000
  H     12    1     -3.11978300      4.73353700     -0.00000000
  H     13    1     -5.56499700     -4.73322800      0.00000000
  H     14    1     -5.56499700      4.73322800     -0.00000000
  H     15    1     -7.76943300     -3.40591000      0.00000000
  H     16    1     -7.76943300      3.40591000     -0.00000000
  B     17    5      5.78570800      0.00000000     -0.00000000
  B     18    5      2.90123600      0.00000000     -0.00000000
  B     19    5     -2.90123600      0.00000000      0.00000000
  B     20    5     -5.78570800      0.00000000      0.00000000
  H     21    1      9.01977900     -1.34997000     -0.00000000
  H     22    1      9.01977900      1.34997000     -0.00000000
  C     23    6      7.93161400     -1.27178800      0.00000000
  C     24    6      7.93161400      1.27178800     -0.00000000
  C     25    6      7.20485900     -2.47558600      0.00000000
  C     26    6      7.30893700      0.00000000     -0.00000000
  C     27    6      7.20485900      2.47558600     -0.00000000
  C     28    6      5.78238700     -2.55985100      0.00000000
  C     29    6      5.78238700      2.55985100     -0.00000000
  C     30    6      5.03154500     -3.78544100      0.00000000
  C     31    6      5.04113900     -1.34379200      0.00000000
  C     32    6      5.04113900      1.34379200     -0.00000000
  C     33    6      5.03154500      3.78544100     -0.00000000
  C     34    6      3.65431100     -3.78626800      0.00000000
  C     35    6      3.65146000     -1.34083200      0.00000000
  C     36    6      3.65146000      1.34083200     -0.00000000
  C     37    6      3.65431100      3.78626800     -0.00000000
  C     38    6      2.90384500     -2.55714600      0.00000000
  C     39    6      2.90384500      2.55714600     -0.00000000
  C     40    6      1.49766300     -2.47944300      0.00000000
  C     41    6      1.39251200      0.00000000     -0.00000000
  C     42    6      1.49766300      2.47944300     -0.00000000
  C     43    6      0.72674400     -1.26567800      0.00000000
  C     44    6      0.72674400      1.26567800     -0.00000000
  C     45    6     -0.72674400     -1.26567800      0.00000000
  C     46    6     -0.72674400      1.26567800     -0.00000000
  C     47    6     -1.49766300     -2.47944300      0.00000000
  C     48    6     -1.39251200     -0.00000000      0.00000000
  C     49    6     -1.49766300      2.47944300     -0.00000000
  C     50    6     -2.90384500     -2.55714600      0.00000000
  C     51    6     -2.90384500      2.55714600     -0.00000000
  C     52    6     -3.65431100     -3.78626800      0.00000000
  C     53    6     -3.65146000     -1.34083200      0.00000000
  C     54    6     -3.65146000      1.34083200     -0.00000000
  C     55    6     -3.65431100      3.78626800     -0.00000000
  C     56    6     -5.03154500     -3.78544100      0.00000000
  C     57    6     -5.04113900     -1.34379200      0.00000000
  C     58    6     -5.04113900      1.34379200     -0.00000000
  C     59    6     -5.03154500      3.78544100     -0.00000000
  C     60    6     -5.78238700     -2.55985100      0.00000000
  C     61    6     -5.78238700      2.55985100     -0.00000000
  C     62    6     -7.20485900     -2.47558600      0.00000000
  C     63    6     -7.30893700     -0.00000000      0.00000000
  C     64    6     -7.20485900      2.47558600     -0.00000000
  C     65    6     -7.93161400     -1.27178800      0.00000000
  C     66    6     -7.93161400      1.27178800     -0.00000000
  H     67    1     -9.01977900     -1.34997000      0.00000000
  H     68    1     -9.01977900      1.34997000      0.00000000

======= END OF MOLDEN-FORMATTED INPUT FILE =======


        *************************************************************
        *                                                           *
        *  Thank you very much for using Q-Chem.  Have a nice day.  *
        *                                                           *
        *************************************************************


