                  Welcome to Q-Chem
     A Quantum Leap Into The Future Of Chemistry


 Q-Chem 6.0 (devel), Q-Chem, Inc., Pleasanton, CA (2022)

 E. Epifanovsky,  A. T. B. Gilbert,  Xintian Feng,  Joonho Lee,  Yuezhi Mao,  
 N. Mardirossian,  P. Pokhilko,  A. White,  M. Wormit,  M. P. Coons,  
 A. L. Dempwolff,  Zhengting Gan,  D. Hait,  P. R. Horn,  L. D. Jacobson,  
 I. Kaliman,  J. Kussmann,  A. W. Lange,  Ka Un Lao,  D. S. Levine,  Jie Liu,  
 S. C. McKenzie,  A. F. Morrison,  K. Nanda,  F. Plasser,  D. R. Rehn,  
 M. L. Vidal,  Zhi-Qiang You,  Ying Zhu,  B. Alam,  B. Albrecht,  
 A. Aldossary,  E. Alguire,  J. H. Andersen,  V. Athavale,  D. Barton,  
 K. Begam,  A. Behn,  N. Bellonzi,  Y. A. Bernard,  E. J. Berquist,  
 H. Burton,  A. Carreras,  K. Carter-Fenk,  Romit Chakraborty,  
 Chandrima Chakravarty,  Junhan Chen,  A. D. Chien,  K. D. Closser,  
 V. Cofer-Shabica,  L. Cunha,  S. Dasgupta,  Jia Deng,  M. de Wergifosse,  
 M. Diedenhofen,  Hainam Do,  S. Ehlert,  Po-Tung Fang,  S. Fatehi,  
 Qingguo Feng,  T. Friedhoff,  B. Ganoe,  J. Gayvert,  Qinghui Ge,  
 G. Gidofalvi,  M. Goldey,  J. Gomes,  C. Gonzalez-Espinoza,  S. Gulania,  
 A. Gunina,  J. A. Gyamfi,  M. W. D. Hanson-Heine,  P. H. P. Harbach,  
 A. W. Hauser,  M. F. Herbst,  M. Hernandez Vera,  M. Hodecker,  
 Z. C. Holden,  S. Houck,  Xunkun Huang,  Kerwin Hui,  B. C. Huynh,  
 K. Ikeda,  M. Ivanov,  Hyunjun Ji,  Zuxin Jin,  Hanjie Jiang,  B. Kaduk,  
 S. Kaehler,  R. Kang,  K. Khistyaev,  Jaehoon Kim,  Yongbin Kim,  
 P. Klunzinger,  Z. Koczor-Benda,  Joong Hoon Koh,  D. Kosenkov,  
 Saikiran Kotaru,  L. Koulias,  T. Kowalczyk,  C. M. Krauter,  K. Kue,  
 A. Kunitsa,  T. Kus,  A. Landau,  K. V. Lawler,  D. Lefrancois,  S. Lehtola,  
 Rain Li,  Shaozhi Li,  Yi-Pei Li,  Jiashu Liang,  M. Liebenthal,  
 Hung-Hsuan Lin,  You-Sheng Lin,  Fenglai Liu,  Kuan-Yu Liu,  
 M. Loipersberger,  A. Luenser,  C. Malbon,  A. Manjanath,  P. Manohar,  
 E. Mansoor,  S. F. Manzer,  Shan-Ping Mao,  A. V. Marenich,  T. Markovich,  
 S. Mason,  F. Matz,  S. A. Maurer,  P. F. McLaughlin,  M. F. S. J. Menger,  
 J.-M. Mewes,  S. A. Mewes,  P. Morgante,  Mohammad Mostafanejad,  
 J. W. Mullinax,  K. J. Oosterbaan,  G. Paran,  V. Parravicini,  
 Alexander C. Paul,  Suranjan K. Paul,  F. Pavosevic,  Zheng Pei,  S. Prager,  
 E. I. Proynov,  E. Ramos,  B. Rana,  A. E. Rask,  A. Rettig,  R. M. Richard,  
 F. Rob,  E. Rossomme,  T. Scheele,  M. Scheurer,  M. Schneider,  
 P. E. Schneider,  N. Sergueev,  S. M. Sharada,  Hengyuan Shen,  
 W. Skomorowski,  D. W. Small,  C. J. Stein,  Yingli Su,  Yu-Chuan Su,  
 E. J. Sundstrom,  Zhen Tao,  J. Thirman,  Hung-Yi Tsai,  T. Tsuchimochi,  
 N. M. Tubman,  C. Utku,  S. P. Veccham,  O. Vydrov,  J. Wenzel,  
 Jonathan Wong,  J. Witte,  A. Yamada,  Chou-Hsun Yang,  Kun Yao,  
 S. Yeganeh,  S. R. Yost,  A. Zech,  F. Zeller,  Igor Ying Zhang,  
 Xing Zhang,  Yu Zhang,  D. Zuev,  A. Aspuru-Guzik,  A. T. Bell,  
 N. A. Besley,  K. B. Bravaya,  B. R. Brooks,  D. Casanova,  Jeng-Da Chai,  
 Hsing-Ta Chen,  S. Coriani,  C. J. Cramer,  A. E. DePrince, III,  
 R. A. DiStasio Jr.,  A. Dreuw,  B. D. Dunietz,  T. R. Furlani,  
 W. A. Goddard III,  S. Grimme,  S. Hammes-Schiffer,  T. Head-Gordon,  
 W. J. Hehre,  Chao-Ping Hsu,  T.-C. Jagau,  Yousung Jung,  A. Klamt,  
 Jing Kong,  D. S. Lambrecht,  Xiangyuan Li,  WanZhen Liang,  N. J. Mayhall,  
 C. W. McCurdy,  J. B. Neaton,  T. Neudecker,  C. Ochsenfeld,  
 J. A. Parkhill,  R. Peverati,  V. A. Rassolov,  Haisheng Ren,  Yihan Shao,  
 L. V. Slipchenko,  R. P. Steele,  J. E. Subotnik,  A. J. W. Thom,  
 A. Tkatchenko,  D. G. Truhlar,  T. Van Voorhis,  Fan Wang,  
 T. A. Wesolowski,  K. B. Whaley,  H. L. Woodcock III,  P. M. Zimmerman,  
 S. Faraji,  P. M. W. Gill,  M. Head-Gordon,  J. M. Herbert,  A. I. Krylov

 Contributors to earlier versions of Q-Chem not listed above: 
 R. D. Adamson,  B. Austin,  R. Baer,  J. Baker,  G. J. O. Beran,  
 K. Brandhorst,  S. T. Brown,  E. F. C. Byrd,  Arup K. Chakraborty,  
 G. K. L. Chan,  Chun-Min Chang,  Yunqing Chen,  C.-L. Cheng,  
 Siu Hung Chien,  D. M. Chipman,  D. L. Crittenden,  H. Dachsel,  
 R. J. Doerksen,  A. D. Dutoi,  R. G. Edgar,  J. Fosso-Tande,  
 L. Fusti-Molnar,  D. Ghosh,  A. Ghysels,  A. Golubeva-Zadorozhnaya,  
 J. Gonthier,  M. S. Gordon,  S. R. Gwaltney,  G. Hawkins,  J. E. Herr,  
 A. Heyden,  S. Hirata,  E. G. Hohenstein,  G. Kedziora,  F. J. Keil,  
 C. Kelley,  Jihan Kim,  R. A. King,  R. Z. Khaliullin,  P. P. Korambath,  
 W. Kurlancheek,  A. Laurent,  A. M. Lee,  M. S. Lee,  S. V. Levchenko,  
 Ching Yeh Lin,  D. Liotard,  E. Livshits,  R. C. Lochan,  I. Lotan,  
 L. A. Martinez-Martinez,  P. E. Maslen,  N. Nair,  D. P. O'Neill,  
 D. Neuhauser,  E. Neuscamman,  C. M. Oana,  R. Olivares-Amaya,  R. Olson,  
 T. M. Perrine,  B. Peters,  P. A. Pieniazek,  A. Prociuk,  Y. M. Rhee,  
 J. Ritchie,  M. A. Rohrdanz,  E. Rosta,  N. J. Russ,  H. F. Schaefer III,  
 M. W. Schmidt,  N. E. Schultz,  S. Sharma,  N. Shenvi,  C. D. Sherrill,  
 A. C. Simmonett,  A. Sodt,  T. Stein,  D. Stuck,  K. S. Thanthiriwatte,  
 V. Vanovschi,  L. Vogt,  Tao Wang,  A. Warshel,  M. A. Watson,  
 C. F. Williams,  Q. Wu,  X. Xu,  Jun Yang,  W. Zhang,  Yan Zhao

   Please cite Q-Chem as follows:
  "Software for the frontiers of quantum chemistry:
   An overview of developments in the Q-Chem 5 package"
   J. Chem. Phys. 155, 084801 (2021)
   https://doi.org/10.1063/5.0055522 (open access)

 Q-Chem 6.0.1 for Intel X86 EM64T Linux

 Parts of Q-Chem use Armadillo 9.900.5 (Nocturnal Misbehaviour).
 http://arma.sourceforge.net/

 Q-Chem begins on Tue Jan 10 15:44:33 2023  

 Host: atlas-199
0

     Scratch files written to ./qchem356627//
 Processing $rem in /scratch/abel/SOFTWARE/qchem/config/preferences:
 Processing $rem in /dipc/acebg/.qchemrc:

 Checking the input file for inconsistencies... 	...done.

--------------------------------------------------------------
User input:
--------------------------------------------------------------
$comment
 RAS-SF CALCULATION
$end

$molecule
1 2    !charge and multiplicity
O1
H1 O1 oh
H2 O1 oh H1 hoh

oh = 0.997
hoh = 109.17
$end

$rem
!**CALCULATION TYPE***     
JOBTYPE            sp    
EXCHANGE           HF
CORRELATION        RASCI    !RASCI=Casanova; RASCI2=Zimmerman
BASIS              GEN
PURECART           11

!***SCF REFERENCE***
SKIP_SCFMAN        FALSE
UNRESTRICTED       FALSE
!SCF_GUESS          core
!SCF_GUESS_MIX      FALSE
!SCF_GUESS_ALWAYS   FALSE
MAX_SCF_CYCLES     500
SCF_CONVERGENCE    8
!SCF_ALGORITHM      DIIS !DIIS,DM,DIIS_DM,GDM,DIIS_GDM,GD

SYMMETRY           TRUE !use of symmetry for calculating integrals
SYM_IGNORE         FALSE !turn off using symmetry
SYM_TOL            5 !tolerance for determining point group

!THRESH             14
SCF_FINAL_PRINT     1 !0,1,2,3

!****RAS-SF****
RAS_ROOTS          10       !number of RAS-CI roots to be computed
SET_ITER           100     !number of iterations in RASCI
RAS_ELEC           5       !number of electrons in RAS2
!RAS_ELEC_ALPHA            !spin-α electrons in RAS2 
!RAS_ELEC_BETA             !spin-β electrons in RAS2

RAS_ACT            5       !number of orbitals in RAS2 
RAS_ACT_ORB       [3,4,5,6,7]  !user-selected RAS2 orbitals
RAS_OCC            2       !number of orbitals in RAS1
N_FROZEN_CORE      0     !Number of frozen core orbitals
N_FROZEN_VIRTUAL   0      !Number of frozen virtual orbitals
RAS_NATORB         TRUE    !computation of the natural orbital occupancies
!RAS_NATORB_STATE  0      !Saves NO of i RAS computed state in .fchk ﬁle

RAS_DO_HOLE        TRUE   !presence of hole excitations in RAS-CI wave function
RAS_DO_PART        TRUE   !presence of particle excitations
RAS_AMPL_PRINT     10     !threshold (×10 2 ) for the CI amplitudes

RAS_GUESS_CS       0      !number of closed shell guess conﬁgurations
RAS_SPIN_MULT      0      !spin multiplicity: 0=any, 2n+1=defined 
RAS_SRDFT          FALSE  !short-range density functional RAS-CI
RAS_NFRAG          0     !fragments of excitation analysis in RASCI

RAS_PRINT          2      !level of information
RAS_NATORB         TRUE   !computation of the natural orbital occupancies
!RAS_NATORB_STATE  0      !Saves NO of i RAS computed state in .fchk ﬁle
RAS_FOD            TRUE

!****RAS-SOC****
CALC_SOC           TRUE   !calculate SOC for EOM-CC, RAS-CI, ADC, TDDFT/TDA and TDDFT
!RAS_SOC_2E        TRUE   !two-electron mean-ﬁeld contribution, default=true
RAS_SOC_SYM_DENS   TRUE   !averaging of α and β densities

!****MEMORY****
MEM_TOTAL          15000 !Default 2000 MB
MEM_STATIC         3000  !Default 64 MB

!**Molecular Properties and Analysis **                                                                                          
GUI                2
STATE_ANALYSIS     TRUE
MOLDEN_FORMAT      TRUE
PRINT_ORBITALS     20
$end                                           

$basis
H     0
S   7   1.00
    107.20423474             1.2561759039
     16.04351239            -1.2127850940
      3.61654671             0.8496814064
      0.93543804            -0.5713464803
      0.30477121             0.3896279520
      0.10685424            -0.2086589841
      0.03746361             0.0658265355
S   7   1.00
    107.20423474            -0.1107728471
     16.04351239            -1.3622233382
      3.61654671             2.0523510554
      0.93543804            -2.0154293657
      0.30477121             1.6687173812
      0.10685424            -1.0129033026
      0.03746361             0.3481264731
S   7   1.00
    107.20423474             0.0007959672
     16.04351239             0.0058692523
      3.61654671             0.0321526568
      0.93543804             0.1285022287
      0.30477121             0.2757362499
      0.10685424             0.4281655102
      0.03746361             0.2987378698
S   7   1.00
    107.20423474             0.0500649333
     16.04351239             0.3724763868
      3.61654671             1.0249548260
      0.93543804            -2.5146625803
      0.30477121             2.9975439894
      0.10685424            -2.3054228775
      0.03746361             0.9470146960
S   7   1.00
    107.20423474            -0.0036160841
     16.04351239            -0.0260767933
      3.61654671            -0.1438519715
      0.93543804            -0.5279326925
      0.30477121            -0.5229144745
      0.10685424             0.4597446586
      0.03746361             0.5084217924
S   7   1.00
    107.20423474            -0.0149867252
     16.04351239            -0.0758278446
      3.61654671            -0.6577850632
      0.93543804            -0.4426490431
      0.30477121             2.4214816236
      0.10685424            -2.7849931396
      0.03746361             1.2962568050
S   7   1.00
    107.20423474             0.0004884378
     16.04351239             0.0021647950
      3.61654671             0.0828337786
      0.93543804             0.9103092023
      0.30477121            -0.6006636330
      0.10685424            -1.3051985878
      0.03746361             1.4372672127
P   4   1.00
      1.93253233             0.1593849694
      1.05320343             0.0996983007
      0.50662208             0.5090260709
      0.21338213             0.3637470263
P   4   1.00
      1.93253233             1.2384922602
      1.05320343             0.0188745910
      0.50662208            -1.9298525266
      0.21338213             1.2358549104
P   4   1.00
      1.93253233            -3.2074361272
      1.05320343             6.0553815574
      0.50662208            -4.4430072650
      0.21338213             1.4893844906
P   4   1.00
      1.93253233            -0.4292148721
      1.05320343            -0.1071337009
      0.50662208            -0.7271009103
      0.21338213             1.2548794878
D   2   1.00
      0.79635354             0.5018714546
      0.31879429             0.5817895775
D   2   1.00
      0.79635354            -1.3103281146
      0.31879429             1.2768537945
****
O     0
S   13   1.00
  60090.63000000            -0.0195413375
   9178.64300000             0.1124388889
   1956.07500000            -0.5155668651
    532.33530000             2.7727641684
    172.04650000            -3.7858732346
     62.28191000             3.1656075066
     24.11402000            -2.2039064781
      9.63524800             1.4086720095
      3.86729700            -0.8396476481
      1.52812000             0.4642702812
      0.58555830            -0.2345298949
      0.21504120             0.1027830301
      0.07897200            -0.0299675444
S   13   1.00
  60090.63000000             0.0001692081
   9178.64300000             0.0008891879
   1956.07500000             0.0044485389
    532.33530000             0.0179738557
    172.04650000             0.0600476428
     62.28191000             0.1620707499
     24.11402000             0.3339289709
      9.63524800             0.4092140945
      3.86729700             0.1618795818
      1.52812000             0.0022027536
      0.58555830             0.0034704047
      0.21504120            -0.0012142930
      0.07897200             0.0005534896
S   13   1.00
  60090.63000000             0.0016824261
   9178.64300000            -0.0102558308
   1956.07500000             0.1095002733
    532.33530000            -0.4488321249
    172.04650000             3.1385355360
     62.28191000            -5.2563693877
     24.11402000             4.9314159993
      9.63524800            -3.4506227726
      3.86729700             2.0654871108
      1.52812000            -1.1249012317
      0.58555830             0.5615527166
      0.21504120            -0.2446043966
      0.07897200             0.0711325634
S   13   1.00
  60090.63000000            -0.0002065020
   9178.64300000            -0.0035641933
   1956.07500000             0.0029640655
    532.33530000            -0.1218194024
    172.04650000             0.0735099054
     62.28191000            -2.7197744822
     24.11402000             5.2215840139
      9.63524800            -4.8348223157
      3.86729700             3.1687265830
      1.52812000            -1.7533842622
      0.58555830             0.8740236986
      0.21504120            -0.3802947001
      0.07897200             0.1105304790
S   13   1.00
  60090.63000000             0.0002419867
   9178.64300000             0.0000566806
   1956.07500000             0.0108054863
    532.33530000            -0.0172571578
    172.04650000             0.2416080740
     62.28191000            -0.3596654472
     24.11402000             3.0148695731
      9.63524800            -6.0524851282
      3.86729700             5.9236855025
      1.52812000            -3.9750352666
      0.58555830             2.1515882879
      0.21504120            -0.9647815655
      0.07897200             0.2822880591
S   13   1.00
  60090.63000000            -0.0000395897
   9178.64300000            -0.0002084833
   1956.07500000            -0.0010430918
    532.33530000            -0.0042636830
    172.04650000            -0.0144962724
     62.28191000            -0.0416420553
     24.11402000            -0.0970746371
      9.63524800            -0.1700226740
      3.86729700            -0.1020310048
      1.52812000             0.2917777597
      0.58555830             0.6302910866
      0.21504120             0.2386680568
      0.07897200             0.0075406479
S   13   1.00
  60090.63000000            -0.0000773803
   9178.64300000            -0.0005818941
   1956.07500000            -0.0014078771
    532.33530000            -0.0149554973
    172.04650000            -0.0096707840
     62.28191000            -0.2062919652
     24.11402000             0.0042110667
      9.63524800            -1.6043085938
      3.86729700             4.9112426184
      1.52812000            -6.1877669361
      0.58555830             4.9226183362
      0.21504120            -2.7759393511
      0.07897200             0.8984356654
S   13   1.00
  60090.63000000            -0.0000493138
   9178.64300000            -0.0002616399
   1956.07500000            -0.0012940482
    532.33530000            -0.0053976104
    172.04650000            -0.0180551425
     62.28191000            -0.0546545545
     24.11402000            -0.1253836904
      9.63524800            -0.2655132982
      3.86729700            -0.0863057573
      1.52812000             1.3025724632
      0.58555830             0.1258597737
      0.21504120            -2.0057236989
      0.07897200             1.1372529664
S   13   1.00
  60090.63000000             0.0000652206
   9178.64300000             0.0003851097
   1956.07500000             0.0015725997
    532.33530000             0.0086283101
    172.04650000             0.0199439496
     62.28191000             0.1017080665
     24.11402000             0.1231693298
      9.63524800             0.6571302334
      3.86729700            -1.0140167663
      1.52812000            -1.4456106903
      0.58555830             3.7310933587
      0.21504120            -3.3439638439
      0.07897200             1.2929116266
S   13   1.00
  60090.63000000             0.0000125071
   9178.64300000             0.0000635004
   1956.07500000             0.0003382904
    532.33530000             0.0012608655
    172.04650000             0.0048739193
     62.28191000             0.0117999479
     24.11402000             0.0350558932
      9.63524800             0.0431547110
      3.86729700             0.0686575271
      1.52812000            -0.2069936760
      0.58555830            -0.0765718142
      0.21504120            -0.8292339701
      0.07897200             1.5687412119
P   8   1.00
    113.11180000            -1.2710682785
     26.41491000             1.0910020651
      8.17643800            -0.7705377467
      2.92841600             0.5099230624
      1.10453300            -0.3033330829
      0.41297850             0.1584074733
      0.14779610            -0.0717784623
      0.05289305             0.0231677216
P   8   1.00
    113.11180000             0.0254977556
     26.41491000            -1.5479139269
      8.17643800             1.8898556729
      2.92841600            -1.4464555291
      1.10453300             0.8870093109
      0.41297850            -0.4705523458
      0.14779610             0.2218889459
      0.05289305            -0.0770360461
P   8   1.00
    113.11180000             0.0025494846
     26.41491000             0.0190898373
      8.17643800             0.0827611559
      2.92841600             0.2348713494
      1.10453300             0.4160688706
      0.41297850             0.3827214973
      0.14779610             0.1043982782
      0.05289305            -0.0015088188
P   8   1.00
    113.11180000            -0.0026630700
     26.41491000            -0.0212035935
      8.17643800            -0.0872809032
      2.92841600            -0.3241830901
      1.10453300            -0.4488528421
      0.41297850             0.3930914267
      0.14779610             0.6675097555
      0.05289305             0.0238835115
P   8   1.00
    113.11180000            -0.0238049270
     26.41491000            -0.0185497260
      8.17643800            -1.4523692173
      2.92841600             2.6627270901
      1.10453300            -2.7548641088
      0.41297850             2.1599393727
      0.14779610            -1.4222072851
      0.05289305             0.6547424457
P   8   1.00
    113.11180000             0.0053232057
     26.41491000             0.0462694043
      8.17643800             0.2064478125
      2.92841600             0.7461414937
      1.10453300            -0.4557194537
      0.41297850            -0.8913484286
      0.14779610             0.9101315452
      0.05289305             0.0976906024
P   8   1.00
    113.11180000            -0.0112898559
     26.41491000            -0.0560743425
      8.17643800            -0.5679396015
      2.92841600            -0.3559825914
      1.10453300             1.7438247134
      0.41297850            -1.7932938169
      0.14779610             0.6661116827
      0.05289305             0.2973418495
P   8   1.00
    113.11180000             0.0095798026
     26.41491000             0.0116605639
      8.17643800             0.5564970289
      2.92841600            -0.5894713168
      1.10453300            -0.1801383049
      0.41297850             1.2013211517
      0.14779610            -1.9369305772
      0.05289305             1.5589788649
D   4   1.00
      2.91881374             0.2189008976
      1.47086227             0.3084606274
      0.67466607             0.4968855570
      0.27128932             0.1543978747
D   4   1.00
      2.91881374            -0.5840117450
      1.47086227            -0.3749425939
      0.67466607             0.4232434086
      0.27128932             0.5661997036
D   4   1.00
      2.91881374            -1.9148526647
      1.47086227             3.4686455436
      0.67466607            -2.7388636396
      0.27128932             1.1211849019
D   4   1.00
      2.91881374             1.0008481630
      1.47086227            -0.4995933023
      0.67466607            -1.0328708731
      0.27128932             1.1470255900
F   3   1.00
      2.21897757             0.4559426055
      1.07062169             0.4472676941
      0.43980442             0.2648932271
F   3   1.00
      2.21897757            -0.9647857915
      1.07062169             0.3751836722
      0.43980442             0.6946471172
F   3   1.00
      2.21897757             1.2881000474
      1.07062169            -2.0410903807
      0.43980442             1.2613220749
****
$end

--------------------------------------------------------------
 ----------------------------------------------------------------
             Standard Nuclear Orientation (Angstroms)
    I     Atom           X                Y                Z
 ----------------------------------------------------------------
    1      O       0.0000000000     0.0000000000     0.1155512138
    2      H      -0.8125311840    -0.0000000000    -0.4622048550
    3      H       0.8125311840    -0.0000000000    -0.4622048550
 ----------------------------------------------------------------
 Molecular Point Group                 C2v   NOp =  4
 Largest Abelian Subgroup              C2v   NOp =  4
 Nuclear Repulsion Energy =           8.81794733 hartrees
 There are        5 alpha and        4 beta electrons
 Requested basis set is non-standard
 There are 51 shells and 133 basis functions

 Total QAlloc Memory Limit  15000 MB
 Mega-Array Size      2933 MB
 MEM_STATIC part      3000 MB


                       Distance Matrix (Angstroms)
             O (  1)   H (  2)
   H (  2)  0.997000
   H (  3)  0.997000  1.625062
 
 A cutoff of  1.0D-12 yielded   1326 shell pairs
 There are      9102 function pairs (     11628 Cartesian)
 Smallest overlap matrix eigenvalue = 7.80E-05

 Scale SEOQF with 1.000000e-01/1.000000e-01/1.000000e-01

 Standard Electronic Orientation quadrupole field applied
 ================ Generating on-the-fly SAD Guess ================
 Attempting to make child job directory: ./qchem356627//Frg1/
 Attempting to make child job directory: ./qchem356627//Frg2/
 Creating input file ./qchem356627/Frg1.input
 using default PutDataFrgm: nothing
 calling putenv with: QCSCRATCH=./qchem356627/ 
 Spawning Job For Fragment 0
 Done Job For Fragment 0
 calling putenv with: QCSCRATCH=. 
 calling putenv with: QCTHREADS=1 
 Creating input file ./qchem356627/Frg2.input
 using default PutDataFrgm: nothing
 calling putenv with: QCSCRATCH=./qchem356627/ 
 Spawning Job For Fragment 1
 Done Job For Fragment 1
 calling putenv with: QCSCRATCH=. 
 calling putenv with: QCTHREADS=1 
 Time for running child jobs:  CPU 0.02 s  wall 1341.50 s
 ============= Method Specific SAD Guess Constructed =============
 Guess from on-the-fly superposition of atomic densities
 Warning: Energy on first SCF cycle will be non-variational

 -----------------------------------------------------------------------
  General SCF calculation program by
  Eric Jon Sundstrom, Paul Horn, Yuezhi Mao, Dmitri Zuev, Alec White,
  David Stuck, Shaama M.S., Shane Yost, Joonho Lee, David Small,
  Daniel Levine, Susi Lehtola, Hugh Burton, Evgeny Epifanovsky,
  Bang C. Huynh
 -----------------------------------------------------------------------
 Hartree-Fock
 Orthonormalizing orbitals
 A restricted open-shell SCF calculation will be
 performed using GDM
 SCF converges when RMS gradient is below 1.0e-08
 ---------------------------------------
  Cycle       Energy        RMS Gradient
 ---------------------------------------
    1     -74.2863669407      6.76e-01   Descent step
    2     -74.5879235671      5.05e-01   Descent step
Fro norm of D 1.170322094229e+00
transformation scaled by 2
    3     -74.7774809655      7.18e-01   Descent step
    4     -75.3491815927      5.14e-01   Descent step
    5     -75.4942345389      2.86e-01   Dog-leg BFGS step
    6     -75.5651063899      1.11e-01   Normal BFGS step
    7     -75.5819264205      3.71e-02   Normal BFGS step
    8     -75.5825552524      1.67e-02   Normal BFGS step
    9     -75.5828111563      4.71e-03   Normal BFGS step
   10     -75.5828421362      2.68e-03   Normal BFGS step
   11     -75.5828465217      5.07e-04   Normal BFGS step
   12     -75.5828471131      2.35e-04   Normal BFGS step
   13     -75.5828471378      1.83e-04   Normal BFGS step
   14     -75.5828471521      1.95e-05   Normal BFGS step
   15     -75.5828471524      1.16e-05   Normal BFGS step
   16     -75.5828471525      6.72e-07   Normal BFGS step
   17     -75.5828471525      5.09e-07   Normal BFGS step
   18     -75.5828471525      1.60e-07   Normal BFGS step
   19     -75.5828471525      2.17e-08   Normal BFGS step
   20     -75.5828471525      7.87e-09  Convergence criterion met
The disked orbital energies are calculated using alpha and beta Focks
 ---------------------------------------
 Alpha HF Exchange    Energy =  -4.64253180255791
 Beta HF Exchange     Energy =  -3.97383602629224
 Nuclear Attraction   Energy =   0.00000000000000
 One-Electron (alpha) Energy = -62.46191129212709
 One-Electron (beta)  Energy = -55.14736948081615
 Total Coulomb        Energy =  41.82485412316426
 Final Alpha MO Eigenvalues
            1           2           3           4           5           6
    1 -21.0987843  -1.8424230  -1.1866371  -1.0072599  -1.1743107  -0.1811852
            7           8           9          10          11          12
    1  -0.1169436  -0.0765267  -0.0683664  -0.0220717  -0.0181078   0.0080211
           13          14          15          16          17          18
    1   0.0477560   0.1431216   0.1863879   0.2265317   0.2349228   0.2533341
           19          20          21          22          23          24
    1   0.2873221   0.2941878   0.3212811   0.3993963   0.5203396   0.5986069
           25          26          27          28          29          30
    1   0.6090569   0.6091043   0.6502790   0.7110871   0.7878032   0.8423985
           31          32          33          34          35          36
    1   0.8832014   0.9411328   0.9598987   0.9738882   1.0689004   1.0805234
           37          38          39          40          41          42
    1   1.0988079   1.1372653   1.2023638   1.2105712   1.2732266   1.2992351
           43          44          45          46          47          48
    1   1.3378323   1.4068275   1.5894875   1.6347215   1.6480517   1.6589221
           49          50          51          52          53          54
    1   1.7409911   1.8306209   1.9485887   1.9773966   2.0545760   2.1019669
           55          56          57          58          59          60
    1   2.1670807   2.2890030   2.4660609   2.4704840   2.4733779   2.5512637
           61          62          63          64          65          66
    1   2.5673003   2.9234315   3.1021459   3.1552120   3.1872652   3.3059690
           67          68          69          70          71          72
    1   3.4349439   3.4771948   3.4925056   3.5464733   3.5908616   3.7435485
           73          74          75          76          77          78
    1   3.8234978   3.8540950   3.9377573   3.9858722   4.0307827   4.1977623
           79          80          81          82          83          84
    1   4.2462818   4.7290151   4.8079452   5.0648659   5.0795627   5.1080031
           85          86          87          88          89          90
    1   5.4336283   5.5056667   5.5298399   5.6081184   5.6924953   5.7517403
           91          92          93          94          95          96
    1   6.0120576   6.2703460   6.6234955   6.9119047   7.1447522   8.8001774
           97          98          99         100         101         102
    1   8.8031275   8.8302361   8.9021754   8.9535922   9.1653449   9.4952423
          103         104         105         106         107         108
    1   9.5074216  11.4176747  11.4224514  11.5941854  11.5977159  11.8018966
          109         110         111         112         113         114
    1  11.9206253  12.0271470  12.4191808  12.5230057  12.5084081  12.8040784
          115         116         117         118         119         120
    1  13.2431954  15.0524113  19.9068868  20.4256688  20.7545009  34.5261511
          121         122         123         124         125         126
    1  34.6662131  45.9879645  68.1072159  68.4969130  68.7431719 139.7523785
          127         128         129         130         131         132
    1 205.4981996 205.6085730 294.2487444 294.5335883 294.6957661 422.7046159
          133
    11410.2667449
 Final Beta MO Eigenvalues
            1           2           3           4           5           6
    1 -21.0606208  -1.7162619  -1.1460420  -0.9599685  -0.3413416  -0.1712229
            7           8           9          10          11          12
    1  -0.1110704  -0.0668859  -0.0668034  -0.0116239  -0.0086264   0.0135738
           13          14          15          16          17          18
    1   0.0509176   0.1586549   0.1881868   0.2380644   0.2566719   0.2837088
           19          20          21          22          23          24
    1   0.2917005   0.3051773   0.3252045   0.4017718   0.5258083   0.6118260
           25          26          27          28          29          30
    1   0.6186336   0.6190617   0.6541316   0.7418535   0.7990487   0.8505892
           31          32          33          34          35          36
    1   0.8897962   0.9810487   0.9634276   0.9784190   1.0767724   1.0926844
           37          38          39          40          41          42
    1   1.1034818   1.1382612   1.2163990   1.2202624   1.2766457   1.3029490
           43          44          45          46          47          48
    1   1.3462510   1.4186305   1.6008485   1.6411131   1.6614288   1.6844331
           49          50          51          52          53          54
    1   1.7465120   1.8403308   1.9631083   2.0077519   2.1042850   2.1372359
           55          56          57          58          59          60
    1   2.1850454   2.3189501   2.4775451   2.4744817   2.5310987   2.5644609
           61          62          63          64          65          66
    1   2.5784715   2.9428304   3.1102577   3.1604462   3.1969480   3.3131722
           67          68          69          70          71          72
    1   3.4511213   3.5056901   3.5010852   3.5533017   3.5971811   3.7569981
           73          74          75          76          77          78
    1   3.8301399   3.8588406   3.9453626   3.9956193   4.0349273   4.2191410
           79          80          81          82          83          84
    1   4.2515246   4.7526010   4.8368324   5.0764000   5.1045527   5.1233246
           85          86          87          88          89          90
    1   5.4933112   5.5142913   5.5824991   5.6337141   5.7287366   5.7767193
           91          92          93          94          95          96
    1   6.0576011   6.3185404   6.6403104   6.9644341   7.1601866   8.8048362
           97          98          99         100         101         102
    1   8.8077258   8.8358912   8.9122167   8.9626429   9.1745949   9.5028039
          103         104         105         106         107         108
    1   9.5144747  11.4606485  11.4617277  11.6038550  11.6082661  11.8322587
          109         110         111         112         113         114
    1  11.9578869  12.0672003  12.4696163  12.5349431  12.5687461  12.8192120
          115         116         117         118         119         120
    1  13.2888224  15.0833402  19.9200761  20.4763530  20.7666101  34.5294272
          121         122         123         124         125         126
    1  34.6695200  46.0051199  68.1146218  68.5203765  68.7506129 139.7604306
          127         128         129         130         131         132
    1 205.4991275 205.6095037 294.2526078 294.5408820 294.6996228 422.7084423
          133
    11410.2685415
 SCF time:   CPU 3114.62s  wall 3124.00s 
<S^2> =          0.750000000
 SCF   energy in the final basis set =      -75.5828471525
 Total energy in the final basis set =      -75.5828471525
Setting RAS_srDFT_COR/EXC
  
     ##========================================##
     ||                                        ||
     ||              R A S M A N 2             ||
     ||________________________________________||
     ||                                        ||
     ||  Author:                               ||
     ||                                        ||
     ||        David Casanova (2010)           ||
     ||                                        ||
     ##========================================##
  
  ***************************************************
  *  RAS-CI Dimensions:                             *
  *                                                 *
  *  Active Elec.:   5 ( 3, 2)   Active Orb.:   5   *
  *  Doubly Occ. :   2           Doubly Vir.: 126   *
  *  Frozen Occ. :   0           Frozen Vir.:   0   *
  *                                                 *
  *  Total CI configurations:     19300             * 
  *    Active configurations:       100             * 
  *      Hole configurations:       300             * 
  *  Particle configurations:     18900             * 
  *                                                 *
  *   Requested states:       10                    *
  *  Spin multiplicity: Any multiplicity            *
  *                                                 *
  ***************************************************
-----------------------------------------
    Memory requirements of RASCI

 Each CI-vector requires      0.15 MiB 
 Max. subspace vectors           1000      

 Reduced Lists                0.00 MiB 
 Excitation Lists             0.00 MiB 
 Excitation Lists Sign        0.00 MiB 
 CI-space (Max)             156.36 MiB 
 Integrals                    7.95 MiB 
 Memory required (Max)      156.36 MiB 
 Memory available          2861.02 MiB 

    Disk requirements of RASCI

 Fock matrix                  0.27 MiB 
 2-electron integrals        12.47 MiB 
 CI-space                   294.49 MiB 
 Disk required              307.23 MiB 
-----------------------------------------
  
RAS1 HF-like energy:            -63.3054675189
 Computing integrals
 Computing J and K matrices
 Computing addressing
 Making amplitude guesses
 
Direct CI diagonalization
 ---------------------------------------------------
 Iter    Rts Conv    Rts Left    Ttl Dev     Max Dev
 ---------------------------------------------------
   1         0          10      0.021021    0.003117
   2         0          10      0.013733    0.002048
   3         0          10      0.011368    0.001723
   4         0          10      0.009448    0.001481
   5         0          10      0.008077    0.001478
   6         0          10      0.008384    0.001791
   7         0          10      0.015271    0.005078
   8         0          10      0.015148    0.005652
   9         0          10      0.011195    0.003905
  10         0          10      0.019124    0.006208
  11         0          10      0.014613    0.004635
  12         0          10      0.014480    0.003669
  13         0          10      0.014502    0.005798
  14         1           9      0.010651    0.004964
  15         1           9      0.009528    0.004602
  16         1           9      0.010078    0.005572
  17         3           7      0.008406    0.004939
  18         3           7      0.008689    0.003890
  19         3           7      0.007009    0.003034
  20         3           7      0.006347    0.002264
  21         3           7      0.006339    0.002874
  22         3           7      0.005558    0.002218
  23         4           6      0.004848    0.001782
  24         4           6      0.003878    0.001491
  25         4           6      0.002404    0.001029
  26         4           6      0.001641    0.000894
  27         5           5      0.001744    0.001140
  28         5           5      0.001776    0.001309
  29         5           5      0.001548    0.001193
  30         5           5      0.001119    0.000885
  31         5           5      0.000715    0.000578
  32         5           5      0.000471    0.000383
  33         5           5      0.000383    0.000323
  34         6           4      0.000335    0.000296
  35         7           3      0.000248    0.000217
  36         7           3      0.000180    0.000158
  37         7           3      0.000114    0.000097
  38         7           3      0.000059    0.000048
  39         7           3      0.000040    0.000032
  40         7           3      0.000038    0.000031
  41         8           2      0.000035    0.000029
  42         8           2      0.000030    0.000025
  43         8           2      0.000023    0.000018
  44         9           1      0.000019    0.000014
  45         9           1      0.000016    0.000012
  46         9           1      0.000013    0.000009
  47         9           1      0.000011    0.000006
  48         9           1      0.000008    0.000004
  49         9           1      0.000006    0.000002
  50         9           1      0.000005    0.000001
  51        10           0      0.000005    0.000001    Roots Converged
 ---------------------------------------------------
   
**************************************************
 RAS-CI total energy for state   1:    -75.673247546453
  Excitation energy (eV) =  0.000000000000
  State symmetry: B2    (C2v      )
  <S^2>      :  0.7500
  Dipole Moment:   -0.0000 X    -0.0000 Y     0.8065 Z
 NATURAL OCCUPATION NUMBERS (higher than 1.0E-05)
            1           2           3           4           5           6
    1   1.9999999   1.9994358   1.9938780   1.9918794   1.0001548   0.0054795
            7           8           9          10          11          12
    1   0.0033725   0.0015861   0.0013265   0.0009530   0.0006792   0.0002654
           13          14          15          16          17          18
    1   0.0002489   0.0002373   0.0001126   0.0001055   0.0000689   0.0000590
           19          20          21          22          23          24
    1   0.0000508   0.0000315   0.0000190   0.0000151   0.0000127   0.0000100
Natural Orbitals stored in FCHK

  Amplitudes : 
  
 | HOLE  | ALPHA | BETA  | PART  |    AMPLITUDE 
--------------------------------------------------
 |       | 11100 | 10100 |       |     9.9109538915927E-01
--------------------------------------------------
*** Contributions RASCI wfn    Active:  98.44
                                 Hole:   0.06
                                 Part:   1.50

      Mulliken population analysis 
 ---------------------------------------------------
   Atom    Charge (a.u.)   Spin (a.u.)  
 ---------------------------------------------------
   1  O    0.190228        1.028753 
   2  H    0.404886       -0.014377 
   3  H    0.404886       -0.014377 
 ---------------------------------------------------
   Sum:    1.000000        1.000000 
 ---------------------------------------------------
 
  
 NATURAL OCCUPATION NUMBERS (higher than 1.0E-05)
            1           2           3           4           5           6
    1   1.9999999   1.9994358   1.9938780   1.9918794   1.0001548   0.0054795
            7           8           9          10          11          12
    1   0.0033725   0.0015861   0.0013265   0.0009530   0.0006792   0.0002654
           13          14          15          16          17          18
    1   0.0002489   0.0002373   0.0001126   0.0001055   0.0000689   0.0000590
           19          20          21          22          23          24
    1   0.0000508   0.0000315   0.0000190   0.0000151   0.0000127   0.0000100
  
*** Unpaired Electrons
 Yamaguchi Nd:         1.06
 Head-Gordon Nu:       1.03
 Head-Gordon Nu_nl:    1.00
  
**************************************************
 RAS-CI total energy for state   2:    -75.599616318906
  Excitation energy (eV) =  2.003607641926
  State symmetry: A1    (C2v      )
  <S^2>      :  0.7500
  Dipole Moment:    0.0000 X    -0.0000 Y     0.6971 Z
  Trans. Moment:   -0.0000 X     0.0984 Y    -0.0000 Z
  Strength   :  0.000475
  Natural transition orbitals ( 1 -> 2 ):
   e-/hole pair  1 alpha:  ampl =  0.029688 (  0.1%)   [5 : 6]
   e-/hole pair  2 alpha:  ampl =  0.023987 (  0.1%)   [4 : 7]
   e-/hole pair  1 beta :  ampl =  0.993257 ( 98.7%)   [5 : 6]
   e-/hole pair  2 beta :  ampl =  0.007430 (  0.0%)   [4 : 7]
   Sum of square amplitudes: 0.99

 NATURAL OCCUPATION NUMBERS (higher than 1.0E-05)
            1           2           3           4           5           6
    1   1.9999999   1.9996609   1.9953183   1.9918626   1.0001732   0.0047926
            7           8           9          10          11          12
    1   0.0021869   0.0019939   0.0013201   0.0007655   0.0005283   0.0003479
           13          14          15          16          17          18
    1   0.0002708   0.0002353   0.0001983   0.0000961   0.0000779   0.0000559
           19          20          21          22
    1   0.0000327   0.0000229   0.0000211   0.0000161
Natural Orbitals stored in FCHK

  Amplitudes : 
  
 | HOLE  | ALPHA | BETA  | PART  |    AMPLITUDE 
--------------------------------------------------
 |       | 11100 | 11000 |       |     9.9561638705654E-01
--------------------------------------------------
*** Contributions RASCI wfn    Active:  99.25
                                 Hole:   0.05
                                 Part:   0.71

      Mulliken population analysis 
 ---------------------------------------------------
   Atom    Charge (a.u.)   Spin (a.u.)  
 ---------------------------------------------------
   1  O    0.136781        0.929936 
   2  H    0.431609        0.035032 
   3  H    0.431609        0.035032 
 ---------------------------------------------------
   Sum:    1.000000        1.000000 
 ---------------------------------------------------
 
  
 NATURAL OCCUPATION NUMBERS (higher than 1.0E-05)
            1           2           3           4           5           6
    1   1.9999999   1.9996609   1.9953183   1.9918626   1.0001732   0.0047926
            7           8           9          10          11          12
    1   0.0021869   0.0019939   0.0013201   0.0007655   0.0005283   0.0003479
           13          14          15          16          17          18
    1   0.0002708   0.0002353   0.0001983   0.0000961   0.0000779   0.0000559
           19          20          21          22
    1   0.0000327   0.0000229   0.0000211   0.0000161
  
*** Unpaired Electrons
 Yamaguchi Nd:         1.05
 Head-Gordon Nu:       1.03
 Head-Gordon Nu_nl:    1.00
  
**************************************************
 RAS-CI total energy for state   3:    -75.436926725244
  Excitation energy (eV) =  6.430616724651
  State symmetry: B1    (C2v      )
  <S^2>      :  0.7500
  Dipole Moment:   -0.0000 X    -0.0000 Y     0.9458 Z
  Trans. Moment:    0.0000 X     0.0000 Y     0.0000 Z
  Strength   :  0.000000
  Natural transition orbitals ( 1 -> 3 ):
   e-/hole pair  1 alpha:  ampl =  0.042702 (  0.2%)   [5 : 6]
   e-/hole pair  2 alpha:  ampl =  0.026103 (  0.1%)   [4 : 7]
   e-/hole pair  1 beta :  ampl =  0.990523 ( 98.1%)   [5 : 6]
   e-/hole pair  2 beta :  ampl =  0.005879 (  0.0%)   [4 : 7]
   Sum of square amplitudes: 0.98

 NATURAL OCCUPATION NUMBERS (higher than 1.0E-05)
            1           2           3           4           5           6
    1   1.9999999   1.9995672   1.9937525   1.9934639   1.0010976   0.0040517
            7           8           9          10          11          12
    1   0.0032666   0.0010963   0.0008990   0.0008952   0.0007073   0.0002508
           13          14          15          16          17          18
    1   0.0002429   0.0002034   0.0001274   0.0000993   0.0000780   0.0000418
           19          20          21          22          23          24
    1   0.0000377   0.0000337   0.0000216   0.0000173   0.0000135   0.0000124
           25
    1   0.0000110
Natural Orbitals stored in FCHK

  Amplitudes : 
  
 | HOLE  | ALPHA | BETA  | PART  |    AMPLITUDE 
--------------------------------------------------
 |       | 11100 | 01100 |       |     9.8677948663963E-01
--------------------------------------------------
*** Contributions RASCI wfn    Active:  97.75
                                 Hole:   0.04
                                 Part:   2.20

      Mulliken population analysis 
 ---------------------------------------------------
   Atom    Charge (a.u.)   Spin (a.u.)  
 ---------------------------------------------------
   1  O    0.008213        0.571928 
   2  H    0.495894        0.214036 
   3  H    0.495894        0.214036 
 ---------------------------------------------------
   Sum:    1.000000        1.000000 
 ---------------------------------------------------
 
  
 NATURAL OCCUPATION NUMBERS (higher than 1.0E-05)
            1           2           3           4           5           6
    1   1.9999999   1.9995672   1.9937525   1.9934639   1.0010976   0.0040517
            7           8           9          10          11          12
    1   0.0032666   0.0010963   0.0008990   0.0008952   0.0007073   0.0002508
           13          14          15          16          17          18
    1   0.0002429   0.0002034   0.0001274   0.0000993   0.0000780   0.0000418
           19          20          21          22          23          24
    1   0.0000377   0.0000337   0.0000216   0.0000173   0.0000135   0.0000124
           25
    1   0.0000110
  
*** Unpaired Electrons
 Yamaguchi Nd:         1.05
 Head-Gordon Nu:       1.02
 Head-Gordon Nu_nl:    1.00
  
**************************************************
 RAS-CI total energy for state   4:    -75.191914559325
  Excitation energy (eV) = 13.097736971775
  State symmetry: B2    (C2v      )
  <S^2>      :  0.7500
  Dipole Moment:   -0.0000 X    -0.0000 Y    -0.3530 Z
  Trans. Moment:   -0.0000 X     0.0000 Y    -0.4430 Z
  Strength   :  0.062985
  Natural transition orbitals ( 1 -> 4 ):
   e-/hole pair  1 alpha:  ampl =  0.362709 ( 13.2%)   [5 : 6]
   e-/hole pair  2 alpha:  ampl =  0.060225 (  0.4%)   [4 : 7]
   e-/hole pair  1 beta :  ampl =  0.789642 ( 62.4%)   [5 : 6]
   e-/hole pair  2 beta :  ampl =  0.035344 (  0.1%)   [4 : 7]
   Sum of square amplitudes: 0.76

 NATURAL OCCUPATION NUMBERS (higher than 1.0E-05)
            1           2           3           4           5           6
    1   1.9999999   1.9991986   1.9843771   1.0743301   0.9970750   0.9188515
            7           8           9          10          11          12
    1   0.0134142   0.0040360   0.0030333   0.0018454   0.0015967   0.0005279
           13          14          15          16          17          18
    1   0.0004047   0.0002139   0.0001652   0.0001640   0.0001303   0.0001193
           19          20          21          22          23          24
    1   0.0000977   0.0000831   0.0000815   0.0000736   0.0000628   0.0000344
           25          26          27
    1   0.0000245   0.0000133   0.0000103
Natural Orbitals stored in FCHK

  Amplitudes : 
  
 | HOLE  | ALPHA | BETA  | PART  |    AMPLITUDE 
--------------------------------------------------
 |       | 11100 | 10010 |       |    -7.5475862764806E-01
 |       | 11010 | 10100 |       |    -3.4834663027671E-01
 |       | 10110 | 11000 |       |     4.0641199737230E-01
 |       | 10100 | 11000 |  11   |    -1.1733541306257E-01
 |       | 11100 | 10000 |  11   |     2.1182372571866E-01
--------------------------------------------------
*** Contributions RASCI wfn    Active:  86.64
                                 Hole:   0.24
                                 Part:  13.12

      Mulliken population analysis 
 ---------------------------------------------------
   Atom    Charge (a.u.)   Spin (a.u.)  
 ---------------------------------------------------
   1  O    0.910093        1.344925 
   2  H    0.044954       -0.172462 
   3  H    0.044954       -0.172462 
 ---------------------------------------------------
   Sum:    1.000000        1.000000 
 ---------------------------------------------------
 
  
 NATURAL OCCUPATION NUMBERS (higher than 1.0E-05)
            1           2           3           4           5           6
    1   1.9999999   1.9991986   1.9843771   1.0743301   0.9970750   0.9188515
            7           8           9          10          11          12
    1   0.0134142   0.0040360   0.0030333   0.0018454   0.0015967   0.0005279
           13          14          15          16          17          18
    1   0.0004047   0.0002139   0.0001652   0.0001640   0.0001303   0.0001193
           19          20          21          22          23          24
    1   0.0000977   0.0000831   0.0000815   0.0000736   0.0000628   0.0000344
           25          26          27
    1   0.0000245   0.0000133   0.0000103
  
*** Unpaired Electrons
 Yamaguchi Nd:         3.07
 Head-Gordon Nu:       2.88
 Head-Gordon Nu_nl:    2.98
  
**************************************************
 RAS-CI total energy for state   5:    -75.173207007660
  Excitation energy (eV) = 13.606795352665
  State symmetry: A1    (C2v      )
  <S^2>      :  0.7500
  Dipole Moment:   -0.0000 X    -0.0000 Y    -0.2258 Z
  Trans. Moment:   -0.0000 X    -0.2148 Y     0.0000 Z
  Strength   :  0.015375
  Natural transition orbitals ( 1 -> 5 ):
   e-/hole pair  1 alpha:  ampl =  0.932189 ( 86.9%)   [5 : 6]
   e-/hole pair  2 alpha:  ampl =  0.011791 (  0.0%)   [4 : 7]
   e-/hole pair  1 beta :  ampl =  0.114059 (  1.3%)   [5 : 6]
   e-/hole pair  2 beta :  ampl =  0.014737 (  0.0%)   [4 : 7]
   Sum of square amplitudes: 0.88

 NATURAL OCCUPATION NUMBERS (higher than 1.0E-05)
            1           2           3           4           5           6
    1   2.0000000   1.9864800   1.9823669   1.8608469   0.9786794   0.1720805
            7           8           9          10          11          12
    1   0.0075705   0.0052267   0.0018624   0.0010405   0.0009493   0.0006265
           13          14          15          16          17          18
    1   0.0005816   0.0003886   0.0003885   0.0001972   0.0001648   0.0001154
           19          20          21          22          23          24
    1   0.0001043   0.0000989   0.0000741   0.0000349   0.0000307   0.0000245
           25          26
    1   0.0000184   0.0000121
Natural Orbitals stored in FCHK

  Amplitudes : 
  
 | HOLE  | ALPHA | BETA  | PART  |    AMPLITUDE 
--------------------------------------------------
 |       | 11010 | 11000 |       |    -2.3300863993003E-01
 |       | 10110 | 10100 |       |     8.5633897141596E-01
 |   2   | 11100 | 11100 |       |     1.1475655543689E-01
 |       | 10100 | 10100 |  11   |    -3.2564144563436E-01
 |       | 10100 | 10100 |  20   |     1.3211847304271E-01
--------------------------------------------------
*** Contributions RASCI wfn    Active:  79.66
                                 Hole:   1.42
                                 Part:  18.92

      Mulliken population analysis 
 ---------------------------------------------------
   Atom    Charge (a.u.)   Spin (a.u.)  
 ---------------------------------------------------
   1  O    0.854533       -0.035197 
   2  H    0.072733        0.517599 
   3  H    0.072733        0.517599 
 ---------------------------------------------------
   Sum:    1.000000        1.000000 
 ---------------------------------------------------
 
  
 NATURAL OCCUPATION NUMBERS (higher than 1.0E-05)
            1           2           3           4           5           6
    1   2.0000000   1.9864800   1.9823669   1.8608469   0.9786794   0.1720805
            7           8           9          10          11          12
    1   0.0075705   0.0052267   0.0018624   0.0010405   0.0009493   0.0006265
           13          14          15          16          17          18
    1   0.0005816   0.0003886   0.0003885   0.0001972   0.0001648   0.0001154
           19          20          21          22          23          24
    1   0.0001043   0.0000989   0.0000741   0.0000349   0.0000307   0.0000245
           25          26
    1   0.0000184   0.0000121
  
*** Unpaired Electrons
 Yamaguchi Nd:         1.67
 Head-Gordon Nu:       1.34
 Head-Gordon Nu_nl:    1.17
  
**************************************************
 RAS-CI total energy for state   6:    -75.127452804854
  Excitation energy (eV) = 14.851830556437
  State symmetry: B2    (C2v      )
  <S^2>      :  0.7500
  Dipole Moment:   -0.0000 X    -0.0000 Y    -0.3083 Z
  Trans. Moment:    0.0000 X     0.0000 Y    -0.2582 Z
  Strength   :  0.024263
  Natural transition orbitals ( 1 -> 6 ):
   e-/hole pair  1 alpha:  ampl =  0.698615 ( 48.8%)   [5 : 6]
   e-/hole pair  2 alpha:  ampl =  0.027859 (  0.1%)   [4 : 7]
   e-/hole pair  1 beta :  ampl =  0.087006 (  0.8%)   [5 : 6]
   e-/hole pair  2 beta :  ampl =  0.054433 (  0.3%)   [4 : 7]
   Sum of square amplitudes: 0.50

 NATURAL OCCUPATION NUMBERS (higher than 1.0E-05)
            1           2           3           4           5           6
    1   2.0000000   1.9981766   1.9768718   1.0256052   0.9979500   0.9660980
            7           8           9          10          11          12
    1   0.0201145   0.0057475   0.0025274   0.0022609   0.0016468   0.0005586
           13          14          15          16          17          18
    1   0.0005177   0.0004836   0.0003069   0.0002267   0.0001542   0.0001361
           19          20          21          22          23          24
    1   0.0001300   0.0001139   0.0001081   0.0000633   0.0000556   0.0000303
           25          26          27          28
    1   0.0000288   0.0000220   0.0000185   0.0000110
Natural Orbitals stored in FCHK

  Amplitudes : 
  
 | HOLE  | ALPHA | BETA  | PART  |    AMPLITUDE 
--------------------------------------------------
 |       | 11010 | 10100 |       |    -6.5081073801517E-01
 |       | 10110 | 11000 |       |    -6.1462504004164E-01
 |       | 10100 | 11000 |  11   |     2.2128660720508E-01
 |       | 11000 | 10100 |  11   |     2.2585775220513E-01
--------------------------------------------------
*** Contributions RASCI wfn    Active:  81.47
                                 Hole:   0.63
                                 Part:  17.90

      Mulliken population analysis 
 ---------------------------------------------------
   Atom    Charge (a.u.)   Spin (a.u.)  
 ---------------------------------------------------
   1  O    0.860366       -0.068566 
   2  H    0.069817        0.534283 
   3  H    0.069817        0.534283 
 ---------------------------------------------------
   Sum:    1.000000        1.000000 
 ---------------------------------------------------
 
  
 NATURAL OCCUPATION NUMBERS (higher than 1.0E-05)
            1           2           3           4           5           6
    1   2.0000000   1.9981766   1.9768718   1.0256052   0.9979500   0.9660980
            7           8           9          10          11          12
    1   0.0201145   0.0057475   0.0025274   0.0022609   0.0016468   0.0005586
           13          14          15          16          17          18
    1   0.0005177   0.0004836   0.0003069   0.0002267   0.0001542   0.0001361
           19          20          21          22          23          24
    1   0.0001300   0.0001139   0.0001081   0.0000633   0.0000556   0.0000303
           25          26          27          28
    1   0.0000288   0.0000220   0.0000185   0.0000110
  
*** Unpaired Electrons
 Yamaguchi Nd:         3.12
 Head-Gordon Nu:       3.00
 Head-Gordon Nu_nl:    3.00
  
**************************************************
 RAS-CI total energy for state   7:    -75.088236985909
  Excitation energy (eV) = 15.918947283124
  State symmetry: B1    (C2v      )
  <S^2>      :  0.7500
  Dipole Moment:    0.0000 X    -0.0000 Y    -0.2316 Z
  Trans. Moment:    0.0000 X     0.0000 Y     0.0000 Z
  Strength   :  0.000000
  Natural transition orbitals ( 1 -> 7 ):
   e-/hole pair  1 alpha:  ampl =  0.932880 ( 87.0%)   [5 : 6]
   e-/hole pair  2 alpha:  ampl =  0.010761 (  0.0%)   [4 : 7]
   e-/hole pair  1 beta :  ampl =  0.042112 (  0.2%)   [5 : 6]
   e-/hole pair  2 beta :  ampl =  0.021881 (  0.0%)   [4 : 7]
   Sum of square amplitudes: 0.87

 NATURAL OCCUPATION NUMBERS (higher than 1.0E-05)
            1           2           3           4           5           6
    1   2.0000000   1.9994708   1.9825407   1.8296687   0.9868933   0.1769482
            7           8           9          10          11          12
    1   0.0077070   0.0074716   0.0027254   0.0020258   0.0012927   0.0010018
           13          14          15          16          17          18
    1   0.0007865   0.0004513   0.0002111   0.0002056   0.0001578   0.0000974
           19          20          21          22          23          24
    1   0.0000906   0.0000720   0.0000540   0.0000234   0.0000212   0.0000155
           25          26
    1   0.0000150   0.0000102
Natural Orbitals stored in FCHK

  Amplitudes : 
  
 | HOLE  | ALPHA | BETA  | PART  |    AMPLITUDE 
--------------------------------------------------
 |       | 11001 | 11000 |       |    -2.3487173941080E-01
 |       | 10101 | 10100 |       |     7.7921833133795E-01
 |       | 11000 | 11000 |  12   |    -1.0062196548575E-01
 |       | 10100 | 10100 |  10   |     2.9816095557590E-01
 |       | 10100 | 10100 |  12   |     3.4943163151374E-01
 |       | 10100 | 10100 |  17   |    -1.8700795259994E-01
 |       | 10100 | 10100 |  21   |     1.4231621076689E-01
--------------------------------------------------
*** Contributions RASCI wfn    Active:  67.02
                                 Hole:   0.14
                                 Part:  32.83

      Mulliken population analysis 
 ---------------------------------------------------
   Atom    Charge (a.u.)   Spin (a.u.)  
 ---------------------------------------------------
   1  O    0.917006       -0.044504 
   2  H    0.041497        0.522252 
   3  H    0.041497        0.522252 
 ---------------------------------------------------
   Sum:    1.000000        1.000000 
 ---------------------------------------------------
 
  
 NATURAL OCCUPATION NUMBERS (higher than 1.0E-05)
            1           2           3           4           5           6
    1   2.0000000   1.9994708   1.9825407   1.8296687   0.9868933   0.1769482
            7           8           9          10          11          12
    1   0.0077070   0.0074716   0.0027254   0.0020258   0.0012927   0.0010018
           13          14          15          16          17          18
    1   0.0007865   0.0004513   0.0002111   0.0002056   0.0001578   0.0000974
           19          20          21          22          23          24
    1   0.0000906   0.0000720   0.0000540   0.0000234   0.0000212   0.0000155
           25          26
    1   0.0000150   0.0000102
  
*** Unpaired Electrons
 Yamaguchi Nd:         1.72
 Head-Gordon Nu:       1.38
 Head-Gordon Nu_nl:    1.20
  
**************************************************
 RAS-CI total energy for state   8:    -75.010553142367
  Excitation energy (eV) = 18.032832217005
  State symmetry: A1    (C2v      )
  <S^2>      :  0.7500
  Dipole Moment:    0.0000 X     0.0000 Y    -0.3128 Z
  Trans. Moment:    0.0000 X     0.0721 Y     0.0000 Z
  Strength   :  0.002295
  Natural transition orbitals ( 1 -> 8 ):
   e-/hole pair  1 alpha:  ampl =  0.226600 (  5.1%)   [5 : 6]
   e-/hole pair  2 alpha:  ampl =  0.021998 (  0.0%)   [4 : 7]
   e-/hole pair  1 beta :  ampl =  0.084793 (  0.7%)   [5 : 6]
   e-/hole pair  2 beta :  ampl =  0.064960 (  0.4%)   [4 : 7]
   Sum of square amplitudes: 0.06

 NATURAL OCCUPATION NUMBERS (higher than 1.0E-05)
            1           2           3           4           5           6
    1   1.9999999   1.9897888   1.8791318   1.8743577   0.9408945   0.2521095
            7           8           9          10          11          12
    1   0.0388007   0.0111034   0.0082606   0.0016641   0.0007498   0.0007399
           13          14          15          16          17          18
    1   0.0006283   0.0004333   0.0003947   0.0001907   0.0001641   0.0001020
           19          20          21          22          23          24
    1   0.0000961   0.0000958   0.0000914   0.0000595   0.0000373   0.0000175
           25          26          27
    1   0.0000155   0.0000154   0.0000143
Natural Orbitals stored in FCHK

  Amplitudes : 
  
 | HOLE  | ALPHA | BETA  | PART  |    AMPLITUDE 
--------------------------------------------------
 |       | 11100 | 01001 |       |    -1.0191383282239E-01
 |       | 11010 | 11000 |       |    -8.3636399399231E-01
 |       | 10110 | 10100 |       |    -1.9625912100164E-01
 |       | 01110 | 01100 |       |     1.8136324211667E-01
 |   2   | 11010 | 11100 |       |    -1.1142478729527E-01
 |       | 11000 | 11000 |  11   |     2.7951486408403E-01
 |       | 11000 | 11000 |  20   |    -1.1041882797207E-01
--------------------------------------------------
*** Contributions RASCI wfn    Active:  79.33
                                 Hole:   2.67
                                 Part:  18.01

      Mulliken population analysis 
 ---------------------------------------------------
   Atom    Charge (a.u.)   Spin (a.u.)  
 ---------------------------------------------------
   1  O    0.843988       -0.099292 
   2  H    0.078006        0.549646 
   3  H    0.078006        0.549646 
 ---------------------------------------------------
   Sum:    1.000000        1.000000 
 ---------------------------------------------------
 
  
 NATURAL OCCUPATION NUMBERS (higher than 1.0E-05)
            1           2           3           4           5           6
    1   1.9999999   1.9897888   1.8791318   1.8743577   0.9408945   0.2521095
            7           8           9          10          11          12
    1   0.0388007   0.0111034   0.0082606   0.0016641   0.0007498   0.0007399
           13          14          15          16          17          18
    1   0.0006283   0.0004333   0.0003947   0.0001907   0.0001641   0.0001020
           19          20          21          22          23          24
    1   0.0000961   0.0000958   0.0000914   0.0000595   0.0000373   0.0000175
           25          26          27
    1   0.0000155   0.0000154   0.0000143
  
*** Unpaired Electrons
 Yamaguchi Nd:         2.05
 Head-Gordon Nu:       1.51
 Head-Gordon Nu_nl:    1.30
  
**************************************************
 RAS-CI total energy for state   9:    -74.981006676031
  Excitation energy (eV) = 18.836832472263
  State symmetry: B1    (C2v      )
  <S^2>      :  0.7500
  Dipole Moment:    0.0000 X     0.0000 Y    -0.1758 Z
  Trans. Moment:    0.0000 X     0.0000 Y     0.0000 Z
  Strength   :  0.000000
  Natural transition orbitals ( 1 -> 9 ):
   e-/hole pair  1 alpha:  ampl =  0.110135 (  1.2%)   [5 : 6]
   e-/hole pair  2 alpha:  ampl =  0.017155 (  0.0%)   [4 : 7]
   e-/hole pair  1 beta :  ampl =  0.054611 (  0.3%)   [5 : 6]
   e-/hole pair  2 beta :  ampl =  0.012484 (  0.0%)   [4 : 7]
   Sum of square amplitudes: 0.02

 NATURAL OCCUPATION NUMBERS (higher than 1.0E-05)
            1           2           3           4           5           6
    1   1.9999999   1.9961624   1.9628425   1.1012389   0.9634418   0.8198725
            7           8           9          10          11          12
    1   0.1366886   0.0073682   0.0044245   0.0034146   0.0008863   0.0007277
           13          14          15          16          17          18
    1   0.0006871   0.0005194   0.0003239   0.0002243   0.0002236   0.0001743
           19          20          21          22          23          24
    1   0.0001605   0.0001365   0.0000920   0.0000856   0.0000647   0.0000535
           25          26          27          28          29          30
    1   0.0000529   0.0000315   0.0000195   0.0000194   0.0000173   0.0000110
Natural Orbitals stored in FCHK

  Amplitudes : 
  
 | HOLE  | ALPHA | BETA  | PART  |    AMPLITUDE 
--------------------------------------------------
 |       | 11100 | 01010 |       |    -6.8024410503602E-01
 |       | 11010 | 01100 |       |    -4.5785312032194E-01
 |       | 11001 | 11000 |       |    -2.4439015555267E-01
 |       | 01110 | 11000 |       |     2.2239098471400E-01
 |       | 11000 | 11000 |  10   |    -1.2671950331772E-01
 |       | 11000 | 11000 |  12   |    -1.2050541568020E-01
 |       | 11000 | 01100 |  11   |     1.7859783183754E-01
 |       | 11100 | 01000 |  11   |     2.3230944608681E-01
--------------------------------------------------
*** Contributions RASCI wfn    Active:  80.42
                                 Hole:   0.44
                                 Part:  19.14

      Mulliken population analysis 
 ---------------------------------------------------
   Atom    Charge (a.u.)   Spin (a.u.)  
 ---------------------------------------------------
   1  O    0.768980        0.893445 
   2  H    0.115510        0.053278 
   3  H    0.115510        0.053278 
 ---------------------------------------------------
   Sum:    1.000000        1.000000 
 ---------------------------------------------------
 
  
 NATURAL OCCUPATION NUMBERS (higher than 1.0E-05)
            1           2           3           4           5           6
    1   1.9999999   1.9961624   1.9628425   1.1012389   0.9634418   0.8198725
            7           8           9          10          11          12
    1   0.1366886   0.0073682   0.0044245   0.0034146   0.0008863   0.0007277
           13          14          15          16          17          18
    1   0.0006871   0.0005194   0.0003239   0.0002243   0.0002236   0.0001743
           19          20          21          22          23          24
    1   0.0001605   0.0001365   0.0000920   0.0000856   0.0000647   0.0000535
           25          26          27          28          29          30
    1   0.0000529   0.0000315   0.0000195   0.0000194   0.0000173   0.0000110
  
*** Unpaired Electrons
 Yamaguchi Nd:         3.33
 Head-Gordon Nu:       2.88
 Head-Gordon Nu_nl:    2.98
  
**************************************************
 RAS-CI total energy for state  10:    -74.976091925528
  Excitation energy (eV) = 18.970569637794
  State symmetry: B2    (C2v      )
  <S^2>      :  0.7500
  Dipole Moment:   -0.0000 X     0.0000 Y     0.1160 Z
  Trans. Moment:   -0.0000 X    -0.0000 Y    -0.1727 Z
  Strength   :  0.013858
  Natural transition orbitals ( 1 -> 10 ):
   e-/hole pair  1 alpha:  ampl =  0.283187 (  8.0%)   [5 : 6]
   e-/hole pair  2 alpha:  ampl =  0.142805 (  2.0%)   [4 : 7]
   e-/hole pair  1 beta :  ampl =  0.575489 ( 33.1%)   [5 : 6]
   e-/hole pair  2 beta :  ampl =  0.074259 (  0.6%)   [4 : 7]
   Sum of square amplitudes: 0.45

 NATURAL OCCUPATION NUMBERS (higher than 1.0E-05)
            1           2           3           4           5           6
    1   1.9999999   1.9965859   1.9451994   1.1356483   0.9189553   0.8517271
            7           8           9          10          11          12
    1   0.0850610   0.0433682   0.0096448   0.0061789   0.0029525   0.0009328
           13          14          15          16          17          18
    1   0.0008990   0.0007264   0.0005530   0.0003256   0.0002972   0.0002383
           19          20          21          22          23          24
    1   0.0002056   0.0001195   0.0000788   0.0000714   0.0000629   0.0000429
           25          26          27
    1   0.0000295   0.0000214   0.0000150
Natural Orbitals stored in FCHK

  Amplitudes : 
  
 | HOLE  | ALPHA | BETA  | PART  |    AMPLITUDE 
--------------------------------------------------
 |       | 11100 | 00101 |       |     4.8101924583336E-01
 |       | 10110 | 11000 |       |    -1.0616272576224E-01
 |       | 10101 | 01100 |       |     5.5503523784573E-01
 |       | 10100 | 10100 |   9   |     2.3841297625400E-01
 |       | 10100 | 10100 |  19   |     1.1531770339262E-01
 |       | 10100 | 01100 |  10   |     2.5104651215259E-01
 |       | 10100 | 01100 |  12   |     2.7957939409053E-01
 |       | 10100 | 01100 |  17   |    -1.6621857932011E-01
 |       | 10100 | 01100 |  21   |     1.1461724041348E-01
 |       | 11100 | 00100 |  10   |     1.8991941875222E-01
 |       | 11100 | 00100 |  12   |     2.1187896288565E-01
 |       | 11100 | 00100 |  17   |    -1.0881139234134E-01
--------------------------------------------------
*** Contributions RASCI wfn    Active:  56.70
                                 Hole:   0.48
                                 Part:  42.81

      Mulliken population analysis 
 ---------------------------------------------------
   Atom    Charge (a.u.)   Spin (a.u.)  
 ---------------------------------------------------
   1  O    0.647021        0.511198 
   2  H    0.176489        0.244401 
   3  H    0.176489        0.244401 
 ---------------------------------------------------
   Sum:    1.000000        1.000000 
 ---------------------------------------------------
 
  
 NATURAL OCCUPATION NUMBERS (higher than 1.0E-05)
            1           2           3           4           5           6
    1   1.9999999   1.9965859   1.9451994   1.1356483   0.9189553   0.8517271
            7           8           9          10          11          12
    1   0.0850610   0.0433682   0.0096448   0.0061789   0.0029525   0.0009328
           13          14          15          16          17          18
    1   0.0008990   0.0007264   0.0005530   0.0003256   0.0002972   0.0002383
           19          20          21          22          23          24
    1   0.0002056   0.0001195   0.0000788   0.0000714   0.0000629   0.0000429
           25          26          27
    1   0.0000295   0.0000214   0.0000150
  
*** Unpaired Electrons
 Yamaguchi Nd:         3.36
 Head-Gordon Nu:       2.85
 Head-Gordon Nu_nl:    2.95
  
--------------------------------------------------
 Interstate Transition Properties
--------------------------------------------------
State A: Root  1
State B: Root  2
  
Angular momentum components
< B | Lx | A > =    -0.967213232i
< B | Ly | A > =     0.000000000i
< B | Lz | A > =    -0.000000000i
  
Norm of one-particle transition density matrix
||gamma^AB||_total       =  0.994722
||gamma^AB||_symmetrized =  0.705389
||gamma^AB||_anti-symm   =  0.701355
  
Spin-orbit couplings
 Using HF (reference) density for the 2-elec mean-field SOC contribution
KET: S',Sz' (Root   1) =  0.500 0.500
BRA: S ,Sz  (Root   2) =  0.500 0.500
Clebsh-Gordan coefficient: < 0.500, 0.500; 1.000, 0.000| 0.500, 0.500> =  0.577
 Computing 1e-SO integrals
 1e Reduced matrix elements (cm-1)
<S|| Hso(L-) ||S'> =    -0.0000000000  -127.2262705703
<S|| Hso(L0) ||S'> =     0.0000000000     0.0000000000
<S|| Hso(L+) ||S'> =    -0.0000000000   127.2262705703
 1-elec SOC matrix (cm-1): < B(S,Sz) | Hso(1e) | A(S',Sz') >
                     |Sz'=-0.50>              |Sz'= 0.50>
 <Sz=-0.50|    0.000000   -0.000000i    -0.000000  103.879815i
 <Sz= 0.50|    0.000000  103.879815i     0.000000    0.000000i
1-elec SOCC =   146.908243123 cm-1
 Computing 2e-SOMF integrals
 Averagin spin alpha/beta reference densities
 2e-SOMF Reduced matrix elements (cm-1)
<S|| Hso(L-) ||S'> =     0.0000000000    46.0492970092
<S|| Hso(L0) ||S'> =     0.0000000000    -0.0000000000
<S|| Hso(L+) ||S'> =     0.0000000000   -46.0492970092
 2-elec mean-field SOC matrix (cm-1): < B(S,Sz) | Hso(2e-mf) | A(S',Sz') >
                     |Sz'=-0.50>              |Sz'= 0.50>
 <Sz=-0.50|    0.000000    0.000000i     0.000000  -37.599094i
 <Sz= 0.50|   -0.000000  -37.599094i     0.000000   -0.000000i
 Total mean-field SOC matrix (cm-1): < B(S,Sz) | Hsomf | A(S',Sz') >
                     |Sz'=-0.50>              |Sz'= 0.50>
 <Sz=-0.50|    0.000000   -0.000000i    -0.000000   66.280721i
 <Sz= 0.50|    0.000000   66.280721i     0.000000    0.000000i
Mean-Field SOCC =    93.735095075 cm-1
   
**************************************************
State A: Root  1
State B: Root  3
  
Angular momentum components
< B | Lx | A > =     0.000000000i
< B | Ly | A > =    -0.000000000i
< B | Lz | A > =     0.977831304i
  
Norm of one-particle transition density matrix
||gamma^AB||_total       =  0.992030
||gamma^AB||_symmetrized =  0.703318
||gamma^AB||_anti-symm   =  0.699619
  
Spin-orbit couplings
 Using HF (reference) density for the 2-elec mean-field SOC contribution
KET: S',Sz' (Root   1) =  0.500 0.500
BRA: S ,Sz  (Root   3) =  0.500 0.500
Clebsh-Gordan coefficient: < 0.500, 0.500; 1.000, 0.000| 0.500, 0.500> =  0.577
 Reading 1e-SO integrals
 1e Reduced matrix elements (cm-1)
<S|| Hso(L-) ||S'> =    -0.0000000000     0.0000000000
<S|| Hso(L0) ||S'> =     0.0000000000  -158.2233141815
<S|| Hso(L+) ||S'> =    -0.0000000000    -0.0000000000
 1-elec SOC matrix (cm-1): < B(S,Sz) | Hso(1e) | A(S',Sz') >
                     |Sz'=-0.50>              |Sz'= 0.50>
 <Sz=-0.50|    0.000000   91.350273i    -0.000000   -0.000000i
 <Sz= 0.50|    0.000000   -0.000000i     0.000000  -91.350273i
1-elec SOCC =   129.188795052 cm-1
 Reading 2e-SOMF integrals
 2e-SOMF Reduced matrix elements (cm-1)
<S|| Hso(L-) ||S'> =     0.0000000000    -0.0000000000
<S|| Hso(L0) ||S'> =     0.0000000000    55.2742008198
<S|| Hso(L+) ||S'> =     0.0000000000     0.0000000000
 2-elec mean-field SOC matrix (cm-1): < B(S,Sz) | Hso(2e-mf) | A(S',Sz') >
                     |Sz'=-0.50>              |Sz'= 0.50>
 <Sz=-0.50|    0.000000  -31.912575i     0.000000    0.000000i
 <Sz= 0.50|   -0.000000    0.000000i     0.000000   31.912575i
 Total mean-field SOC matrix (cm-1): < B(S,Sz) | Hsomf | A(S',Sz') >
                     |Sz'=-0.50>              |Sz'= 0.50>
 <Sz=-0.50|    0.000000   59.437698i    -0.000000   -0.000000i
 <Sz= 0.50|    0.000000   -0.000000i     0.000000  -59.437698i
Mean-Field SOCC =    84.057599069 cm-1
   
**************************************************
State A: Root  1
State B: Root  4
  
Angular momentum components
< B | Lx | A > =    -0.000000000i
< B | Ly | A > =    -0.000000000i
< B | Lz | A > =     0.000000000i
  
Norm of one-particle transition density matrix
||gamma^AB||_total       =  0.872954
||gamma^AB||_symmetrized =  0.613473
||gamma^AB||_anti-symm   =  0.621047
  
Spin-orbit couplings
 Using HF (reference) density for the 2-elec mean-field SOC contribution
KET: S',Sz' (Root   1) =  0.500 0.500
BRA: S ,Sz  (Root   4) =  0.500 0.500
Clebsh-Gordan coefficient: < 0.500, 0.500; 1.000, 0.000| 0.500, 0.500> =  0.577
 Reading 1e-SO integrals
 1e Reduced matrix elements (cm-1)
<S|| Hso(L-) ||S'> =    -0.0000000000    -0.0000000000
<S|| Hso(L0) ||S'> =     0.0000000000     0.0000000000
<S|| Hso(L+) ||S'> =    -0.0000000000     0.0000000000
 1-elec SOC matrix (cm-1): < B(S,Sz) | Hso(1e) | A(S',Sz') >
                     |Sz'=-0.50>              |Sz'= 0.50>
 <Sz=-0.50|    0.000000   -0.000000i    -0.000000    0.000000i
 <Sz= 0.50|    0.000000    0.000000i     0.000000    0.000000i
1-elec SOCC =     0.000000000 cm-1
 Reading 2e-SOMF integrals
 2e-SOMF Reduced matrix elements (cm-1)
<S|| Hso(L-) ||S'> =     0.0000000000     0.0000000000
<S|| Hso(L0) ||S'> =     0.0000000000    -0.0000000000
<S|| Hso(L+) ||S'> =     0.0000000000    -0.0000000000
 2-elec mean-field SOC matrix (cm-1): < B(S,Sz) | Hso(2e-mf) | A(S',Sz') >
                     |Sz'=-0.50>              |Sz'= 0.50>
 <Sz=-0.50|    0.000000    0.000000i     0.000000   -0.000000i
 <Sz= 0.50|   -0.000000   -0.000000i     0.000000   -0.000000i
 Total mean-field SOC matrix (cm-1): < B(S,Sz) | Hsomf | A(S',Sz') >
                     |Sz'=-0.50>              |Sz'= 0.50>
 <Sz=-0.50|    0.000000   -0.000000i    -0.000000    0.000000i
 <Sz= 0.50|    0.000000    0.000000i     0.000000    0.000000i
Mean-Field SOCC =     0.000000000 cm-1
   
**************************************************
State A: Root  1
State B: Root  5
  
Angular momentum components
< B | Lx | A > =    -0.126150196i
< B | Ly | A > =    -0.000000000i
< B | Lz | A > =     0.000000000i
  
Norm of one-particle transition density matrix
||gamma^AB||_total       =  0.939538
||gamma^AB||_symmetrized =  0.666734
||gamma^AB||_anti-symm   =  0.661965
  
Spin-orbit couplings
 Using HF (reference) density for the 2-elec mean-field SOC contribution
KET: S',Sz' (Root   1) =  0.500 0.500
BRA: S ,Sz  (Root   5) =  0.500 0.500
Clebsh-Gordan coefficient: < 0.500, 0.500; 1.000, 0.000| 0.500, 0.500> =  0.577
 Reading 1e-SO integrals
 1e Reduced matrix elements (cm-1)
<S|| Hso(L-) ||S'> =    -0.0000000000    52.0963064033
<S|| Hso(L0) ||S'> =     0.0000000000     0.0000000000
<S|| Hso(L+) ||S'> =    -0.0000000000   -52.0963064033
 1-elec SOC matrix (cm-1): < B(S,Sz) | Hso(1e) | A(S',Sz') >
                     |Sz'=-0.50>              |Sz'= 0.50>
 <Sz=-0.50|    0.000000   -0.000000i    -0.000000  -42.536456i
 <Sz= 0.50|    0.000000  -42.536456i     0.000000    0.000000i
1-elec SOCC =    60.155633051 cm-1
 Reading 2e-SOMF integrals
 2e-SOMF Reduced matrix elements (cm-1)
<S|| Hso(L-) ||S'> =     0.0000000000   -17.3049614418
<S|| Hso(L0) ||S'> =     0.0000000000    -0.0000000000
<S|| Hso(L+) ||S'> =     0.0000000000    17.3049614418
 2-elec mean-field SOC matrix (cm-1): < B(S,Sz) | Hso(2e-mf) | A(S',Sz') >
                     |Sz'=-0.50>              |Sz'= 0.50>
 <Sz=-0.50|    0.000000    0.000000i     0.000000   14.129442i
 <Sz= 0.50|   -0.000000   14.129442i     0.000000   -0.000000i
 Total mean-field SOC matrix (cm-1): < B(S,Sz) | Hsomf | A(S',Sz') >
                     |Sz'=-0.50>              |Sz'= 0.50>
 <Sz=-0.50|    0.000000   -0.000000i    -0.000000  -28.407014i
 <Sz= 0.50|    0.000000  -28.407014i     0.000000    0.000000i
Mean-Field SOCC =    40.173584758 cm-1
   
**************************************************
State A: Root  1
State B: Root  6
  
Angular momentum components
< B | Lx | A > =    -0.000000000i
< B | Ly | A > =     0.000000000i
< B | Lz | A > =    -0.000000000i
  
Norm of one-particle transition density matrix
||gamma^AB||_total       =  0.707287
||gamma^AB||_symmetrized =  0.502340
||gamma^AB||_anti-symm   =  0.497906
  
Spin-orbit couplings
 Using HF (reference) density for the 2-elec mean-field SOC contribution
KET: S',Sz' (Root   1) =  0.500 0.500
BRA: S ,Sz  (Root   6) =  0.500 0.500
Clebsh-Gordan coefficient: < 0.500, 0.500; 1.000, 0.000| 0.500, 0.500> =  0.577
 Reading 1e-SO integrals
 1e Reduced matrix elements (cm-1)
<S|| Hso(L-) ||S'> =     0.0000000001    -0.0000000000
<S|| Hso(L0) ||S'> =     0.0000000000     0.0000000000
<S|| Hso(L+) ||S'> =     0.0000000001     0.0000000000
 1-elec SOC matrix (cm-1): < B(S,Sz) | Hso(1e) | A(S',Sz') >
                     |Sz'=-0.50>              |Sz'= 0.50>
 <Sz=-0.50|    0.000000   -0.000000i     0.000000    0.000000i
 <Sz= 0.50|   -0.000000    0.000000i     0.000000    0.000000i
1-elec SOCC =     0.000000000 cm-1
 Reading 2e-SOMF integrals
 2e-SOMF Reduced matrix elements (cm-1)
[...]
   131   -9.173347484947e-14
   132   -6.397276934186e-02
   133    2.195436236069e-13
Sym=X
Ene= 0.321281
Spin=Alpha
Occup=0
     1   -5.075279309976e-16
     2    2.697996296995e-13
     3   -1.135158005105e-15
     4    4.564289588268e-15
     5   -1.897853839576e-14
     6    2.400027393576e-12
     7   -1.340243545667e-13
     8   -7.269647880100e-13
     9   -4.712545478094e-13
    10    4.502699154881e-12
    11   -6.737268308593e-04
    12    3.921431273622e-18
    13    2.783817187156e-16
    14   -1.645724990961e-02
    15    2.494271061693e-16
    16    4.270949085324e-15
    17   -4.696068471460e+00
    18    8.320693034513e-14
    19    1.062161141202e-12
    20   -4.513558958973e+00
    21    1.194505437278e-13
    22   -1.638558692713e-13
    23    3.347787965373e-01
    24   -6.700277167091e-15
    25   -5.622061442293e-14
    26    2.641145902114e-01
    27    3.251490677582e-14
    28   -8.732271284956e-13
    29    9.074995843480e-01
    30    4.116857916981e-15
    31   -5.945041317378e-13
    32    1.809502658616e+00
    33   -2.110556512169e-14
    34   -5.814129992213e-13
    35   -2.636548947276e-13
    36    1.673683701485e+00
    37   -1.256674489086e-14
    38   -1.568862273332e-13
    39    1.403538202313e-14
    40   -2.750438586251e-13
    41    1.485662250128e+00
    42   -1.740212362452e-14
    43   -1.976957049959e-15
    44    1.336044109301e-14
    45   -2.865281343515e-14
    46    9.677077933896e-02
    47   -2.426060711138e-15
    48    4.097227246422e-14
    49    1.105747498646e-15
    50   -1.584488705281e-13
    51    6.905223312694e-01
    52   -1.136513937277e-14
    53    1.170111986530e-13
    54    7.060618465365e-15
    55   -5.279654005880e-15
    56   -1.615393416015e-01
    57   -6.415679098723e-16
    58    1.165599281004e-13
    59   -2.382832535636e-15
    60   -1.338279726944e-01
    61    2.590620601126e-15
    62    2.924253349554e-14
    63   -1.547324944906e-01
    64    3.953633411090e-17
    65    6.771588562295e-14
    66   -2.417196721410e-15
    67   -1.223377186369e-01
    68    3.774911931767e-15
    69    3.132902168819e-14
    70   -5.893361897793e-02
    71    2.818314665974e-16
    72    3.907367761872e-15
    73   -9.652170078570e-16
    74   -4.410345294022e-02
    75    2.314361655199e-15
    76   -7.618412005860e-04
    77   -1.141375059912e-02
    78   -4.840964062084e+00
    79    1.635807174585e-01
    80    3.397189324752e+00
    81   -4.309023050348e-01
    82    2.815757770813e+00
    83   -2.240122893604e+00
    84   -5.349669565893e-14
    85   -1.168753223527e+00
    86    8.160846136773e-02
    87   -7.676674642912e-15
    88    9.871388991026e-02
    89    1.002129274968e-02
    90   -1.182275847963e-15
    91    2.115236589465e-02
    92   -7.049424322016e-01
    93   -3.715725568134e-14
    94   -2.724919312122e-01
    95    5.089684025926e-02
    96   -2.547331324502e-01
    97    2.724526958199e-15
    98   -1.254770212817e-01
    99   -7.286006015262e-15
   100    1.349244079683e-02
   101   -2.701502128552e-03
   102    1.033428628520e-15
   103    3.100415727415e-02
   104   -3.569025944423e-15
   105    7.618412005867e-04
   106    1.141375059920e-02
   107    4.840964062080e+00
   108   -1.635807174580e-01
   109   -3.397189324756e+00
   110    4.309023050364e-01
   111   -2.815757770812e+00
   112   -2.240122893604e+00
   113   -8.827109153015e-14
   114    1.168753223527e+00
   115    8.160846136799e-02
   116   -7.150466161398e-15
   117   -9.871388991044e-02
   118    1.002129274966e-02
   119   -6.114995513412e-16
   120   -2.115236589462e-02
   121   -7.049424322011e-01
   122   -5.244728130719e-14
   123    2.724919312113e-01
   124   -5.089684025934e-02
   125   -2.547331324500e-01
   126   -1.832098920278e-14
   127    1.254770212819e-01
   128    1.712765710170e-14
   129   -1.349244079686e-02
   130   -2.701502128245e-03
   131   -6.006683735077e-15
   132   -3.100415727426e-02
   133    7.132548321756e-15
Sym=X
Ene= 0.399396
Spin=Alpha
Occup=0
     1    2.165714970286e-16
     2   -1.204253660981e-13
     3    4.908211671544e-16
     4   -2.544158596440e-15
     5    2.305417702654e-15
     6   -3.556389971478e-13
     7   -4.510116180668e-14
     8    1.542022378843e-13
     9   -6.787362896873e-14
    10    1.008915829936e-12
    11    1.486274162577e-04
    12   -2.460133367931e-18
    13    1.536030359520e-16
    14    6.769676945400e-03
    15   -9.377244134217e-19
    16    1.105735202032e-15
    17    2.395529745777e+00
    18   -1.241549442158e-14
    19    6.418120686826e-13
    20    3.093055209423e+00
    21   -9.323126155434e-15
    22    3.149573548891e-15
    23   -1.818157883144e-01
    24   -3.193165538495e-16
    25    1.498410876228e-14
    26    7.955926803544e-01
    27   -8.015250735067e-16
    28   -3.856811033453e-13
    29    6.759817826892e-02
    30    1.552149534717e-16
    31   -2.061451753292e-13
    32   -6.004079925104e-01
    33   -2.267794271950e-16
    34   -1.018057343189e-13
    35   -5.641808529353e-14
    36   -2.425088495614e-01
    37   -6.105315394063e-15
    38   -1.300678493242e-13
    39    5.728995558428e-15
    40   -5.594016159186e-14
    41   -2.365503340196e-01
    42   -5.585039875074e-15
    43   -4.609929209857e-14
    44    5.604618229165e-15
    45   -4.089006069249e-15
    46   -2.485619969306e-02
    47   -1.049723065789e-15
    48    1.852099306182e-14
    49    1.727913422942e-15
    50   -2.846163925700e-14
    51   -1.272359254221e-01
    52   -3.647795878736e-15
    53    3.926125767207e-14
    54    4.668836810074e-15
    55   -1.829197669160e-14
    56   -1.432047471995e-02
    57   -6.495785747261e-16
    58    6.262716124117e-14
    59   -1.391517809800e-15
    60    7.045096393575e-02
    61   -1.892948424486e-16
    62   -1.217253896563e-15
    63   -3.398981030072e-02
    64   -2.786520587631e-16
    65    3.281134677271e-14
    66   -1.046382983310e-15
    67    8.774221375812e-02
    68   -9.455481334522e-16
    69    1.003669367073e-14
    70   -2.689427015490e-02
    71    7.898139746606e-18
    72   -1.576863681251e-15
    73   -3.232998988919e-16
    74    4.840581968239e-02
    75   -9.655510134222e-16
    76    2.011473932702e-04
    77    5.919778073747e-03
    78    8.451955260122e-01
    79   -1.739234864201e-02
    80   -9.339495069468e-01
    81    1.599093375692e-01
    82   -5.788501782594e-01
    83   -1.434154172791e+00
    84    6.550872667283e-15
    85    1.299379573604e+00
    86   -1.814772145240e-01
    87    3.157961395896e-16
    88    1.467706839453e-01
    89   -1.731174504346e-02
    90   -1.082877312034e-16
    91    2.858919835650e-02
    92   -1.010618141764e+00
    93    3.392397802149e-15
    94    8.262587148166e-01
    95    2.178892892504e-01
    96   -2.699095522794e-03
    97   -4.146178687747e-15
    98   -3.065630225116e-01
    99   -3.453175009034e-15
   100    9.469311217288e-02
   101   -1.302940181288e-02
   102   -1.851431820853e-15
   103   -1.549609979751e-01
   104   -1.755301212240e-15
   105   -2.011473932698e-04
   106   -5.919778073714e-03
   107   -8.451955260125e-01
   108    1.739234864219e-02
   109    9.339495069452e-01
   110   -1.599093375685e-01
   111    5.788501782595e-01
   112   -1.434154172792e+00
   113    9.345371416123e-15
   114   -1.299379573603e+00
   115   -1.814772145239e-01
   116    4.451397459496e-16
   117   -1.467706839454e-01
   118   -1.731174504347e-02
   119   -1.705793590603e-17
   120   -2.858919835649e-02
   121   -1.010618141764e+00
   122    4.053766186207e-15
   123   -8.262587148168e-01
   124   -2.178892892504e-01
   125   -2.699095522888e-03
   126    1.368638589919e-14
   127    3.065630225117e-01
   128   -4.287438813355e-15
   129   -9.469311217287e-02
   130   -1.302940181279e-02
   131    1.040498327016e-14
   132    1.549609979750e-01
   133   -2.808539024415e-15
Sym=X
Ene= 0.520340
Spin=Alpha
Occup=0
     1   -1.191357412726e-03
     2    6.736294203700e-01
     3   -2.704075037083e-03
     4    1.228538707618e-02
     5   -3.154370316043e-02
     6    4.548213306009e+00
     7   -6.912071159718e-02
     8   -1.384942957963e+00
     9   -4.618221079996e-01
    10    3.489498119439e+00
    11    1.504170787481e-15
    12   -4.156271674000e-17
    13    2.788493168253e-05
    14    1.096437667257e-14
    15   -2.031181115496e-16
    16    6.755888226363e-04
    17    9.783903711643e-12
    18    5.810217172541e-14
    19   -2.271082419276e-01
    20    7.104487281625e-12
    21    2.946742946815e-13
    22   -2.440114284752e-01
    23    2.055588728583e-13
    24   -5.894310352239e-15
    25   -1.957914670544e-02
    26   -7.160838324260e-13
    27    1.960076392487e-13
    28   -2.053915770655e-01
    29   -4.097096793729e-13
    30    9.256193915995e-14
    31   -1.689063849507e-01
    32    6.690602637616e-14
    33    3.587705834819e-14
    34   -1.796569838797e-01
    35   -1.212664040342e-01
    36   -2.926817238243e-12
    37   -7.711678471971e-13
    38   -3.791015423101e-01
    39   -7.059549670238e-13
    40   -1.445377592749e-01
    41   -2.031208979432e-12
    42   -8.996893110288e-13
    43   -4.288042831952e-01
    44   -7.578943155582e-13
    45   -2.835698116569e-02
    46    5.379300677717e-14
    47   -1.666804009304e-13
    48   -6.147354468300e-02
    49   -1.029483469125e-13
    50   -1.056138008054e-01
    51   -4.913944755735e-13
    52   -6.426786130951e-13
    53   -2.863334471011e-01
    54   -4.761029038612e-13
    55   -3.318818179148e-02
    56    3.732326670295e-13
    57    5.039270544154e-14
    58    3.976686068507e-02
    59    9.147636850998e-14
    60    1.775597380044e-13
    61   -1.032784112697e-13
    62   -6.510638781433e-02
    63    3.257875053525e-13
    64    7.170082569860e-14
    65    9.332755385214e-02
    66    1.231338074279e-13
    67    5.556507170681e-14
    68   -1.333756079104e-13
    69   -4.278823881482e-02
    70    1.067703829251e-13
    71    4.068868771164e-14
    72    6.222278972183e-02
    73    7.016547048849e-14
    74   -5.016383271492e-14
    75   -7.431708753607e-14
    76    5.744136753688e-05
    77    1.145207335329e-02
    78   -2.527143954492e+00
    79    8.218110495123e-02
    80   -6.729207514214e-01
    81    2.582437892493e-01
    82    3.631180054480e-01
    83   -9.815577080567e-01
    84   -1.277126027659e-12
    85   -9.435167229520e-01
    86   -1.987286922566e-01
    87   -7.700298614265e-14
    88   -1.755354656971e-01
    89   -4.736070685076e-02
    90   -3.673153292861e-15
    91   -3.808495088855e-02
    92   -7.609412876257e-01
    93   -7.225127685630e-13
    94   -7.135941596805e-01
    95   -1.254936056045e-01
    96    5.842605328849e-02
    97    5.911111718515e-13
    98   -4.409021212986e-02
    99   -5.802080201590e-13
   100   -6.593052709471e-02
   101    6.087532902629e-02
   102    3.084970882843e-13
   103   -6.247725210228e-03
   104   -3.194104187097e-13
   105    5.744136753437e-05
   106    1.145207335320e-02
   107   -2.527143954520e+00
   108    8.218110495125e-02
   109   -6.729207514145e-01
   110    2.582437892469e-01
   111    3.631180054541e-01
   112    9.815577080695e-01
   113    6.624555987414e-13
   114   -9.435167229595e-01
   115    1.987286922561e-01
   116    2.150102296581e-14
   117   -1.755354656969e-01
   118    4.736070685068e-02
   119    8.215907399210e-15
   120   -3.808495088856e-02
   121    7.609412876298e-01
   122    2.964312866666e-13
   123   -7.135941596830e-01
   124   -1.254936056036e-01
   125   -5.842605328627e-02
   126    7.820741251201e-13
   127   -4.409021213203e-02
   128   -1.365608142613e-13
   129   -6.593052709436e-02
   130   -6.087532902606e-02
   131    3.367744393980e-13
   132   -6.247725210689e-03
   133   -2.594289801296e-14
Sym=X
Ene= 0.598607
Spin=Alpha
Occup=0
     1    3.038186014633e-15
     2   -1.717119249869e-12
     3    6.866614833441e-15
     4   -3.113521966199e-14
     5    8.095292336925e-14
     6   -1.198941903104e-11
     7    2.242049978695e-13
     8    3.793237631179e-12
     9    1.356649270614e-12
    10   -1.018549865267e-11
    11    5.573628590055e-05
    12   -7.185138057450e-18
    13    4.789484157788e-17
    14    3.305841528934e-04
    15   -2.524204776573e-16
    16    6.027307533461e-16
    17    1.312629046901e+00
    18   -1.295792059366e-13
    19    1.989683384352e-12
    20    1.417976749841e+00
    21   -1.693617031275e-13
    22    2.769675469995e-12
    23    2.217130846901e-02
    24    5.806880392369e-15
    25    7.899458787042e-15
    26    5.020689112238e-01
    27   -5.142755271295e-14
    28    1.142112089754e-12
    29    3.090471675019e-01
    30   -1.406497960793e-14
    31    6.001804749036e-13
    32    2.489927950275e-01
    33    1.330475454343e-14
    34    3.587216091920e-13
    35    6.175889828061e-13
    36    6.554034852816e-01
    37    3.878021765119e-14
    38   -1.050850591905e-12
    39    2.542099428928e-14
    40    6.353867772166e-13
    41    7.799635641470e-01
    42    4.582374777822e-14
    43   -1.076853265155e-12
    44    3.112283774431e-14
    45    5.996371484109e-14
    46    1.179978242927e-01
    47    9.714809160968e-15
    48   -1.374543085212e-13
    49    6.919765000781e-15
    50    3.564677629026e-13
    51    5.378369511673e-01
    52    3.394188019197e-14
    53   -6.444663615735e-13
    54    2.407598275550e-14
    55   -1.556809108235e-13
    56   -3.317492922595e-02
    57    1.091566445405e-14
    58    1.675529135268e-13
    59    8.485256812258e-16
    60   -3.316893703082e-02
    61   -9.701287450978e-15
    62   -1.607214848307e-13
    63   -6.507597665151e-02
    64    1.340768204953e-14
    65    1.527544849181e-13
    66   -1.317740823215e-16
    67   -7.723953093400e-02
    68   -1.262051766809e-14
    69   -7.325143964348e-14
    70   -4.248891867324e-02
    71    7.633920180085e-15
    72    6.379444234252e-14
    73   -5.834529341601e-16
    74   -5.389978796124e-02
    75   -6.981797959942e-15
    76   -5.932224337261e-05
    77   -1.934108941681e-02
    78    4.028198423868e+00
    79   -1.548249524135e-01
    80    6.938297407894e-01
    81   -3.936661562471e-01
    82   -8.037632482755e-01
    83    1.781327734819e+00
    84    1.638196581583e-13
    85    1.328133565855e+00
    86    2.500392359167e-01
    87    1.810347837002e-14
    88    1.765609048105e-01
    89    4.956229624072e-02
    90    2.565440318340e-15
    91    3.421073893606e-02
    92    1.201137626166e+00
    93    1.084834839192e-13
    94    8.901430805401e-01
    95   -9.672958904622e-02
    96    1.790756352869e-01
    97    3.914070215234e-14
    98    1.459471947898e-02
    99   -1.979005506318e-14
   100   -5.255793444380e-02
   101    4.521502926294e-02
   102    1.784723862656e-14
   103   -3.446926695317e-02
   104   -1.043819163416e-14
   105    5.932224337322e-05
   106    1.934108941680e-02
   107   -4.028198423850e+00
   108    1.548249524133e-01
   109   -6.938297407891e-01
   110    3.936661562471e-01
   111    8.037632482726e-01
   112    1.781327734817e+00
   113    8.648072162181e-14
   114   -1.328133565851e+00
   115    2.500392359163e-01
   116    6.270496704906e-15
   117   -1.765609048103e-01
   118    4.956229624061e-02
   119    4.750887049629e-16
   120   -3.421073893604e-02
   121    1.201137626164e+00
   122    5.031621590157e-14
   123   -8.901430805381e-01
   124    9.672958904671e-02
   125    1.790756352869e-01
   126    7.086530869530e-14
   127   -1.459471947951e-02
   128    3.097576913456e-14
   129    5.255793444399e-02
   130    4.521502926301e-02
   131    3.299306622697e-14
   132    3.446926695295e-02
   133    1.929064180888e-14
Sym=X
Ene= 0.609057
Spin=Alpha
Occup=0
     1    1.571570993708e-15
     2   -7.518127569962e-13
     3    3.434950902287e-15
     4   -1.691389230202e-14
     5    2.474222876705e-14
     6   -8.563332643067e-14
     7   -1.233504073937e-13
     8    1.716922604137e-12
     9    1.153072256992e-13
    10    9.599977934987e-12
    11   -1.147571340263e-17
    12    8.485940597895e-05
    13    5.864388996252e-16
    14   -9.835361555374e-17
    15    2.049808510001e-03
    16    3.055594866249e-15
    17    7.824329692543e-15
    18    1.272895397664e+00
    19    4.045691601157e-13
    20    4.228514441196e-14
    21    1.633151857494e+00
    22   -2.173875949357e-12
    23   -8.602116633726e-16
    24   -4.369189149187e-02
    25    9.626808290874e-14
    26    5.477515233476e-14
    27    4.831809051496e-01
    28   -2.524079627200e-12
    29    3.051949947282e-14
    30    1.384584983894e-01
    31   -1.347329764989e-12
    32    1.829892174321e-14
    33   -9.462364285649e-02
    34   -6.204271264628e-13
    35   -3.532069505397e-13
    36    2.173215855560e-13
    37   -6.079076476369e-01
    38    1.106853779756e-12
    39   -9.219166465372e-14
    40   -3.119157085533e-13
    41    2.154837699052e-13
    42   -6.800391567243e-01
    43    1.504375788117e-12
    44   -9.983179874256e-14
    45    1.729428337306e-14
    46    2.234223607235e-14
    47   -1.306861479922e-01
    48    3.705928334802e-13
    49   -1.340584869612e-14
    50   -9.650253629102e-14
    51    1.217258932546e-13
    52   -4.853676050591e-01
    53    1.260799582391e-12
    54   -6.787397188003e-14
    55    1.591409743495e-13
    56   -3.554956122065e-14
    57   -2.948440797098e-02
    58   -1.031507794710e-13
    59    1.312858819320e-14
    60   -2.361748677472e-15
    61    7.535046144620e-02
    62    2.140026606309e-13
    63   -3.830535599021e-14
    64   -4.587236649207e-02
    65   -1.724894040641e-13
    66    1.531404368585e-14
    67   -8.237933682630e-15
    68    1.006966583508e-01
    69    1.297145827678e-13
    70   -1.730082732894e-14
    71   -3.022949557109e-02
    72   -1.314593006550e-13
    73    1.003889442775e-14
    74   -6.225698050991e-15
    75    5.729033040287e-02
    76    3.033131505628e-16
    77    2.398463900616e-14
    78   -4.443150035055e-12
    79    1.061717355049e-13
    80   -2.095135036422e-12
    81    4.640051297176e-13
    82   -1.401211267553e-13
    83    2.514459816080e-12
    84   -1.232398869923e+00
    85    1.341693355404e-12
    86   -3.129781007508e-13
    87   -1.004549346045e-01
    88   -1.287644119205e-13
    89   -1.005318262952e-13
    90   -5.277258191738e-03
    91   -5.281440917725e-14
    92    4.532110032433e-13
    93   -7.600613778175e-01
    94    2.927067015435e-13
    95    3.616240563262e-14
    96    1.051192101310e-12
    97   -3.527331351714e-01
    98    1.174440064823e-12
    99    1.178802628796e-01
   100    5.765289158998e-14
   101    3.337428769905e-13
   102   -1.769294478242e-01
   103    3.975244976612e-13
   104    7.630410972248e-02
   105    3.724264676900e-16
   106    3.098326934057e-14
   107   -4.745033546545e-12
   108    1.482403610032e-13
   109   -2.428806338186e-12
   110    6.397964191039e-13
   111   -5.153560024214e-14
   112   -2.376607348760e-12
   113   -1.232398869923e+00
   114    9.657475855393e-13
   115    3.855677788327e-13
   116   -1.004549346045e-01
   117   -1.823673599158e-13
   118    1.121721241756e-13
   119   -5.277258191743e-03
   120   -6.019401418534e-14
   121   -2.517590251815e-13
   122   -7.600613778173e-01
   123    2.198463903857e-14
   124   -7.892658241467e-14
   125   -9.858079661022e-13
   126   -3.527331351714e-01
   127    1.215416565474e-12
   128   -1.178802628796e-01
   129    1.959443342123e-14
   130   -2.938782163284e-13
   131   -1.769294478243e-01
   132    4.113950622546e-13
   133   -7.630410972251e-02
[5D7F]

======= END OF MOLDEN-FORMATTED INPUT FILE =======


        *************************************************************
        *                                                           *
        *  Thank you very much for using Q-Chem.  Have a nice day.  *
        *                                                           *
        *************************************************************


