                  Welcome to Q-Chem
     A Quantum Leap Into The Future Of Chemistry


 Q-Chem 6.0 (devel), Q-Chem, Inc., Pleasanton, CA (2022)

 E. Epifanovsky,  A. T. B. Gilbert,  Xintian Feng,  Joonho Lee,  Yuezhi Mao,  
 N. Mardirossian,  P. Pokhilko,  A. White,  M. Wormit,  M. P. Coons,  
 A. L. Dempwolff,  Zhengting Gan,  D. Hait,  P. R. Horn,  L. D. Jacobson,  
 I. Kaliman,  J. Kussmann,  A. W. Lange,  Ka Un Lao,  D. S. Levine,  Jie Liu,  
 S. C. McKenzie,  A. F. Morrison,  K. Nanda,  F. Plasser,  D. R. Rehn,  
 M. L. Vidal,  Zhi-Qiang You,  Ying Zhu,  B. Alam,  B. Albrecht,  
 A. Aldossary,  E. Alguire,  J. H. Andersen,  V. Athavale,  D. Barton,  
 K. Begam,  A. Behn,  N. Bellonzi,  Y. A. Bernard,  E. J. Berquist,  
 H. Burton,  A. Carreras,  K. Carter-Fenk,  Romit Chakraborty,  
 Chandrima Chakravarty,  Junhan Chen,  A. D. Chien,  K. D. Closser,  
 V. Cofer-Shabica,  L. Cunha,  S. Dasgupta,  Jia Deng,  M. de Wergifosse,  
 M. Diedenhofen,  Hainam Do,  S. Ehlert,  Po-Tung Fang,  S. Fatehi,  
 Qingguo Feng,  T. Friedhoff,  B. Ganoe,  J. Gayvert,  Qinghui Ge,  
 G. Gidofalvi,  M. Goldey,  J. Gomes,  C. Gonzalez-Espinoza,  S. Gulania,  
 A. Gunina,  J. A. Gyamfi,  M. W. D. Hanson-Heine,  P. H. P. Harbach,  
 A. W. Hauser,  M. F. Herbst,  M. Hernandez Vera,  M. Hodecker,  
 Z. C. Holden,  S. Houck,  Xunkun Huang,  Kerwin Hui,  B. C. Huynh,  
 K. Ikeda,  M. Ivanov,  Hyunjun Ji,  Zuxin Jin,  Hanjie Jiang,  B. Kaduk,  
 S. Kaehler,  R. Kang,  K. Khistyaev,  Jaehoon Kim,  Yongbin Kim,  
 P. Klunzinger,  Z. Koczor-Benda,  Joong Hoon Koh,  D. Kosenkov,  
 Saikiran Kotaru,  L. Koulias,  T. Kowalczyk,  C. M. Krauter,  K. Kue,  
 A. Kunitsa,  T. Kus,  A. Landau,  K. V. Lawler,  D. Lefrancois,  S. Lehtola,  
 Rain Li,  Shaozhi Li,  Yi-Pei Li,  Jiashu Liang,  M. Liebenthal,  
 Hung-Hsuan Lin,  You-Sheng Lin,  Fenglai Liu,  Kuan-Yu Liu,  
 M. Loipersberger,  A. Luenser,  C. Malbon,  A. Manjanath,  P. Manohar,  
 E. Mansoor,  S. F. Manzer,  Shan-Ping Mao,  A. V. Marenich,  T. Markovich,  
 S. Mason,  F. Matz,  S. A. Maurer,  P. F. McLaughlin,  M. F. S. J. Menger,  
 J.-M. Mewes,  S. A. Mewes,  P. Morgante,  Mohammad Mostafanejad,  
 J. W. Mullinax,  K. J. Oosterbaan,  G. Paran,  V. Parravicini,  
 Alexander C. Paul,  Suranjan K. Paul,  F. Pavosevic,  Zheng Pei,  S. Prager,  
 E. I. Proynov,  E. Ramos,  B. Rana,  A. E. Rask,  A. Rettig,  R. M. Richard,  
 F. Rob,  E. Rossomme,  T. Scheele,  M. Scheurer,  M. Schneider,  
 P. E. Schneider,  N. Sergueev,  S. M. Sharada,  Hengyuan Shen,  
 W. Skomorowski,  D. W. Small,  C. J. Stein,  Yingli Su,  Yu-Chuan Su,  
 E. J. Sundstrom,  Zhen Tao,  J. Thirman,  Hung-Yi Tsai,  T. Tsuchimochi,  
 N. M. Tubman,  C. Utku,  S. P. Veccham,  O. Vydrov,  J. Wenzel,  
 Jonathan Wong,  J. Witte,  A. Yamada,  Chou-Hsun Yang,  Kun Yao,  
 S. Yeganeh,  S. R. Yost,  A. Zech,  F. Zeller,  Igor Ying Zhang,  
 Xing Zhang,  Yu Zhang,  D. Zuev,  A. Aspuru-Guzik,  A. T. Bell,  
 N. A. Besley,  K. B. Bravaya,  B. R. Brooks,  D. Casanova,  Jeng-Da Chai,  
 Hsing-Ta Chen,  S. Coriani,  C. J. Cramer,  A. E. DePrince, III,  
 R. A. DiStasio Jr.,  A. Dreuw,  B. D. Dunietz,  T. R. Furlani,  
 W. A. Goddard III,  S. Grimme,  S. Hammes-Schiffer,  T. Head-Gordon,  
 W. J. Hehre,  Chao-Ping Hsu,  T.-C. Jagau,  Yousung Jung,  A. Klamt,  
 Jing Kong,  D. S. Lambrecht,  Xiangyuan Li,  WanZhen Liang,  N. J. Mayhall,  
 C. W. McCurdy,  J. B. Neaton,  T. Neudecker,  C. Ochsenfeld,  
 J. A. Parkhill,  R. Peverati,  V. A. Rassolov,  Haisheng Ren,  Yihan Shao,  
 L. V. Slipchenko,  R. P. Steele,  J. E. Subotnik,  A. J. W. Thom,  
 A. Tkatchenko,  D. G. Truhlar,  T. Van Voorhis,  Fan Wang,  
 T. A. Wesolowski,  K. B. Whaley,  H. L. Woodcock III,  P. M. Zimmerman,  
 S. Faraji,  P. M. W. Gill,  M. Head-Gordon,  J. M. Herbert,  A. I. Krylov

 Contributors to earlier versions of Q-Chem not listed above: 
 R. D. Adamson,  B. Austin,  R. Baer,  J. Baker,  G. J. O. Beran,  
 K. Brandhorst,  S. T. Brown,  E. F. C. Byrd,  Arup K. Chakraborty,  
 G. K. L. Chan,  Chun-Min Chang,  Yunqing Chen,  C.-L. Cheng,  
 Siu Hung Chien,  D. M. Chipman,  D. L. Crittenden,  H. Dachsel,  
 R. J. Doerksen,  A. D. Dutoi,  R. G. Edgar,  J. Fosso-Tande,  
 L. Fusti-Molnar,  D. Ghosh,  A. Ghysels,  A. Golubeva-Zadorozhnaya,  
 J. Gonthier,  M. S. Gordon,  S. R. Gwaltney,  G. Hawkins,  J. E. Herr,  
 A. Heyden,  S. Hirata,  E. G. Hohenstein,  G. Kedziora,  F. J. Keil,  
 C. Kelley,  Jihan Kim,  R. A. King,  R. Z. Khaliullin,  P. P. Korambath,  
 W. Kurlancheek,  A. Laurent,  A. M. Lee,  M. S. Lee,  S. V. Levchenko,  
 Ching Yeh Lin,  D. Liotard,  E. Livshits,  R. C. Lochan,  I. Lotan,  
 L. A. Martinez-Martinez,  P. E. Maslen,  N. Nair,  D. P. O'Neill,  
 D. Neuhauser,  E. Neuscamman,  C. M. Oana,  R. Olivares-Amaya,  R. Olson,  
 T. M. Perrine,  B. Peters,  P. A. Pieniazek,  A. Prociuk,  Y. M. Rhee,  
 J. Ritchie,  M. A. Rohrdanz,  E. Rosta,  N. J. Russ,  H. F. Schaefer III,  
 M. W. Schmidt,  N. E. Schultz,  S. Sharma,  N. Shenvi,  C. D. Sherrill,  
 A. C. Simmonett,  A. Sodt,  T. Stein,  D. Stuck,  K. S. Thanthiriwatte,  
 V. Vanovschi,  L. Vogt,  Tao Wang,  A. Warshel,  M. A. Watson,  
 C. F. Williams,  Q. Wu,  X. Xu,  Jun Yang,  W. Zhang,  Yan Zhao

   Please cite Q-Chem as follows:
  "Software for the frontiers of quantum chemistry:
   An overview of developments in the Q-Chem 5 package"
   J. Chem. Phys. 155, 084801 (2021)
   https://doi.org/10.1063/5.0055522 (open access)

 Q-Chem 6.0.1 for Intel X86 EM64T Linux

 Parts of Q-Chem use Armadillo 9.900.5 (Nocturnal Misbehaviour).
 http://arma.sourceforge.net/

 Q-Chem begins on Fri Sep  8 17:39:53 2023  

 Host: atlas-169
0

     Scratch files written to ./qchem41969//
 Processing $rem in /scratch/abel/SOFTWARE/qchem/config/preferences:
 Processing $rem in /dipc/acebg/.qchemrc:

 Checking the input file for inconsistencies... 	...done.

--------------------------------------------------------------
User input:
--------------------------------------------------------------
$comment
  RAS-SF CALCULATION
$end

$molecule
 READ C64H28B4_singlet.xyz
$end

$rem
!**CALCULATION TYPE***
JOBTYPE            sp
EXCHANGE           HF
CORRELATION        RASCI    !RASCI=Casanova; RASCI2=Zimmerman
BASIS              6-31G*

!***SCF REFERENCE***
!SKIP_SCFMAN        FALSE
UNRESTRICTED       FALSE
!SCF_GUESS_MIX      FALSE
!SCF_GUESS_ALWAYS   FALSE
MAX_SCF_CYCLES     999
SCF_CONVERGENCE    10
SCF_ALGORITHM      DIIS_GDM !DIIS,DM,DIIS_DM,GDM,DIIS_GDM,GD

!SYMMETRY           TRUE !use of symmetry for calculating integrals
!SYM_IGNORE         FALSE !turn off using symmetry
!SYM_TOL            5 !tolerance for determining point group
!USE_ABELIAN_SUBGROUP      !define to use abelian grou

!THRESH             14
SCF_FINAL_PRINT     1 !0,1,2,3

!****RAS-SF****
RAS_ROOTS          20       !number of RAS-CI roots to be computed
SET_ITER           100     !number of iterations in RASCI
RAS_ELEC           4       !number of electrons in RAS2
RAS_ELEC_ALPHA     3       !spin-α electrons in RAS2
RAS_ELEC_BETA      1       !spin-β electrons in RAS2

RAS_ACT            4       !number of orbitals in RAS2
RAS_ACT_ORB   [215,216,217,218] !user-selected RAS2 orbitals
RAS_OCC           214       !number of orbitals in RAS1
N_FROZEN_CORE      FC     !Number of frozen core orbitals
N_FROZEN_VIRTUAL   0      !Number of frozen virtual orbitals

RAS_DO_HOLE        TRUE   !presence of hole excitations in RAS-CI wave function
RAS_DO_PART        TRUE   !presence of particle excitations
!RAS_AMPL_PRINT     10     !threshold (×10 2 ) for the CI amplitudes

!RAS_GUESS_CS       0      !number of closed shell guess conﬁgurations
!RAS_SPIN_MULT      0      !spin multiplicity: 0=any, 2n+1=defined
!RAS_SRDFT          FALSE  !short-range density functional RAS-CI
!RAS_NFRAG          0     !fragments of excitation analysis in RASCI

RAS_PRINT           2      !level of information
RAS_NATORB          TRUE   !computation of the natural orbital occupancies
!RAS_NATORB_STATE  0      !Saves NO of i RAS computed state in .fchk ﬁle
!RAS_FOD            TRUE

!****RAS-SOC****
CALC_SOC           TRUE   !calculate SOC for EOM-CC, RAS-CI, ADC, TDDFT/TDA and TDDFT
!RAS_SOC_2E        TRUE   !two-electron mean-ﬁeld contribution, default=true
RAS_SOC_SYM_DENS   TRUE   !averaging of α and β densities

!****MEMORY****
MEM_TOTAL          12000 !Default 2000 MB
MEM_STATIC         3000  !Default 64 MB

!**Molecular Properties and Analysis **
!POP_MULLIKEN       TRUE   !Run Mulliken population analysis
!LOWDIN_POPULATION  TRUE   !Run Löwdin population analysis
!GUI                2       !Checkpoints generation
STATE_ANALYSIS     TRUE

!**Wave function analysis of RAS-CI states: MOLDEN**
!PLOTS = 0     ! Note: This can be omitted, default is 0
!NTO_PAIRS = 2 ! Note: This can be omitted, default is 2
GUI 2
!MOLDEN_FORMAT      TRUE
!PRINT_ORBITALS     15

!**Wave function analysis of RAS-CI state: CUBE**
!NTO_PAIRS = 2 ! Note: This can be omitted, default is 2
!PLOTS = 1
!GUI 0

!**SR-DFT**         
!RAS_SRDFT           TRUE !Perform short-range density functional RAS-CI               
!RAS_SRDFT_EXC       0 !EX functional. 0=HF.
!RAS_SRDFT_ONLY_COR  TRUE !No use of EXC functional 
!RAS_SRDFT_COR       srPBE !short-range correlation functional
!ras_srdft_0         TRUE !true: no iteration (one-shot); false: iteration             
!RAS_OMEGA           400 !Coulomb range-separation parameter. def=400                  
!RAS_SRDFT_DAMP     0.5 !dumping factor. def=0.5                                      
!GUI 0  
$end

!$plots
!   grid_points 100 100 100
!   grid_range  (-10,10) (-10,10) (-10,10)
!$end

!$occupied
!   1:77 78 79 80
!   1:77 80
!$end

--------------------------------------------------------------
 ----------------------------------------------------------------
             Standard Nuclear Orientation (Angstroms)
    I     Atom           X                Y                Z
 ----------------------------------------------------------------
    1      H      12.0733410000    -3.4055810000    -0.0000000000
    2      H      12.0733410000     3.4055810000     0.0000000000
    3      H       9.8643470000    -4.7254360000    -0.0000000000
    4      H       9.8643470000     4.7254360000     0.0000000000
    5      H       7.4227500000    -4.7282120000    -0.0000000000
    6      H       7.4227500000     4.7282120000     0.0000000000
    7      H       5.2621400000    -3.4211070000    -0.0000000000
    8      H       5.2621400000     3.4211070000     0.0000000000
    9      H       3.3374600000    -3.4028740000    -0.0000000000
   10      H       3.3374600000     3.4028740000     0.0000000000
   11      H       0.9541080000    -3.3936860000    -0.0000000000
   12      H       0.9541080000     3.3936860000     0.0000000000
   13      B      10.0944780000     0.0000000000    -0.0000000000
   14      B       7.2144170000     0.0000000000    -0.0000000000
   15      H      13.3301700000    -1.3513590000    -0.0000000000
   16      H      13.3301700000     1.3513590000     0.0000000000
   17      C      12.2418450000    -1.2728290000    -0.0000000000
   18      C      12.2418450000     1.2728290000     0.0000000000
   19      C      11.5136150000    -2.4722590000    -0.0000000000
   20      C      11.6157950000     0.0000000000    -0.0000000000
   21      C      11.5136150000     2.4722590000     0.0000000000
   22      C      10.0844690000    -2.5482620000    -0.0000000000
   23      C      10.0844690000     2.5482620000     0.0000000000
   24      C       9.3305380000    -3.7776100000    -0.0000000000
   25      C       9.3503310000    -1.3363280000    -0.0000000000
   26      C       9.3503310000     1.3363280000     0.0000000000
   27      C       9.3305380000     3.7776100000     0.0000000000
   28      C       7.9555680000    -3.7796410000    -0.0000000000
   29      C       7.9513940000    -1.3299620000    -0.0000000000
   30      C       7.9513940000     1.3299620000     0.0000000000
   31      C       7.9555680000     3.7796410000     0.0000000000
   32      C       7.2005160000    -2.5478050000    -0.0000000000
   33      C       7.2005160000     2.5478050000     0.0000000000
   34      C       5.7970080000    -2.4768080000    -0.0000000000
   35      C       5.7133450000    -0.0000000000    -0.0000000000
   36      C       5.7970080000     2.4768080000     0.0000000000
   37      C       5.0377270000    -1.2525040000    -0.0000000000
   38      C       5.0377270000     1.2525040000     0.0000000000
   39      C       3.5963010000    -1.2488160000    -0.0000000000
   40      C       3.5963010000     1.2488160000     0.0000000000
   41      C       2.8318150000    -2.4461700000    -0.0000000000
   42      C       2.8841960000     0.0000000000    -0.0000000000
   43      C       2.8318150000     2.4461700000     0.0000000000
   44      C       1.4647410000    -2.4395890000    -0.0000000000
   45      C       1.4428210000     0.0000000000    -0.0000000000
   46      C       1.4647410000     2.4395890000     0.0000000000
   47      C       0.7174390000    -1.2305190000    -0.0000000000
   48      C       0.7174390000     1.2305190000     0.0000000000
   49      C      -0.7174390000    -1.2305190000    -0.0000000000
   50      C      -0.7174390000     1.2305190000     0.0000000000
   51      C      -1.4428210000     0.0000000000     0.0000000000
   52      C      -1.4647410000    -2.4395890000    -0.0000000000
   53      C      -1.4647410000     2.4395890000     0.0000000000
   54      H      -0.9541080000    -3.3936860000    -0.0000000000
   55      C      -2.8318150000    -2.4461700000    -0.0000000000
   56      C      -2.8841960000     0.0000000000     0.0000000000
   57      H      -0.9541080000     3.3936860000     0.0000000000
   58      C      -2.8318150000     2.4461700000     0.0000000000
   59      H      -3.3374600000    -3.4028740000    -0.0000000000
   60      C      -3.5963010000    -1.2488160000    -0.0000000000
   61      C      -3.5963010000     1.2488160000     0.0000000000
   62      H      -3.3374600000     3.4028740000     0.0000000000
   63      C      -5.0377270000    -1.2525040000    -0.0000000000
   64      C      -5.0377270000     1.2525040000     0.0000000000
   65      C      -5.7970080000    -2.4768080000    -0.0000000000
   66      C      -5.7133450000     0.0000000000     0.0000000000
   67      C      -5.7970080000     2.4768080000     0.0000000000
   68      H      -5.2621400000    -3.4211070000    -0.0000000000
   69      C      -7.2005160000    -2.5478050000    -0.0000000000
   70      B      -7.2144170000     0.0000000000     0.0000000000
   71      H      -5.2621400000     3.4211070000     0.0000000000
   72      C      -7.2005160000     2.5478050000     0.0000000000
   73      C      -7.9555680000    -3.7796410000    -0.0000000000
   74      C      -7.9513940000    -1.3299620000    -0.0000000000
   75      C      -7.9513940000     1.3299620000     0.0000000000
   76      C      -7.9555680000     3.7796410000     0.0000000000
   77      H      -7.4227500000    -4.7282120000    -0.0000000000
   78      C      -9.3305380000    -3.7776100000    -0.0000000000
   79      C      -9.3503310000    -1.3363280000    -0.0000000000
   80      C      -9.3503310000     1.3363280000     0.0000000000
   81      H      -7.4227500000     4.7282120000     0.0000000000
   82      C      -9.3305380000     3.7776100000     0.0000000000
   83      H      -9.8643470000    -4.7254360000    -0.0000000000
   84      C     -10.0844690000    -2.5482620000    -0.0000000000
   85      B     -10.0944780000     0.0000000000     0.0000000000
   86      C     -10.0844690000     2.5482620000     0.0000000000
   87      H      -9.8643470000     4.7254360000     0.0000000000
   88      C     -11.5136150000    -2.4722590000    -0.0000000000
   89      C     -11.6157950000     0.0000000000     0.0000000000
   90      C     -11.5136150000     2.4722590000     0.0000000000
   91      H     -12.0733410000    -3.4055810000    -0.0000000000
   92      C     -12.2418450000    -1.2728290000    -0.0000000000
   93      C     -12.2418450000     1.2728290000     0.0000000000
   94      H     -12.0733410000     3.4055810000     0.0000000000
   95      H     -13.3301700000    -1.3513590000    -0.0000000000
   96      H     -13.3301700000     1.3513590000     0.0000000000
 ----------------------------------------------------------------
 Molecular Point Group                 D2h   NOp =  8
 Largest Abelian Subgroup              D2h   NOp =  8
 Nuclear Repulsion Energy =        8046.75017402 hartrees
 There are      216 alpha and      216 beta electrons
 Requested basis set is 6-31G(d)
 There are 328 shells and 1076 basis functions

 Total QAlloc Memory Limit  12000 MB
 Mega-Array Size      2933 MB
 MEM_STATIC part      3000 MB

 A cutoff of  1.0D-14 yielded  18274 shell pairs
 There are    218710 function pairs
 Smallest overlap matrix eigenvalue = 7.53E-05

 Scale SEOQF with 1.000000e-02/1.000000e-01/1.000000e+00

 Standard Electronic Orientation quadrupole field applied
 Nucleus-field energy     =     0.0000002468 hartrees
 Guess from superposition of atomic densities
 Warning:  Energy on first SCF cycle will be non-variational
 SAD guess density has 432.000001 electrons

 -----------------------------------------------------------------------
  General SCF calculation program by
  Eric Jon Sundstrom, Paul Horn, Yuezhi Mao, Dmitri Zuev, Alec White,
  David Stuck, Shaama M.S., Shane Yost, Joonho Lee, David Small,
  Daniel Levine, Susi Lehtola, Hugh Burton, Evgeny Epifanovsky,
  Bang C. Huynh
 -----------------------------------------------------------------------
 Hartree-Fock
 A restricted SCF calculation will be
 performed using DIIS, GDM
 SCF converges when RMS gradient is below 1.0e-10
 ---------------------------------------
  Cycle       Energy         DIIS error
 ---------------------------------------
    1   -2571.8735900008      2.65e-02  
    2   -2537.7559818862      1.94e-03  Done DIIS. Switching to GDM
 ---------------------------------------
  Cycle       Energy        RMS Gradient
 ---------------------------------------
    1   -2537.7559818862      1.38e-01   Descent step
    2   -2538.2289871957      4.73e-02   Descent step
    3   -2538.5131311709      2.11e-02   Dog-leg BFGS step
    4   -2538.6399143155      1.94e-02   Normal BFGS step
    5   -2538.6494391118      9.55e-03   Normal BFGS step
    6   -2538.6502309543      1.36e-02   Normal BFGS step
    7   -2538.6509952285      5.99e-03   Normal BFGS step
    8   -2538.6512519838      1.92e-03   Normal BFGS step
    9   -2538.6512931736      1.29e-03   Normal BFGS step
   10   -2538.6513150601      5.51e-04   Normal BFGS step
   11   -2538.6513227848      1.79e-04   Normal BFGS step
   12   -2538.6513236791      9.96e-05   Normal BFGS step
   13   -2538.6513238453      2.94e-05   Normal BFGS step
   14   -2538.6513238752      1.37e-05   Normal BFGS step
   15   -2538.6513238800      4.05e-06   Normal BFGS step
   16   -2538.6513238808      2.13e-06   Normal BFGS step
   17   -2538.6513238809      7.51e-07   Normal BFGS step
   18   -2538.6513238810      4.44e-07   Normal BFGS step
   19   -2538.6513238810      1.52e-07   Normal BFGS step
   20   -2538.6513238809      6.29e-08   Normal BFGS step
   21   -2538.6513238810      3.33e-08   Normal BFGS step
  GDM::WARNING energy changes are now smaller than effective accuracy.
  GDM::        calculation will continue, but THRESH should be increased
  GDM::        or SCF_CONVERGENCE decreased. 
  GDM::        effective_thresh = 1.86e-08
   22   -2538.6513238809      1.30e-08   Normal BFGS step
   23   -2538.6513238810      5.18e-09   Normal BFGS step
   24   -2538.6513238810      1.76e-09   Normal BFGS step
   25   -2538.6513238810      7.76e-10   Normal BFGS step
  GDM::WARNING energy changes are now smaller than effective accuracy.
  GDM::        calculation will continue, but THRESH should be increased
  GDM::        or SCF_CONVERGENCE decreased. 
  GDM::        effective_thresh = 1.86e-08
   26   -2538.6513238810      3.95e-10   Normal BFGS step
   27   -2538.6513238810      2.98e-10   Normal BFGS step
  GDM::WARNING energy changes are now smaller than effective accuracy.
  GDM::        calculation will continue, but THRESH should be increased
  GDM::        or SCF_CONVERGENCE decreased. 
  GDM::        effective_thresh = 1.86e-08
   28   -2538.6513238810      7.41e-11  Convergence criterion met
 ---------------------------------------
 DFT Correlation    Energy =   0.00000000000000
 DFT Exchange       Energy =   0.00000000000000
 HF Exchange        Energy = -358.00103748189844
 Kinetic            Energy =   0.00000000000000
 Nuclear Attraction Energy =   0.00000000000000
 One-Electron       Energy = -19469.11594626910664
 Total Coulomb      Energy = 9241.71548560151496
 Final Alpha MO Eigenvalues
            1           2           3           4           5           6
    1 -11.2907447 -11.2907443 -11.2907130 -11.2907129 -11.2856793 -11.2855517
            7           8           9          10          11          12
    1 -11.2848002 -11.2845743 -11.2823438 -11.2822916 -11.2784493 -11.2784490
           13          14          15          16          17          18
    1 -11.2747887 -11.2747885 -11.2747810 -11.2747806 -11.2724077 -11.2724077
           19          20          21          22          23          24
    1 -11.2724073 -11.2724072 -11.2670888 -11.2670887 -11.2670887 -11.2670885
           25          26          27          28          29          30
    1 -11.2636676 -11.2636676 -11.2636674 -11.2636674 -11.2489259 -11.2489259
           31          32          33          34          35          36
    1 -11.2489244 -11.2489244 -11.2473900 -11.2473900 -11.2473900 -11.2473900
           37          38          39          40          41          42
    1 -11.2467539 -11.2467539 -11.2467536 -11.2467536 -11.2430618 -11.2430618
           43          44          45          46          47          48
    1 -11.2430598 -11.2430598 -11.2363086 -11.2363086 -11.2363085 -11.2363085
           49          50          51          52          53          54
    1 -11.2219270 -11.2219270 -11.2219265 -11.2219265 -11.2122274 -11.2122274
           55          56          57          58          59          60
    1 -11.2122187 -11.2122186 -11.2007583 -11.2007583 -11.1895905 -11.1895905
           61          62          63          64          65          66
    1 -11.1895802 -11.1895802 -11.1843542 -11.1843542  -7.5244399  -7.5244397
           67          68          69          70          71          72
    1  -7.5184328  -7.5184328  -1.2351318  -1.2098993  -1.1747835  -1.1668323
           73          74          75          76          77          78
    1  -1.1596950  -1.1538673  -1.1494269  -1.1493156  -1.1390321  -1.1277377
           79          80          81          82          83          84
    1  -1.1035524  -1.1028024  -1.0919939  -1.0915625  -1.0719007  -1.0659697
           85          86          87          88          89          90
    1  -1.0556972  -1.0465305  -1.0456592  -1.0375199  -1.0239750  -1.0197079
           91          92          93          94          95          96
    1  -1.0195312  -1.0158637  -1.0013708  -0.9967589  -0.9876296  -0.9815581
           97          98          99         100         101         102
    1  -0.9688120  -0.9519402  -0.9496882  -0.9310504  -0.9145030  -0.9092767
          103         104         105         106         107         108
    1  -0.8957351  -0.8871211  -0.8827505  -0.8710850  -0.8538944  -0.8458654
          109         110         111         112         113         114
    1  -0.8447608  -0.8302450  -0.8228654  -0.8181668  -0.8172734  -0.8086283
          115         116         117         118         119         120
    1  -0.8036558  -0.7921935  -0.7921926  -0.7816262  -0.7610079  -0.7597664
          121         122         123         124         125         126
    1  -0.7443647  -0.7390027  -0.7338514  -0.7285839  -0.7236792  -0.7184638
          127         128         129         130         131         132
    1  -0.7053613  -0.7050465  -0.7005106  -0.6906164  -0.6834102  -0.6822669
          133         134         135         136         137         138
    1  -0.6711506  -0.6699035  -0.6607631  -0.6529717  -0.6428365  -0.6410002
          139         140         141         142         143         144
    1  -0.6369712  -0.6346958  -0.6325881  -0.6293018  -0.6206982  -0.6166130
          145         146         147         148         149         150
    1  -0.6154526  -0.6129362  -0.6076715  -0.6036813  -0.5990644  -0.5980897
          151         152         153         154         155         156
    1  -0.5964443  -0.5911263  -0.5864328  -0.5839076  -0.5818963  -0.5695422
          157         158         159         160         161         162
    1  -0.5682156  -0.5664811  -0.5649568  -0.5634574  -0.5610734  -0.5544413
          163         164         165         166         167         168
    1  -0.5533106  -0.5504051  -0.5498742  -0.5447229  -0.5390571  -0.5371535
          169         170         171         172         173         174
    1  -0.5346726  -0.5332164  -0.5300907  -0.5291771  -0.5205823  -0.5124265
          175         176         177         178         179         180
    1  -0.5115347  -0.5100015  -0.5059841  -0.5018553  -0.4995439  -0.4995383
          181         182         183         184         185         186
    1  -0.4957623  -0.4948648  -0.4948486  -0.4836252  -0.4754726  -0.4740500
          187         188         189         190         191         192
    1  -0.4712632  -0.4689023  -0.4489334  -0.4373923  -0.4329736  -0.4325466
          193         194         195         196         197         198
    1  -0.4309747  -0.4235353  -0.4049227  -0.4048617  -0.3973419  -0.3953743
          199         200         201         202         203         204
    1  -0.3952966  -0.3841041  -0.3721267  -0.3693071  -0.3644319  -0.3607557
          205         206         207         208         209         210
    1  -0.3565143  -0.3481678  -0.3305517  -0.3281526  -0.3154454  -0.2999625
          211         212         213         214         215         216
    1  -0.2981766  -0.2651151  -0.2335791  -0.2330254  -0.2307850  -0.1407924
          217         218         219         220         221         222
    1  -0.1018782  -0.0594257  -0.0203255   0.0403636   0.0650584   0.0874197
          223         224         225         226         227         228
    1   0.0924137   0.0986604   0.1064680   0.1203475   0.1212611   0.1440509
          229         230         231         232         233         234
    1   0.1552404   0.1605154   0.1683948   0.1701089   0.1746475   0.1891078
          235         236         237         238         239         240
    1   0.1952655   0.2068354   0.2187146   0.2234445   0.2277896   0.2340235
          241         242         243         244         245         246
    1   0.2392275   0.2392989   0.2465341   0.2527029   0.2571932   0.2595887
          247         248         249         250         251         252
    1   0.2628663   0.2654218   0.2679396   0.2730959   0.2760468   0.2822035
          253         254         255         256         257         258
    1   0.2855510   0.2897985   0.2915628   0.2927311   0.2962178   0.3025597
          259         260         261         262         263         264
    1   0.3116789   0.3151324   0.3162158   0.3167774   0.3209907   0.3332535
          265         266         267         268         269         270
    1   0.3338494   0.3408906   0.3495056   0.3581686   0.3597471   0.3616891
          271         272         273         274         275         276
    1   0.3692790   0.3701964   0.3723841   0.3739801   0.3742112   0.3750658
          277         278         279         280         281         282
    1   0.3829678   0.3915945   0.3934200   0.3958056   0.4015011   0.4041037
          283         284         285         286         287         288
    1   0.4045720   0.4053775   0.4059787   0.4061549   0.4110081   0.4144969
          289         290         291         292         293         294
    1   0.4151843   0.4247230   0.4269959   0.4300151   0.4403757   0.4409847
          295         296         297         298         299         300
    1   0.4420025   0.4483624   0.4489774   0.4506398   0.4602823   0.4618306
          301         302         303         304         305         306
    1   0.4631249   0.4720860   0.4727280   0.4761494   0.4792447   0.4834196
          307         308         309         310         311         312
    1   0.4871636   0.4886440   0.4914716   0.4920694   0.4957265   0.5043368
          313         314         315         316         317         318
    1   0.5050732   0.5053973   0.5153429   0.5172973   0.5193292   0.5228929
          319         320         321         322         323         324
    1   0.5271776   0.5281525   0.5299900   0.5312883   0.5325197   0.5337374
          325         326         327         328         329         330
    1   0.5345201   0.5441951   0.5452068   0.5565368   0.5637867   0.5689396
          331         332         333         334         335         336
    1   0.5896291   0.5897241   0.5970556   0.5980541   0.6034960   0.6063531
          337         338         339         340         341         342
    1   0.6086019   0.6300009   0.6351127   0.6352125   0.6454749   0.6521962
          343         344         345         346         347         348
    1   0.6603888   0.6629741   0.6634749   0.6663052   0.6706519   0.6777802
          349         350         351         352         353         354
    1   0.6790232   0.6794832   0.6866271   0.6949407   0.6969684   0.6986652
          355         356         357         358         359         360
    1   0.7029044   0.7089811   0.7096312   0.7119129   0.7159474   0.7172238
          361         362         363         364         365         366
    1   0.7175307   0.7200277   0.7204643   0.7204789   0.7264221   0.7281403
          367         368         369         370         371         372
    1   0.7304047   0.7362808   0.7396088   0.7403227   0.7460365   0.7487969
          373         374         375         376         377         378
    1   0.7488033   0.7556689   0.7589167   0.7590347   0.7636405   0.7648935
          379         380         381         382         383         384
    1   0.7649113   0.7672341   0.7681407   0.7694678   0.7700821   0.7707217
          385         386         387         388         389         390
    1   0.7721296   0.7746745   0.7769258   0.7843001   0.7851555   0.7868751
          391         392         393         394         395         396
    1   0.7909995   0.7911758   0.7920274   0.7920840   0.7944847   0.7948089
          397         398         399         400         401         402
    1   0.7967313   0.7972004   0.7998146   0.8019747   0.8054428   0.8073835
          403         404         405         406         407         408
    1   0.8085501   0.8095705   0.8097309   0.8100007   0.8119638   0.8137979
          409         410         411         412         413         414
    1   0.8141506   0.8195498   0.8203183   0.8204979   0.8226472   0.8228360
          415         416         417         418         419         420
    1   0.8231243   0.8244576   0.8268688   0.8294500   0.8303877   0.8312868
          421         422         423         424         425         426
    1   0.8402173   0.8448729   0.8451002   0.8458736   0.8462761   0.8511242
          427         428         429         430         431         432
    1   0.8515444   0.8571179   0.8592259   0.8610792   0.8638867   0.8709954
          433         434         435         436         437         438
    1   0.8778781   0.8821992   0.8836195   0.8837728   0.8852665   0.8862249
          439         440         441         442         443         444
    1   0.8971163   0.8971734   0.9110227   0.9162378   0.9181041   0.9224571
          445         446         447         448         449         450
    1   0.9229836   0.9258244   0.9323457   0.9346417   0.9412301   0.9423022
          451         452         453         454         455         456
    1   0.9506204   0.9515568   0.9543089   0.9546345   0.9602791   0.9606493
          457         458         459         460         461         462
    1   0.9735314   0.9816514   0.9861827   0.9936147   0.9977924   1.0052081
          463         464         465         466         467         468
    1   1.0103549   1.0148009   1.0155465   1.0159855   1.0202942   1.0208726
          469         470         471         472         473         474
    1   1.0298671   1.0304025   1.0330188   1.0341519   1.0355942   1.0360535
          475         476         477         478         479         480
    1   1.0372941   1.0549876   1.0577304   1.0592560   1.0628075   1.0643683
          481         482         483         484         485         486
    1   1.0654583   1.0678589   1.0770365   1.0779714   1.0787599   1.0789176
          487         488         489         490         491         492
    1   1.0833427   1.0851404   1.0865489   1.0905173   1.1016848   1.1021926
          493         494         495         496         497         498
    1   1.1071844   1.1072468   1.1085835   1.1087595   1.1152859   1.1154615
          499         500         501         502         503         504
    1   1.1201454   1.1201950   1.1216877   1.1268836   1.1311356   1.1315035
          505         506         507         508         509         510
    1   1.1324267   1.1347734   1.1357641   1.1382784   1.1403960   1.1405541
          511         512         513         514         515         516
    1   1.1418123   1.1423064   1.1444375   1.1551040   1.1567185   1.1596049
          517         518         519         520         521         522
    1   1.1646867   1.1647973   1.1703773   1.1717842   1.1746721   1.1805198
          523         524         525         526         527         528
    1   1.1834160   1.1859406   1.1877276   1.2011944   1.2017029   1.2025916
          529         530         531         532         533         534
    1   1.2067479   1.2080925   1.2097241   1.2105529   1.2111086   1.2139392
          535         536         537         538         539         540
    1   1.2142389   1.2170299   1.2195710   1.2265905   1.2268576   1.2280531
          541         542         543         544         545         546
    1   1.2307048   1.2329756   1.2332018   1.2398063   1.2435709   1.2521532
          547         548         549         550         551         552
    1   1.2604750   1.2673303   1.2709697   1.2759215   1.2868948   1.2876918
          553         554         555         556         557         558
    1   1.2890123   1.2901999   1.2969481   1.2971438   1.3011647   1.3044337
          559         560         561         562         563         564
    1   1.3150947   1.3190975   1.3215955   1.3336190   1.3492024   1.3537842
          565         566         567         568         569         570
    1   1.3574145   1.3606792   1.3626175   1.3639059   1.3680132   1.3691768
          571         572         573         574         575         576
    1   1.3766351   1.3828117   1.3854868   1.3886141   1.3957040   1.3990784
          577         578         579         580         581         582
    1   1.3998712   1.4042612   1.4066725   1.4078675   1.4161497   1.4215502
          583         584         585         586         587         588
    1   1.4247667   1.4289590   1.4303123   1.4328216   1.4352878   1.4440210
          589         590         591         592         593         594
    1   1.4490017   1.4499588   1.4656812   1.4714543   1.4719905   1.4720464
          595         596         597         598         599         600
    1   1.4788734   1.4870567   1.4902938   1.4915893   1.4928341   1.4975277
          601         602         603         604         605         606
    1   1.4998836   1.5011470   1.5044657   1.5051468   1.5118359   1.5163734
          607         608         609         610         611         612
    1   1.5173162   1.5195949   1.5197158   1.5216729   1.5264892   1.5270197
          613         614         615         616         617         618
    1   1.5315502   1.5379219   1.5379229   1.5395740   1.5432369   1.5469226
          619         620         621         622         623         624
    1   1.5505596   1.5539117   1.5545390   1.5662218   1.5700498   1.5748032
          625         626         627         628         629         630
    1   1.5776620   1.5840514   1.5885336   1.5963842   1.6036205   1.6134362
          631         632         633         634         635         636
    1   1.6166741   1.6248354   1.6250305   1.6320587   1.6357098   1.6372789
          637         638         639         640         641         642
    1   1.6386464   1.6397561   1.6572878   1.6614435   1.6615088   1.6688703
          643         644         645         646         647         648
    1   1.6690433   1.6793644   1.6805519   1.6858549   1.6896369   1.6981590
          649         650         651         652         653         654
    1   1.6996725   1.7095179   1.7099888   1.7102759   1.7115265   1.7155080
          655         656         657         658         659         660
    1   1.7204605   1.7215205   1.7317536   1.7319825   1.7327465   1.7488318
          661         662         663         664         665         666
    1   1.7488469   1.7494699   1.7512976   1.7512984   1.7600553   1.7600556
          667         668         669         670         671         672
    1   1.7622427   1.7633332   1.7675126   1.7698424   1.7698538   1.7766074
          673         674         675         676         677         678
    1   1.7802168   1.7910223   1.7921403   1.7948502   1.8053222   1.8079218
          679         680         681         682         683         684
    1   1.8100826   1.8112569   1.8216976   1.8229067   1.8311138   1.8338334
          685         686         687         688         689         690
    1   1.8351585   1.8354191   1.8506526   1.8519696   1.8557461   1.8619141
          691         692         693         694         695         696
    1   1.8664352   1.8892107   1.8915137   1.8980071   1.9199731   1.9298880
          697         698         699         700         701         702
    1   1.9299946   1.9443002   1.9443560   1.9462041   1.9471254   1.9556575
          703         704         705         706         707         708
    1   1.9564191   1.9637038   1.9727748   1.9731734   1.9751980   1.9866155
          709         710         711         712         713         714
    1   1.9869076   1.9890992   1.9969534   2.0052741   2.0061070   2.0127340
          715         716         717         718         719         720
    1   2.0207074   2.0215816   2.0225604   2.0302804   2.0347335   2.0404406
          721         722         723         724         725         726
    1   2.0496189   2.0506810   2.0584017   2.0589098   2.0614117   2.0621578
          727         728         729         730         731         732
    1   2.0717342   2.0763834   2.0776375   2.0800222   2.0837667   2.0862809
          733         734         735         736         737         738
    1   2.0960014   2.1018804   2.1032103   2.1037437   2.1073037   2.1100764
          739         740         741         742         743         744
    1   2.1131173   2.1186621   2.1193986   2.1227807   2.1271468   2.1353451
          745         746         747         748         749         750
    1   2.1364955   2.1367264   2.1392135   2.1476660   2.1558610   2.1627232
          751         752         753         754         755         756
    1   2.1734239   2.1791992   2.1801437   2.1882002   2.1934309   2.1987562
          757         758         759         760         761         762
    1   2.1988726   2.2000937   2.2051320   2.2069224   2.2081157   2.2150759
          763         764         765         766         767         768
    1   2.2173774   2.2253448   2.2263802   2.2310023   2.2319639   2.2463588
          769         770         771         772         773         774
    1   2.2468570   2.2489037   2.2492475   2.2537214   2.2581867   2.2621956
          775         776         777         778         779         780
    1   2.2629324   2.2845598   2.2850742   2.2881474   2.2881669   2.2908829
          781         782         783         784         785         786
    1   2.2925651   2.2953474   2.2966876   2.3053044   2.3081909   2.3115789
          787         788         789         790         791         792
    1   2.3121254   2.3125834   2.3169529   2.3178820   2.3181076   2.3200591
          793         794         795         796         797         798
    1   2.3207932   2.3218427   2.3327607   2.3356488   2.3381076   2.3612512
          799         800         801         802         803         804
    1   2.3653355   2.3679885   2.3704523   2.3806958   2.3831515   2.3962667
          805         806         807         808         809         810
    1   2.4001417   2.4014496   2.4053750   2.4062168   2.4087064   2.4088844
          811         812         813         814         815         816
    1   2.4093397   2.4102224   2.4135016   2.4238894   2.4242701   2.4298904
          817         818         819         820         821         822
    1   2.4340033   2.4454805   2.4474067   2.4494460   2.4735591   2.4749329
          823         824         825         826         827         828
    1   2.4761702   2.4767590   2.4946870   2.5080397   2.5117825   2.5119907
          829         830         831         832         833         834
    1   2.5141850   2.5208037   2.5213295   2.5256253   2.5318598   2.5336112
          835         836         837         838         839         840
    1   2.5351498   2.5379250   2.5421584   2.5485678   2.5531592   2.5591941
          841         842         843         844         845         846
    1   2.5595198   2.5597308   2.5619329   2.5642425   2.5696365   2.5741673
          847         848         849         850         851         852
    1   2.5773858   2.5793571   2.5900449   2.5903272   2.5982154   2.5995072
          853         854         855         856         857         858
    1   2.6001547   2.6059816   2.6077855   2.6155981   2.6170250   2.6229182
          859         860         861         862         863         864
    1   2.6257350   2.6271330   2.6301659   2.6330359   2.6365634   2.6369933
          865         866         867         868         869         870
    1   2.6399598   2.6536051   2.6538980   2.6556298   2.6646020   2.6646273
          871         872         873         874         875         876
    1   2.6694365   2.6699936   2.6918252   2.6943911   2.6946536   2.6950300
          877         878         879         880         881         882
    1   2.6997410   2.7099667   2.7108405   2.7121715   2.7160592   2.7167028
          883         884         885         886         887         888
    1   2.7227626   2.7250614   2.7299819   2.7448676   2.7501173   2.7674265
          889         890         891         892         893         894
    1   2.7694184   2.7705955   2.7741090   2.7902066   2.8128039   2.8152270
          895         896         897         898         899         900
    1   2.8180440   2.8184636   2.8330038   2.8356561   2.8394707   2.8490815
          901         902         903         904         905         906
    1   2.8547462   2.8651623   2.8706278   2.8718645   2.8906003   2.8931949
          907         908         909         910         911         912
    1   2.9036872   2.9040237   2.9058463   2.9164301   2.9413978   2.9511472
          913         914         915         916         917         918
    1   2.9547197   2.9580993   2.9628075   2.9630336   2.9711878   2.9806493
          919         920         921         922         923         924
    1   2.9827273   2.9853112   2.9856563   2.9874842   2.9890117   2.9908283
          925         926         927         928         929         930
    1   2.9975097   3.0094497   3.0126003   3.0240435   3.0283748   3.0342976
          931         932         933         934         935         936
    1   3.0441586   3.0459868   3.0734910   3.0804899   3.0861310   3.0866705
          937         938         939         940         941         942
    1   3.0938463   3.0957344   3.1022801   3.1071178   3.1155410   3.1254447
          943         944         945         946         947         948
    1   3.1290290   3.1325733   3.1374477   3.1436945   3.1496027   3.1513445
          949         950         951         952         953         954
    1   3.1566841   3.1608509   3.1700244   3.1727736   3.1748651   3.1912150
          955         956         957         958         959         960
    1   3.1945047   3.1972651   3.2002069   3.2011876   3.2046072   3.2265828
          961         962         963         964         965         966
    1   3.2431861   3.2471621   3.2492763   3.2501234   3.2588950   3.2668366
          967         968         969         970         971         972
    1   3.2705944   3.2736072   3.2794926   3.2872704   3.2882156   3.3310207
          973         974         975         976         977         978
    1   3.3409616   3.3418159   3.3439064   3.3560731   3.3713895   3.3929639
          979         980         981         982         983         984
    1   3.3947044   3.4011856   3.4257476   3.4355139   3.4637890   3.4871456
          985         986         987         988         989         990
    1   3.4970237   3.5025671   3.5105735   3.5207271   3.5311184   3.5505719
          991         992         993         994         995         996
    1   3.5583145   3.5937312   3.6348239   3.6374354   3.6708688   3.6726591
          997         998         999        1000        1001        1002
    1   3.6788905   3.6954406   3.7423439   3.7722205   3.8032015   3.8097315
         1003        1004        1005        1006        1007        1008
    1   3.8471244   3.8939296   3.9030044   3.9440725   3.9631514   3.9828617
         1009        1010        1011        1012        1013        1014
    1   4.2142862   4.2152834   4.3362784   4.3384378   4.4631268   4.4757008
         1015        1016        1017        1018        1019        1020
    1   4.4865736   4.4927698   4.5054407   4.5143359   4.5144986   4.5211716
         1021        1022        1023        1024        1025        1026
    1   4.5216896   4.5278928   4.5297665   4.5369893   4.5395058   4.5445271
         1027        1028        1029        1030        1031        1032
    1   4.5465599   4.5569218   4.5598672   4.5672315   4.5682557   4.5711295
         1033        1034        1035        1036        1037        1038
    1   4.5787011   4.5870756   4.5960659   4.6169737   4.6319865   4.6341120
         1039        1040        1041        1042        1043        1044
    1   4.6401349   4.6597392   4.6742022   4.6787974   4.7134477   4.7170780
         1045        1046        1047        1048        1049        1050
    1   4.7195986   4.7285880   4.7368873   4.7410527   4.7435488   4.7524699
         1051        1052        1053        1054        1055        1056
    1   4.7821903   4.8134175   4.8281561   4.8621934   4.9000269   4.9002699
         1057        1058        1059        1060        1061        1062
    1   4.9026429   4.9288595   4.9383811   4.9756082   4.9797666   4.9814620
         1063        1064        1065        1066        1067        1068
    1   4.9855196   4.9857919   5.0177729   5.0489926   5.0585978   5.1469078
         1069        1070        1071        1072        1073        1074
    1   5.1492815   5.1848918   5.2537746   5.2539129   5.2812907   5.3491369
         1075        1076
    1   5.3916976   5.4282118
 SCF time:   CPU 1595.02s  wall 1601.00s 
 SCF   energy in the final basis set =    -2538.6513238810
 Total energy in the final basis set =    -2538.6513238810
  
     ##========================================##
     ||                                        ||
     ||              R A S M A N 2             ||
     ||________________________________________||
     ||                                        ||
     ||  Author:                               ||
     ||                                        ||
     ||        David Casanova (2010)           ||
     ||                                        ||
     ##========================================##
  
Setting single-point xc-functionals (if necessary)

  ***************************************************
  *  RAS-CI Dimensions:                             *
  *                                                 *
  *  Active Elec.:   4 ( 3, 1)   Active Orb.:   4   *
  *  Doubly Occ. : 214           Doubly Vir.: 858   *
  *  Frozen Occ. :  68           Frozen Vir.:   0   *
  *                                                 *
  *  Total CI configurations:     28128             * 
  *    Active configurations:        16             * 
  *      Hole configurations:      4088             * 
  *  Particle configurations:     24024             * 
  *                                                 *
  *   Requested states:       20                    *
  *  Spin multiplicity: Any multiplicity            *
  *                                                 *
  ***************************************************
-----------------------------------------
    Memory requirements of RASCI

 Each CI-vector requires      0.21 MiB 
 Max. subspace vectors           2000      

 Reduced Lists                0.00 MiB 
 Excitation Lists             0.00 MiB 
 Excitation Lists Sign        0.00 MiB 
 CI-space (Max)             464.02 MiB 
 Integrals                  218.31 MiB 
 Memory required (Max)      464.02 MiB 
 Memory available          2861.02 MiB 

    Disk requirements of RASCI

 Fock matrix                 17.67 MiB 
 2-electron integrals       401.43 MiB 
 CI-space                   858.40 MiB 
 Disk required             1277.50 MiB 
-----------------------------------------
  
RAS1 HF-like energy:          -2537.3660480462
 Computing integrals
 Computing J and K matrices
 Computing addressing
 Making amplitude guesses
 
Direct CI diagonalization
 ---------------------------------------------------
 Iter    Rts Conv    Rts Left    Ttl Dev     Max Dev
 ---------------------------------------------------
   1         0          20      0.008308    0.000721
   2         0          20      0.004847    0.000363
   3         0          20      0.003872    0.000321
   4         0          20      0.003241    0.000349
   5         0          20      0.003080    0.000510
   6         0          20      0.002579    0.000471
   7         0          20      0.002138    0.000445
   8         0          20      0.001621    0.000370
   9         1          19      0.001116    0.000227
  10         1          19      0.000703    0.000152
  11         3          17      0.000415    0.000086
  12         4          16      0.000278    0.000070
  13         6          14      0.000608    0.000415
  14        11           9      0.000354    0.000213
  15        13           7      0.000251    0.000138
  16        13           7      0.000154    0.000079
  17        14           6      0.000097    0.000047
  18        14           6      0.000057    0.000026
  19        14           6      0.000037    0.000016
  20        17           3      0.000024    0.000009
  21        18           2      0.000018    0.000006
  22        18           2      0.000014    0.000003
  23        18           2      0.000012    0.000002
  24        20           0      0.000010    0.000001    Roots Converged
 ---------------------------------------------------
   
**************************************************
 RAS-CI total energy for state   1:  -2538.731535353508
  Excitation energy (eV) =  0.000000000000
  State symmetry: B3u   (D2h      )
  <S^2>      :  2.0000
  Dipole Moment:    0.0000 X    -0.0000 Y     0.0000 Z
 NATURAL OCCUPATION NUMBERS (higher than 1.0E-05)
            1           2           3           4           5           6
    1   2.0000000   2.0000000   2.0000000   2.0000000   2.0000000   2.0000000
            7           8           9          10          11          12
    1   2.0000000   2.0000000   2.0000000   2.0000000   2.0000000   2.0000000
           13          14          15          16          17          18
    1   2.0000000   2.0000000   2.0000000   2.0000000   2.0000000   2.0000000
           19          20          21          22          23          24
    1   2.0000000   2.0000000   2.0000000   2.0000000   2.0000000   2.0000000
           25          26          27          28          29          30
    1   2.0000000   2.0000000   2.0000000   2.0000000   2.0000000   2.0000000
           31          32          33          34          35          36
    1   2.0000000   2.0000000   2.0000000   2.0000000   2.0000000   2.0000000
           37          38          39          40          41          42
    1   2.0000000   2.0000000   2.0000000   2.0000000   2.0000000   2.0000000
           43          44          45          46          47          48
    1   2.0000000   2.0000000   2.0000000   2.0000000   2.0000000   2.0000000
           49          50          51          52          53          54
    1   2.0000000   2.0000000   2.0000000   2.0000000   2.0000000   2.0000000
           55          56          57          58          59          60
    1   2.0000000   2.0000000   2.0000000   2.0000000   2.0000000   2.0000000
           61          62          63          64          65          66
    1   2.0000000   2.0000000   2.0000000   2.0000000   2.0000000   2.0000000
           67          68          69          70          71          72
    1   2.0000000   2.0000000   2.0000000   2.0000000   2.0000000   2.0000000
           73          74          75          76          77          78
    1   2.0000000   2.0000000   2.0000000   2.0000000   2.0000000   2.0000000
           79          80          81          82          83          84
    1   2.0000000   2.0000000   2.0000000   2.0000000   2.0000000   2.0000000
           85          86          87          88          89          90
    1   2.0000000   2.0000000   2.0000000   2.0000000   2.0000000   2.0000000
           91          92          93          94          95          96
    1   2.0000000   2.0000000   2.0000000   2.0000000   2.0000000   2.0000000
           97          98          99         100         101         102
    1   2.0000000   2.0000000   2.0000000   2.0000000   2.0000000   2.0000000
          103         104         105         106         107         108
    1   2.0000000   2.0000000   2.0000000   2.0000000   2.0000000   2.0000000
          109         110         111         112         113         114
    1   2.0000000   2.0000000   2.0000000   2.0000000   2.0000000   2.0000000
          115         116         117         118         119         120
    1   2.0000000   2.0000000   2.0000000   2.0000000   2.0000000   2.0000000
          121         122         123         124         125         126
    1   2.0000000   2.0000000   2.0000000   2.0000000   2.0000000   2.0000000
          127         128         129         130         131         132
    1   2.0000000   2.0000000   2.0000000   2.0000000   2.0000000   2.0000000
          133         134         135         136         137         138
    1   2.0000000   2.0000000   2.0000000   2.0000000   2.0000000   2.0000000
          139         140         141         142         143         144
    1   2.0000000   2.0000000   2.0000000   2.0000000   2.0000000   2.0000000
          145         146         147         148         149         150
    1   2.0000000   2.0000000   2.0000000   2.0000000   2.0000000   2.0000000
          151         152         153         154         155         156
    1   2.0000000   2.0000000   2.0000000   2.0000000   2.0000000   2.0000000
          157         158         159         160         161         162
    1   2.0000000   2.0000000   2.0000000   2.0000000   2.0000000   2.0000000
          163         164         165         166         167         168
    1   2.0000000   2.0000000   2.0000000   2.0000000   2.0000000   2.0000000
          169         170         171         172         173         174
    1   2.0000000   2.0000000   2.0000000   2.0000000   2.0000000   2.0000000
          175         176         177         178         179         180
    1   2.0000000   2.0000000   2.0000000   2.0000000   2.0000000   2.0000000
          181         182         183         184         185         186
    1   2.0000000   2.0000000   2.0000000   2.0000000   2.0000000   2.0000000
          187         188         189         190         191         192
    1   2.0000000   2.0000000   2.0000000   2.0000000   2.0000000   2.0000000
          193         194         195         196         197         198
    1   2.0000000   2.0000000   2.0000000   2.0000000   1.9999999   1.9999999
          199         200         201         202         203         204
    1   1.9999997   1.9999995   1.9999993   1.9999993   1.9999972   1.9999948
          205         206         207         208         209         210
    1   1.9999882   1.9999573   1.9999461   1.9998998   1.9998238   1.9998233
          211         212         213         214         215         216
    1   1.9993766   1.9985451   1.9973004   1.9950260   1.9651209   1.0014406
          217         218         219         220         221         222
    1   0.9990096   0.0364079   0.0054305   0.0011320   0.0006127   0.0005605
          223         224         225         226         227
    1   0.0003703   0.0000836   0.0000674   0.0000336   0.0000323
Natural Orbitals stored in FCHK

  Amplitudes : 
  
 | HOLE  | ALPHA | BETA  | PART  |    AMPLITUDE 
--------------------------------------------------
 |       | 1110  | 1000  |       |     9.7169985095893E-01
--------------------------------------------------
*** Contributions RASCI wfn    Active:  95.77
                                 Hole:   2.00
                                 Part:   2.23

      Mulliken population analysis 
 ---------------------------------------------------
   Atom    Charge (a.u.)   Spin (a.u.)  
 ---------------------------------------------------
   1  H    0.188714       -0.000000 
   2  H    0.188714       -0.000000 
   3  H    0.205029       -0.000000 
   4  H    0.205029       -0.000000 
   5  H    0.203214       -0.000000 
   6  H    0.203214       -0.000000 
   7  H    0.218368       -0.000000 
   8  H    0.218368       -0.000000 
   9  H    0.231838       -0.000000 
  10  H    0.231838       -0.000000 
  11  H    0.232666       -0.000000 
  12  H    0.232666       -0.000000 
  13  B    0.305472        0.140787 
  14  B    0.229646        0.182454 
  15  H    0.193638       -0.000000 
  16  H    0.193638       -0.000000 
  17  C   -0.133887        0.016087 
  18  C   -0.133887        0.016087 
  19  C   -0.287416        0.051685 
  20  C   -0.178244        0.043966 
  21  C   -0.287416        0.051685 
  22  C    0.072829        0.012996 
  23  C    0.072829        0.012996 
  24  C   -0.211591        0.001534 
  25  C   -0.161729        0.062486 
  26  C   -0.161729        0.062486 
  27  C   -0.211591        0.001534 
  28  C   -0.174485        0.002860 
  29  C   -0.086015        0.060235 
  30  C   -0.086015        0.060235 
  31  C   -0.174485        0.002860 
  32  C   -0.003009        0.011921 
  33  C   -0.003009        0.011921 
  34  C   -0.223990        0.055470 
  35  C   -0.049970        0.050566 
  36  C   -0.223990        0.055470 
  37  C   -0.036642        0.025876 
  38  C   -0.036642        0.025876 
  39  C    0.071424       -0.007647 
  40  C    0.071424       -0.007647 
  41  C   -0.209044        0.000554 
  42  C   -0.087530        0.009860 
  43  C   -0.209044        0.000554 
  44  C   -0.185581       -0.005818 
  45  C   -0.041658        0.001076 
  46  C   -0.185581       -0.005818 
  47  C    0.006809       -0.002592 
  48  C    0.006809       -0.002592 
  49  C    0.006809       -0.002592 
  50  C    0.006809       -0.002592 
  51  C   -0.041658        0.001076 
  52  C   -0.185581       -0.005818 
  53  C   -0.185581       -0.005818 
  54  H    0.232666       -0.000000 
  55  C   -0.209044        0.000554 
  56  C   -0.087530        0.009860 
  57  H    0.232666       -0.000000 
  58  C   -0.209044        0.000554 
  59  H    0.231838       -0.000000 
  60  C    0.071424       -0.007647 
  61  C    0.071424       -0.007647 
  62  H    0.231838       -0.000000 
  63  C   -0.036642        0.025876 
  64  C   -0.036642        0.025876 
  65  C   -0.223990        0.055470 
  66  C   -0.049970        0.050566 
  67  C   -0.223990        0.055470 
  68  H    0.218368       -0.000000 
  69  C   -0.003009        0.011921 
  70  B    0.229646        0.182454 
  71  H    0.218368       -0.000000 
  72  C   -0.003009        0.011921 
  73  C   -0.174485        0.002860 
  74  C   -0.086015        0.060235 
  75  C   -0.086015        0.060235 
  76  C   -0.174485        0.002860 
  77  H    0.203214       -0.000000 
  78  C   -0.211591        0.001534 
  79  C   -0.161729        0.062486 
  80  C   -0.161729        0.062486 
  81  H    0.203214       -0.000000 
  82  C   -0.211591        0.001534 
  83  H    0.205029       -0.000000 
  84  C    0.072829        0.012996 
  85  B    0.305472        0.140787 
  86  C    0.072829        0.012996 
  87  H    0.205029       -0.000000 
  88  C   -0.287416        0.051685 
  89  C   -0.178244        0.043966 
  90  C   -0.287416        0.051685 
  91  H    0.188714       -0.000000 
  92  C   -0.133887        0.016087 
  93  C   -0.133887        0.016087 
  94  H    0.188714       -0.000000 
  95  H    0.193638       -0.000000 
  96  H    0.193638       -0.000000 
 ---------------------------------------------------
   Sum:   -0.000000        2.000000 
 ---------------------------------------------------
 
  
 NATURAL OCCUPATION NUMBERS (higher than 1.0E-05)
            1           2           3           4           5           6
    1   2.0000000   2.0000000   2.0000000   2.0000000   2.0000000   2.0000000
            7           8           9          10          11          12
    1   2.0000000   2.0000000   2.0000000   2.0000000   2.0000000   2.0000000
           13          14          15          16          17          18
    1   2.0000000   2.0000000   2.0000000   2.0000000   2.0000000   2.0000000
           19          20          21          22          23          24
    1   2.0000000   2.0000000   2.0000000   2.0000000   2.0000000   2.0000000
           25          26          27          28          29          30
    1   2.0000000   2.0000000   2.0000000   2.0000000   2.0000000   2.0000000
           31          32          33          34          35          36
    1   2.0000000   2.0000000   2.0000000   2.0000000   2.0000000   2.0000000
           37          38          39          40          41          42
    1   2.0000000   2.0000000   2.0000000   2.0000000   2.0000000   2.0000000
           43          44          45          46          47          48
    1   2.0000000   2.0000000   2.0000000   2.0000000   2.0000000   2.0000000
           49          50          51          52          53          54
    1   2.0000000   2.0000000   2.0000000   2.0000000   2.0000000   2.0000000
           55          56          57          58          59          60
    1   2.0000000   2.0000000   2.0000000   2.0000000   2.0000000   2.0000000
           61          62          63          64          65          66
    1   2.0000000   2.0000000   2.0000000   2.0000000   2.0000000   2.0000000
           67          68          69          70          71          72
    1   2.0000000   2.0000000   2.0000000   2.0000000   2.0000000   2.0000000
           73          74          75          76          77          78
    1   2.0000000   2.0000000   2.0000000   2.0000000   2.0000000   2.0000000
           79          80          81          82          83          84
    1   2.0000000   2.0000000   2.0000000   2.0000000   2.0000000   2.0000000
           85          86          87          88          89          90
    1   2.0000000   2.0000000   2.0000000   2.0000000   2.0000000   2.0000000
           91          92          93          94          95          96
    1   2.0000000   2.0000000   2.0000000   2.0000000   2.0000000   2.0000000
           97          98          99         100         101         102
    1   2.0000000   2.0000000   2.0000000   2.0000000   2.0000000   2.0000000
          103         104         105         106         107         108
    1   2.0000000   2.0000000   2.0000000   2.0000000   2.0000000   2.0000000
          109         110         111         112         113         114
    1   2.0000000   2.0000000   2.0000000   2.0000000   2.0000000   2.0000000
          115         116         117         118         119         120
    1   2.0000000   2.0000000   2.0000000   2.0000000   2.0000000   2.0000000
          121         122         123         124         125         126
    1   2.0000000   2.0000000   2.0000000   2.0000000   2.0000000   2.0000000
          127         128         129         130         131         132
    1   2.0000000   2.0000000   2.0000000   2.0000000   2.0000000   2.0000000
          133         134         135         136         137         138
    1   2.0000000   2.0000000   2.0000000   2.0000000   2.0000000   2.0000000
          139         140         141         142         143         144
    1   2.0000000   2.0000000   2.0000000   2.0000000   2.0000000   2.0000000
          145         146         147         148         149         150
    1   2.0000000   2.0000000   2.0000000   2.0000000   2.0000000   2.0000000
          151         152         153         154         155         156
    1   2.0000000   2.0000000   2.0000000   2.0000000   2.0000000   2.0000000
          157         158         159         160         161         162
    1   2.0000000   2.0000000   2.0000000   2.0000000   2.0000000   2.0000000
          163         164         165         166         167         168
    1   2.0000000   2.0000000   2.0000000   2.0000000   2.0000000   2.0000000
          169         170         171         172         173         174
    1   2.0000000   2.0000000   2.0000000   2.0000000   2.0000000   2.0000000
          175         176         177         178         179         180
    1   2.0000000   2.0000000   2.0000000   2.0000000   2.0000000   2.0000000
          181         182         183         184         185         186
    1   2.0000000   2.0000000   2.0000000   2.0000000   2.0000000   2.0000000
          187         188         189         190         191         192
    1   2.0000000   2.0000000   2.0000000   2.0000000   2.0000000   2.0000000
          193         194         195         196         197         198
    1   2.0000000   2.0000000   2.0000000   2.0000000   1.9999999   1.9999999
          199         200         201         202         203         204
    1   1.9999997   1.9999995   1.9999993   1.9999993   1.9999972   1.9999948
          205         206         207         208         209         210
    1   1.9999882   1.9999573   1.9999461   1.9998998   1.9998238   1.9998233
          211         212         213         214         215         216
    1   1.9993766   1.9985451   1.9973004   1.9950260   1.9651209   1.0014406
          217         218         219         220         221         222
    1   0.9990096   0.0364079   0.0054305   0.0011320   0.0006127   0.0005605
          223         224         225         226         227
    1   0.0003703   0.0000836   0.0000674   0.0000336   0.0000323
  
*** Unpaired Electrons
 Yamaguchi Nd:         2.18
 Head-Gordon Nu:       2.09
 Head-Gordon Nu_nl:    2.01
  
**************************************************
 RAS-CI total energy for state   2:  -2538.696756265692
  Excitation energy (eV) =  0.946387130140
  State symmetry: B1g   (D2h      )
  <S^2>      :  2.0000
  Dipole Moment:   -0.0000 X    -0.0000 Y     0.0000 Z
  Trans. Moment:   -0.0000 X    -1.2878 Y     0.0000 Z
  Strength   :  0.038455
  Natural transition orbitals ( 1 -> 2 ):
   e-/hole pair  1 alpha:  ampl =  0.835313 ( 69.8%)   [4 : 5]
   e-/hole pair  2 alpha:  ampl =  0.386673 ( 15.0%)   [3 : 6]
   e-/hole pair  1 beta :  ampl =  0.167268 (  2.8%)   [4 : 5]
   e-/hole pair  2 beta :  ampl =  0.086929 (  0.8%)   [3 : 6]
   Sum of square amplitudes: 0.90

 NATURAL OCCUPATION NUMBERS (higher than 1.0E-05)
            1           2           3           4           5           6
    1   2.0000000   2.0000000   2.0000000   2.0000000   2.0000000   2.0000000
            7           8           9          10          11          12
    1   2.0000000   2.0000000   2.0000000   2.0000000   2.0000000   2.0000000
           13          14          15          16          17          18
    1   2.0000000   2.0000000   2.0000000   2.0000000   2.0000000   2.0000000
           19          20          21          22          23          24
    1   2.0000000   2.0000000   2.0000000   2.0000000   2.0000000   2.0000000
           25          26          27          28          29          30
    1   2.0000000   2.0000000   2.0000000   2.0000000   2.0000000   2.0000000
           31          32          33          34          35          36
    1   2.0000000   2.0000000   2.0000000   2.0000000   2.0000000   2.0000000
           37          38          39          40          41          42
    1   2.0000000   2.0000000   2.0000000   2.0000000   2.0000000   2.0000000
           43          44          45          46          47          48
    1   2.0000000   2.0000000   2.0000000   2.0000000   2.0000000   2.0000000
           49          50          51          52          53          54
    1   2.0000000   2.0000000   2.0000000   2.0000000   2.0000000   2.0000000
           55          56          57          58          59          60
    1   2.0000000   2.0000000   2.0000000   2.0000000   2.0000000   2.0000000
           61          62          63          64          65          66
    1   2.0000000   2.0000000   2.0000000   2.0000000   2.0000000   2.0000000
           67          68          69          70          71          72
    1   2.0000000   2.0000000   2.0000000   2.0000000   2.0000000   2.0000000
           73          74          75          76          77          78
    1   2.0000000   2.0000000   2.0000000   2.0000000   2.0000000   2.0000000
           79          80          81          82          83          84
    1   2.0000000   2.0000000   2.0000000   2.0000000   2.0000000   2.0000000
           85          86          87          88          89          90
    1   2.0000000   2.0000000   2.0000000   2.0000000   2.0000000   2.0000000
           91          92          93          94          95          96
    1   2.0000000   2.0000000   2.0000000   2.0000000   2.0000000   2.0000000
           97          98          99         100         101         102
    1   2.0000000   2.0000000   2.0000000   2.0000000   2.0000000   2.0000000
          103         104         105         106         107         108
    1   2.0000000   2.0000000   2.0000000   2.0000000   2.0000000   2.0000000
          109         110         111         112         113         114
    1   2.0000000   2.0000000   2.0000000   2.0000000   2.0000000   2.0000000
          115         116         117         118         119         120
    1   2.0000000   2.0000000   2.0000000   2.0000000   2.0000000   2.0000000
          121         122         123         124         125         126
    1   2.0000000   2.0000000   2.0000000   2.0000000   2.0000000   2.0000000
          127         128         129         130         131         132
    1   2.0000000   2.0000000   2.0000000   2.0000000   2.0000000   2.0000000
          133         134         135         136         137         138
    1   2.0000000   2.0000000   2.0000000   2.0000000   2.0000000   2.0000000
          139         140         141         142         143         144
    1   2.0000000   2.0000000   2.0000000   2.0000000   2.0000000   2.0000000
          145         146         147         148         149         150
    1   2.0000000   2.0000000   2.0000000   2.0000000   2.0000000   2.0000000
          151         152         153         154         155         156
    1   2.0000000   2.0000000   2.0000000   2.0000000   2.0000000   2.0000000
          157         158         159         160         161         162
    1   2.0000000   2.0000000   2.0000000   2.0000000   2.0000000   2.0000000
          163         164         165         166         167         168
    1   2.0000000   2.0000000   2.0000000   2.0000000   2.0000000   2.0000000
          169         170         171         172         173         174
    1   2.0000000   2.0000000   2.0000000   2.0000000   2.0000000   2.0000000
          175         176         177         178         179         180
    1   2.0000000   2.0000000   2.0000000   2.0000000   2.0000000   2.0000000
          181         182         183         184         185         186
    1   2.0000000   2.0000000   2.0000000   2.0000000   2.0000000   2.0000000
          187         188         189         190         191         192
    1   2.0000000   2.0000000   2.0000000   2.0000000   2.0000000   2.0000000
          193         194         195         196         197         198
    1   2.0000000   2.0000000   1.9999995   1.9999994   1.9999994   1.9999990
          199         200         201         202         203         204
    1   1.9999968   1.9999911   1.9999872   1.9999749   1.9999735   1.9999225
          205         206         207         208         209         210
    1   1.9998923   1.9998823   1.9997234   1.9995039   1.9994293   1.9988506
          211         212         213         214         215         216
    1   1.9965489   1.9957101   1.9904085   1.9897269   1.9042493   0.8452806
          217         218         219         220         221         222
    1   0.8451638   0.2673334   0.1591712   0.0034802   0.0018021   0.0016403
          223         224         225         226         227         228
    1   0.0008166   0.0006269   0.0003198   0.0001544   0.0001366   0.0000955
          229         230         231         232         233
    1   0.0000855   0.0000740   0.0000137   0.0000128   0.0000110
Natural Orbitals stored in FCHK

  Amplitudes : 
  
 | HOLE  | ALPHA | BETA  | PART  |    AMPLITUDE 
--------------------------------------------------
 |       | 1110  | 0100  |       |     1.6503880755998E-01
 |       | 1101  | 1000  |       |     8.3240718066088E-01
 |       | 1011  | 0001  |       |     1.6993706036361E-01
 |       | 1100  | 1000  | 220   |     1.0885737471611E-01
 |       | 1010  | 1000  | 219   |    -3.8625789134695E-01
 |       | 0101  | 1000  | 219   |    -1.2910560108917E-01
--------------------------------------------------
*** Contributions RASCI wfn    Active:  75.58
                                 Hole:   3.72
                                 Part:  20.70

      Mulliken population analysis 
 ---------------------------------------------------
   Atom    Charge (a.u.)   Spin (a.u.)  
 ---------------------------------------------------
   1  H    0.188714       -0.000000 
   2  H    0.188714       -0.000000 
   3  H    0.205029       -0.000000 
   4  H    0.205029       -0.000000 
   5  H    0.203214       -0.000000 
   6  H    0.203214       -0.000000 
   7  H    0.218368       -0.000000 
   8  H    0.218368       -0.000000 
   9  H    0.231838       -0.000000 
  10  H    0.231838       -0.000000 
  11  H    0.232666       -0.000000 
  12  H    0.232666       -0.000000 
  13  B    0.362343        0.058680 
  14  B    0.309875        0.095724 
  15  H    0.193638       -0.000000 
  16  H    0.193638       -0.000000 
  17  C   -0.154313        0.029438 
  18  C   -0.154313        0.029438 
  19  C   -0.268789        0.019678 
  20  C   -0.171920        0.015941 
  21  C   -0.268789        0.019678 
  22  C    0.042051        0.035067 
  23  C    0.042051        0.035067 
  24  C   -0.213504        0.001835 
  25  C   -0.138476        0.027285 
  26  C   -0.138476        0.027285 
  27  C   -0.213504        0.001835 
  28  C   -0.187526        0.015125 
  29  C   -0.087234        0.055650 
  30  C   -0.087234        0.055650 
  31  C   -0.187526        0.015125 
  32  C   -0.007168        0.008639 
  33  C   -0.007168        0.008639 
  34  C   -0.236411        0.086495 
  35  C   -0.047889        0.030744 
  36  C   -0.236411        0.086495 
  37  C   -0.026703        0.022762 
  38  C   -0.026703        0.022762 
  39  C    0.040919        0.040788 
  40  C    0.040919        0.040788 
  41  C   -0.212190        0.011059 
  42  C   -0.075247        0.007991 
  43  C   -0.212190        0.011059 
  44  C   -0.197074        0.021653 
  45  C   -0.038430        0.000823 
  46  C   -0.197074        0.021653 
  47  C    0.003585        0.019574 
  48  C    0.003585        0.019574 
  49  C    0.003585        0.019574 
  50  C    0.003585        0.019574 
  51  C   -0.038430        0.000823 
  52  C   -0.197074        0.021653 
  53  C   -0.197074        0.021653 
  54  H    0.232666       -0.000000 
  55  C   -0.212190        0.011059 
  56  C   -0.075247        0.007991 
  57  H    0.232666       -0.000000 
  58  C   -0.212190        0.011059 
  59  H    0.231838       -0.000000 
  60  C    0.040919        0.040788 
  61  C    0.040919        0.040788 
  62  H    0.231838       -0.000000 
  63  C   -0.026703        0.022762 
  64  C   -0.026703        0.022762 
  65  C   -0.236411        0.086495 
  66  C   -0.047889        0.030744 
  67  C   -0.236411        0.086495 
  68  H    0.218368       -0.000000 
  69  C   -0.007168        0.008639 
  70  B    0.309875        0.095724 
  71  H    0.218368       -0.000000 
  72  C   -0.007168        0.008639 
  73  C   -0.187526        0.015125 
  74  C   -0.087234        0.055650 
  75  C   -0.087234        0.055650 
  76  C   -0.187526        0.015125 
  77  H    0.203214       -0.000000 
  78  C   -0.213504        0.001835 
  79  C   -0.138476        0.027285 
  80  C   -0.138476        0.027285 
  81  H    0.203214       -0.000000 
  82  C   -0.213504        0.001835 
  83  H    0.205029       -0.000000 
  84  C    0.042051        0.035067 
  85  B    0.362343        0.058680 
  86  C    0.042051        0.035067 
  87  H    0.205029       -0.000000 
  88  C   -0.268789        0.019678 
  89  C   -0.171920        0.015941 
  90  C   -0.268789        0.019678 
  91  H    0.188714       -0.000000 
  92  C   -0.154313        0.029438 
  93  C   -0.154313        0.029438 
  94  H    0.188714       -0.000000 
  95  H    0.193638       -0.000000 
  96  H    0.193638       -0.000000 
 ---------------------------------------------------
   Sum:   -0.000000        2.000000 
 ---------------------------------------------------
 
  
 NATURAL OCCUPATION NUMBERS (higher than 1.0E-05)
            1           2           3           4           5           6
    1   2.0000000   2.0000000   2.0000000   2.0000000   2.0000000   2.0000000
            7           8           9          10          11          12
    1   2.0000000   2.0000000   2.0000000   2.0000000   2.0000000   2.0000000
           13          14          15          16          17          18
[...]
   41   0.0003082   0.0000277  -0.0000000   0.0001247   0.0000000   0.0006305
   42   0.0013181   0.0013181   0.0000001   0.0000347   0.0000000   0.0002456
   43   0.0000277   0.0003082  -0.0000003   0.0002443   0.0000000   0.0002687
   44   0.0000082   0.0000434  -0.0000000   0.0000250  -0.0000000   0.0000293
   45   0.0000694   0.0000694  -0.0000003   0.0000154  -0.0000001   0.0000480
   46   0.0000434   0.0000082   0.0000004   0.0000071   0.0000000   0.0000443
   47   0.0010350   0.0001358   0.0000002   0.0003065   0.0000002   0.0017412
   48   0.0001358   0.0010350   0.0000006   0.0006486   0.0000001   0.0005537
   49   0.0000892   0.0000078  -0.0000014   0.0000397  -0.0000005   0.0001993
   50   0.0000078   0.0000892  -0.0000009   0.0000235   0.0000002   0.0000384
   51   0.0005373   0.0005373   0.0000029   0.0000888   0.0000035   0.0000864
   52   0.0007139   0.0000390   0.0000005   0.0010453   0.0000005   0.0025428
   53   0.0000390   0.0007139  -0.0000083   0.0007942   0.0000001   0.0013120
   54   0.0000007   0.0000009   0.0000000  -0.0000003   0.0000000   0.0000008
   55   0.0000572  -0.0000230  -0.0000011   0.0000572  -0.0000003   0.0003403
   56   0.0001401   0.0001401  -0.0000064   0.0001558   0.0000043   0.0005320
   57   0.0000009   0.0000007   0.0000019  -0.0000023  -0.0000000   0.0000009
   58  -0.0000230   0.0000572   0.0000197   0.0000354  -0.0000003   0.0000939
   59   0.0000540  -0.0000078   0.0000001  -0.0000001   0.0000001  -0.0000129
   60   0.0027764   0.0001270   0.0000012   0.0019666   0.0000123   0.0064333
   61   0.0001270   0.0027764   0.0000058   0.0033719   0.0000009   0.0031230
   62  -0.0000078   0.0000540  -0.0000310   0.0000296   0.0000000   0.0000026
   63   0.0006793   0.0009192   0.0000260   0.0001728   0.0001089   0.0050163
   64   0.0009192   0.0006793  -0.0001317   0.0016536  -0.0000000   0.0004298
   65   0.0141917   0.0004891  -0.0000006   0.0010917   0.0007208   0.0070183
   66   0.0022199   0.0022199   0.0000625   0.0071711   0.0000101   0.0019316
   67   0.0004891   0.0141917   0.0013108   0.0374359  -0.0000008   0.0092135
   68   0.0006579  -0.0000003   0.0000003  -0.0000006   0.0000708   0.0001124
   69  -0.0012001   0.0004987   0.0000226   0.0001104   0.0045178   0.0214491
   70   0.0071959   0.0071959   0.0007944   0.0027937  -0.0001041   0.0079353
   71  -0.0000003   0.0006579   0.0038918  -0.0002209   0.0000001   0.0000002
   72   0.0004987  -0.0012001  -0.0147665  -0.0048911   0.0000006   0.0009300
   73   0.0325887   0.0015695   0.0000061   0.0002569  -0.0125241  -0.0031701
   74   1.4620598   0.0082315   0.0001435   0.0005810  -0.0003611   0.0124216
   75   0.0082315   1.4620598   0.0049961   0.0239969   0.0000075   0.0076405
   76   0.0015695   0.0325887   0.9365243   1.6952106  -0.0000004   0.0017367
   77  -0.0003598   0.0000092   0.0000025  -0.0000002   0.0007440   0.0045271
   78  -0.0115323   0.0004041  -0.0000002   0.0000873   0.9360074   1.1768517
   79   3.9347656  -0.0197620   0.0000092   0.0004041   0.0049639   1.3242933
   80  -0.0197620   3.9347656  -0.0003598  -0.0115323   0.0001434   0.0050588
   81   0.0000092  -0.0003598   0.9268573  -0.0117480   0.0000001  -0.0000000
   82   0.0004041  -0.0115323  -0.0117480   3.8751419   0.0000057   0.0007756
   83   0.0049639   0.0001434   0.0000001   0.0000057   0.9270288  -0.0126324
   84   1.3242933   0.0050588  -0.0000000   0.0007756  -0.0126324   3.9321644
   85   1.0134763   1.0134763  -0.0000993   0.0034496   0.0008992  -0.0150433
   86   0.0050588   1.3242933   0.0045271   1.1768517   0.0000172   0.0057189
   87   0.0001434   0.0049639   0.0007440   0.9360074   0.0000027   0.0000172
   88   0.0009089   0.0002155  -0.0000003   0.0001765   0.0012364   1.3023209
   89  -0.0087707  -0.0087707   0.0000089   0.0008716   0.0000459   0.0368243
   90   0.0002155   0.0009089   0.0007450  -0.0143429   0.0000011   0.0129720
   91   0.0048942  -0.0000187   0.0000001   0.0000015   0.0031653  -0.0143638
   92   0.0301463   0.0037608   0.0000006   0.0017023  -0.0000933  -0.0073733
   93   0.0037608   0.0301463   0.0000732   0.0139710   0.0000114   0.0069700
   94  -0.0000187   0.0048942   0.0000512   0.0015002   0.0000004  -0.0000072
   95   0.0000128   0.0006795   0.0000008   0.0000234   0.0000416   0.0038181
   96   0.0006795   0.0000128   0.0000392   0.0006079   0.0000017   0.0001110
           85          86          87          88          89          90
    1   0.0000000  -0.0000000  -0.0000000   0.0000000   0.0000000   0.0000000
    2   0.0000000  -0.0000000   0.0000000   0.0000000   0.0000000   0.0000000
    3  -0.0000000   0.0000000   0.0000000   0.0000000   0.0000000  -0.0000000
    4  -0.0000000  -0.0000000   0.0000000  -0.0000000   0.0000000   0.0000000
    5   0.0000000   0.0000000  -0.0000000  -0.0000000   0.0000000  -0.0000000
    6   0.0000000   0.0000000  -0.0000000  -0.0000000   0.0000000  -0.0000000
    7  -0.0000000   0.0000000   0.0000000   0.0000000  -0.0000000  -0.0000000
    8  -0.0000000  -0.0000000   0.0000000  -0.0000000  -0.0000000   0.0000000
    9   0.0000000   0.0000000   0.0000000  -0.0000000   0.0000000  -0.0000000
   10   0.0000000   0.0000000   0.0000000  -0.0000000   0.0000000  -0.0000000
   11  -0.0000000  -0.0000000  -0.0000000   0.0000000  -0.0000000  -0.0000000
   12  -0.0000000  -0.0000001   0.0000000  -0.0000000  -0.0000000   0.0000000
   13   0.0134532   0.0011455  -0.0000000   0.0064241   0.0050508   0.0064241
   14   0.0179412   0.0015588  -0.0000000   0.0085239   0.0067086   0.0085239
   15  -0.0000000   0.0000000   0.0000000  -0.0000000   0.0000000  -0.0000000
   16  -0.0000000   0.0000000  -0.0000000  -0.0000000   0.0000000  -0.0000000
   17   0.0016051   0.0000325   0.0000000   0.0009156   0.0006039   0.0006386
   18   0.0016051   0.0003299  -0.0000000   0.0006386   0.0006039   0.0009156
   19   0.0064241   0.0004369  -0.0000000   0.0031582   0.0024148   0.0029662
   20   0.0050508   0.0004301   0.0000000   0.0024148   0.0018993   0.0024148
   21   0.0064241   0.0006895   0.0000000   0.0029662   0.0024148   0.0031582
   22   0.0011455   0.0000167   0.0000000   0.0006895   0.0004301   0.0004369
   23   0.0011455   0.0002688  -0.0000000   0.0004369   0.0004301   0.0006895
   24   0.0001783   0.0000028   0.0000000   0.0001181   0.0000671   0.0000582
   25   0.0060291   0.0004225  -0.0000000   0.0029411   0.0022611   0.0027908
   26   0.0060291   0.0006403   0.0000000   0.0027908   0.0022611   0.0029411
   27   0.0001783   0.0000722   0.0000000   0.0000582   0.0000671   0.0001181
   28   0.0003337   0.0000027   0.0000000   0.0002181   0.0001253   0.0001156
   29   0.0056292   0.0002473   0.0000000   0.0029715   0.0021088   0.0024691
   30   0.0056292   0.0007256  -0.0000000   0.0024691   0.0021088   0.0029715
   31   0.0003337   0.0000956  -0.0000000   0.0001156   0.0001253   0.0002181
   32   0.0012649   0.0000152  -0.0000000   0.0007470   0.0004731   0.0004736
   33   0.0012649   0.0003447   0.0000000   0.0004736   0.0004731   0.0007470
   34   0.0071983   0.0002813   0.0000000   0.0038926   0.0026906   0.0030615
   35   0.0058393   0.0005910  -0.0000000   0.0026987   0.0021803   0.0026987
   36   0.0071983   0.0009908  -0.0000000   0.0030615   0.0026906   0.0038926
   37   0.0029975   0.0000295   0.0000000   0.0018371   0.0011144   0.0010714
   38   0.0029975   0.0009343   0.0000000   0.0010714   0.0011144   0.0018371
   39   0.0000923   0.0000855  -0.0000000   0.0000390   0.0000344   0.0000569
   40   0.0000923   0.0000164  -0.0000000   0.0000569   0.0000344   0.0000390
   41   0.0002655   0.0002687   0.0000000   0.0003498   0.0001042   0.0000246
   42   0.0028424   0.0002456   0.0000000   0.0013294   0.0010276   0.0013294
   43   0.0002655   0.0006305   0.0000000   0.0000246   0.0001042   0.0003498
   44   0.0000700   0.0000443   0.0000000   0.0000164   0.0000258   0.0000487
   45   0.0000602   0.0000480  -0.0000001   0.0000468   0.0000218   0.0000468
   46   0.0000700   0.0000293  -0.0000000   0.0000487   0.0000258   0.0000164
   47   0.0009893   0.0005537   0.0000001   0.0010958   0.0003593   0.0001093
   48   0.0009893   0.0017412   0.0000002   0.0001093   0.0003593   0.0010958
   49   0.0000191   0.0000384   0.0000002   0.0000402   0.0000085   0.0000054
   50   0.0000191   0.0001993  -0.0000005   0.0000054   0.0000085   0.0000402
   51   0.0010935   0.0000864   0.0000035   0.0006157   0.0004483   0.0006157
   52   0.0002291   0.0013120   0.0000001   0.0005441   0.0000560   0.0001037
   53   0.0002291   0.0025428   0.0000005   0.0001037   0.0000560   0.0005441
   54   0.0000003   0.0000009  -0.0000000   0.0000000  -0.0000000   0.0000000
   55   0.0000171   0.0000939  -0.0000003   0.0000355   0.0000046  -0.0000037
   56   0.0000396   0.0005320   0.0000043   0.0000500  -0.0000018   0.0000500
   57   0.0000003   0.0000008   0.0000000   0.0000000  -0.0000000   0.0000000
   58   0.0000171   0.0003403  -0.0000003  -0.0000037   0.0000046   0.0000355
   59   0.0000121   0.0000026   0.0000000   0.0000006   0.0000017  -0.0000011
   60   0.0009894   0.0031230   0.0000009   0.0022421   0.0003451   0.0001325
   61   0.0009894   0.0064333   0.0000123   0.0001325   0.0003451   0.0022421
   62   0.0000121  -0.0000129   0.0000001  -0.0000011   0.0000017   0.0000006
   63  -0.0002891   0.0004298  -0.0000000   0.0001332   0.0000591   0.0000407
   64  -0.0002891   0.0050163   0.0001089   0.0000407   0.0000591   0.0001332
   65   0.0029120   0.0092135  -0.0000008   0.0155550   0.0037550   0.0015749
   66   0.0006133   0.0019316   0.0000101   0.0009121   0.0008266   0.0009121
   67   0.0029120   0.0070183   0.0007208   0.0015749   0.0037550   0.0155550
   68   0.0001332   0.0000002   0.0000001   0.0000342   0.0000140  -0.0000001
   69   0.0076284   0.0009300   0.0000006   0.0000782   0.0012476   0.0002399
   70  -0.0113498   0.0079353  -0.0001041   0.0021192  -0.0001477   0.0021192
   71   0.0001332   0.0001124   0.0000708  -0.0000001   0.0000140   0.0000342
   72   0.0076284   0.0214491   0.0045178   0.0002399   0.0012476   0.0000782
   73   0.0018518   0.0017367  -0.0000004   0.0246851   0.0113395   0.0050444
   74   0.0147448   0.0076405   0.0000075   0.0144499   0.0015301   0.0000854
   75   0.0147448   0.0124216  -0.0003611   0.0000854   0.0015301   0.0144499
   76   0.0018518  -0.0031701  -0.0125241   0.0050444   0.0113395   0.0246851
   77  -0.0000993  -0.0000000   0.0000001   0.0007450   0.0000089  -0.0000003
   78   0.0034496   0.0007756   0.0000057  -0.0143429   0.0008716   0.0001765
   79   1.0134763   0.0050588   0.0001434   0.0009089  -0.0087707   0.0002155
   80   1.0134763   1.3242933   0.0049639   0.0002155  -0.0087707   0.0009089
   81  -0.0000993   0.0045271   0.0007440  -0.0000003   0.0000089   0.0007450
   82   0.0034496   1.1768517   0.9360074   0.0001765   0.0008716  -0.0143429
   83   0.0008992   0.0000172   0.0000027   0.0012364   0.0000459   0.0000011
   84  -0.0150433   0.0057189   0.0000172   1.3023209   0.0368243   0.0129720
   85   3.2708306  -0.0150433   0.0008992   0.0005773   1.0953826   0.0005773
   86  -0.0150433   3.9321644  -0.0126324   0.0129720   0.0368243   1.3023209
   87   0.0008992  -0.0126324   0.9270288   0.0000011   0.0000459   0.0012364
   88   0.0005773   0.0129720   0.0000011   3.8613657  -0.0036734   0.0020338
   89   1.0953826   0.0368243   0.0000459  -0.0036734   3.9133326  -0.0036734
   90   0.0005773   1.3023209   0.0012364   0.0020338  -0.0036734   3.8613657
   91  -0.0003658  -0.0000072   0.0000004   0.9444255   0.0038951   0.0000575
   92  -0.0013413   0.0069700   0.0000114   1.4735817   1.3490228   0.0323197
   93  -0.0013413  -0.0073733  -0.0000933   0.0323197   1.3490228   1.4735817
   94  -0.0003658  -0.0143638   0.0031653   0.0000575   0.0038951   0.9444255
   95   0.0059083   0.0001110   0.0000017  -0.0154319  -0.0094308  -0.0002239
   96   0.0059083   0.0038181   0.0000416  -0.0002239  -0.0094308  -0.0154319
           91          92          93          94          95          96
    1   0.0000000  -0.0000000  -0.0000000   0.0000000   0.0000000  -0.0000000
    2   0.0000000  -0.0000000  -0.0000000   0.0000000  -0.0000000   0.0000000
    3   0.0000000  -0.0000000   0.0000000  -0.0000000  -0.0000000   0.0000000
    4  -0.0000000   0.0000000  -0.0000000   0.0000000   0.0000000  -0.0000000
    5  -0.0000000   0.0000000   0.0000000  -0.0000000   0.0000000   0.0000000
    6  -0.0000000   0.0000000   0.0000000  -0.0000000   0.0000000   0.0000000
    7   0.0000000  -0.0000000   0.0000000   0.0000000  -0.0000000  -0.0000000
    8   0.0000000   0.0000000  -0.0000000   0.0000000  -0.0000000  -0.0000000
    9   0.0000000  -0.0000000   0.0000000  -0.0000000   0.0000000   0.0000000
   10  -0.0000000   0.0000000  -0.0000000   0.0000000   0.0000000   0.0000000
   11  -0.0000000  -0.0000000   0.0000000   0.0000000  -0.0000000   0.0000000
   12   0.0000000   0.0000000  -0.0000000  -0.0000000   0.0000000  -0.0000000
   13   0.0000000   0.0016051   0.0016051   0.0000000  -0.0000000  -0.0000000
   14  -0.0000000   0.0021469   0.0021469  -0.0000000   0.0000000   0.0000000
   15   0.0000000   0.0000000   0.0000000  -0.0000000  -0.0000000   0.0000000
   16  -0.0000000   0.0000000   0.0000000   0.0000000   0.0000000  -0.0000000
   17  -0.0000000   0.0004023   0.0000630  -0.0000000   0.0000000   0.0000000
   18  -0.0000000   0.0000630   0.0004023  -0.0000000   0.0000000   0.0000000
   19   0.0000000   0.0009156   0.0006386   0.0000000  -0.0000000  -0.0000000
   20   0.0000000   0.0006039   0.0006039   0.0000000   0.0000000   0.0000000
   21   0.0000000   0.0006386   0.0009156   0.0000000  -0.0000000  -0.0000000
   22  -0.0000000   0.0003299   0.0000325  -0.0000000   0.0000000   0.0000000
   23  -0.0000000   0.0000325   0.0003299  -0.0000000   0.0000000   0.0000000
   24  -0.0000000   0.0000800   0.0000014   0.0000000  -0.0000000  -0.0000000
   25   0.0000000   0.0008461   0.0006102  -0.0000000  -0.0000000  -0.0000000
   26  -0.0000000   0.0006102   0.0008461   0.0000000  -0.0000000  -0.0000000
   27   0.0000000   0.0000014   0.0000800  -0.0000000  -0.0000000  -0.0000000
   28  -0.0000000   0.0001167   0.0000042  -0.0000000   0.0000000   0.0000000
   29  -0.0000000   0.0009748   0.0004105  -0.0000000   0.0000000   0.0000000
   30  -0.0000000   0.0004105   0.0009748  -0.0000000   0.0000000   0.0000000
   31  -0.0000000   0.0000042   0.0001167  -0.0000000   0.0000000   0.0000000
   32   0.0000000   0.0003942   0.0000294   0.0000000  -0.0000000  -0.0000000
   33   0.0000000   0.0000294   0.0003942   0.0000000  -0.0000000  -0.0000000
   34  -0.0000000   0.0013211   0.0004771  -0.0000000   0.0000000   0.0000000
   35   0.0000000   0.0007289   0.0007289   0.0000000   0.0000000   0.0000000
   36  -0.0000000   0.0004771   0.0013211  -0.0000000   0.0000000   0.0000000
   37  -0.0000000   0.0010453   0.0000474  -0.0000000  -0.0000000  -0.0000000
   38  -0.0000000   0.0000474   0.0010453  -0.0000000  -0.0000000  -0.0000000
   39  -0.0000000   0.0000245   0.0000611   0.0000000   0.0000000   0.0000000
   40   0.0000000   0.0000611   0.0000245  -0.0000000   0.0000000   0.0000000
   41   0.0000000   0.0005897   0.0001882   0.0000000  -0.0000000  -0.0000000
   42  -0.0000000   0.0003359   0.0003359  -0.0000000  -0.0000000  -0.0000000
   43   0.0000000   0.0001882   0.0005897   0.0000000  -0.0000000  -0.0000000
   44  -0.0000000   0.0000200   0.0000356   0.0000000   0.0000000   0.0000000
   45   0.0000000   0.0000216   0.0000216   0.0000000   0.0000000   0.0000000
   46   0.0000000   0.0000356   0.0000200  -0.0000000   0.0000000   0.0000000
   47  -0.0000000   0.0016050   0.0003666  -0.0000000  -0.0000000  -0.0000000
   48  -0.0000000   0.0003666   0.0016050  -0.0000000  -0.0000000  -0.0000000
   49  -0.0000000   0.0000510   0.0000124   0.0000000   0.0000000   0.0000000
   50   0.0000000   0.0000124   0.0000510  -0.0000000   0.0000000   0.0000000
   51  -0.0000001   0.0001175   0.0001175  -0.0000001  -0.0000001  -0.0000001
   52   0.0000002   0.0019967   0.0010895   0.0000000  -0.0000001  -0.0000000
   53   0.0000000   0.0010895   0.0019967   0.0000002  -0.0000000  -0.0000001
   54   0.0000000  -0.0000000  -0.0000000   0.0000000   0.0000000   0.0000000
   55  -0.0000002   0.0001148   0.0000755   0.0000007   0.0000003  -0.0000000
   56  -0.0000003   0.0001056   0.0001056  -0.0000003   0.0000005   0.0000005
   57   0.0000000  -0.0000000  -0.0000000   0.0000000   0.0000000   0.0000000
   58   0.0000007   0.0000755   0.0001148  -0.0000002  -0.0000000   0.0000003
   59  -0.0000001  -0.0000002   0.0000004   0.0000000  -0.0000001   0.0000003
   60   0.0000002   0.0050327   0.0024716   0.0000018   0.0000001   0.0000007
   61   0.0000018   0.0024716   0.0050327   0.0000002   0.0000007   0.0000001
   62   0.0000000   0.0000004  -0.0000002  -0.0000001   0.0000003  -0.0000001
   63   0.0000020   0.0014755   0.0004649   0.0000022  -0.0000020   0.0000023
   64   0.0000022   0.0004649   0.0014755   0.0000020   0.0000023  -0.0000020
   65   0.0000215   0.0074863   0.0048381   0.0000004  -0.0000016   0.0000006
   66   0.0000140   0.0003243   0.0003243   0.0000140  -0.0000023  -0.0000023
   67   0.0000004   0.0048381   0.0074863   0.0000215   0.0000006  -0.0000016
   68   0.0000039  -0.0000020   0.0000040   0.0000000   0.0000025   0.0000008
   69   0.0000577   0.0068931   0.0009527  -0.0000003  -0.0000195   0.0000379
   70   0.0001176  -0.0001417  -0.0001417   0.0001176  -0.0000238  -0.0000238
   71   0.0000000   0.0000040  -0.0000020   0.0000039   0.0000008   0.0000025
   72  -0.0000003   0.0009527   0.0068931   0.0000577   0.0000379  -0.0000195
   73  -0.0000907   0.0016810   0.0023957  -0.0000004   0.0000705  -0.0000023
   74   0.0007154   0.0117373   0.0023660   0.0000013   0.0000868   0.0002246
   75   0.0000013   0.0023660   0.0117373   0.0007154   0.0002246   0.0000868
   76  -0.0000004   0.0023957   0.0016810  -0.0000907  -0.0000023   0.0000705
   77   0.0000512   0.0000732   0.0000006   0.0000001   0.0000392   0.0000008
   78   0.0015002   0.0139710   0.0017023   0.0000015   0.0006079   0.0000234
   79   0.0048942   0.0301463   0.0037608  -0.0000187   0.0000128   0.0006795
   80  -0.0000187   0.0037608   0.0301463   0.0048942   0.0006795   0.0000128
   81   0.0000001   0.0000006   0.0000732   0.0000512   0.0000008   0.0000392
   82   0.0000015   0.0017023   0.0139710   0.0015002   0.0000234   0.0006079
   83   0.0031653  -0.0000933   0.0000114   0.0000004   0.0000416   0.0000017
   84  -0.0143638  -0.0073733   0.0069700  -0.0000072   0.0038181   0.0001110
   85  -0.0003658  -0.0013413  -0.0013413  -0.0003658   0.0059083   0.0059083
   86  -0.0000072   0.0069700  -0.0073733  -0.0143638   0.0001110   0.0038181
   87   0.0000004   0.0000114  -0.0000933   0.0031653   0.0000017   0.0000416
   88   0.9444255   1.4735817   0.0323197   0.0000575  -0.0154319  -0.0002239
   89   0.0038951   1.3490228   1.3490228   0.0038951  -0.0094308  -0.0094308
   90   0.0000575   0.0323197   1.4735817   0.9444255  -0.0002239  -0.0154319
   91   0.9328148  -0.0126567   0.0008278   0.0000362   0.0005094   0.0000157
   92  -0.0126567   3.8992134   0.0052618   0.0008278   0.9332672   0.0011456
   93   0.0008278   0.0052618   3.8992134  -0.0126567   0.0011456   0.9332672
   94   0.0000362   0.0008278  -0.0126567   0.9328148   0.0000157   0.0005094
   95   0.0005094   0.9332672   0.0011456   0.0000157   0.9251413   0.0036694
   96   0.0000157   0.0011456   0.9332672   0.0005094   0.0036694   0.9251413


 Total job time:  49662.81s(wall), 49058.23s(cpu) 
 Sat Sep  9 07:27:36 2023

        *************************************************************
        *                                                           *
        *  Thank you very much for using Q-Chem.  Have a nice day.  *
        *                                                           *
        *************************************************************


