                  Welcome to Q-Chem
     A Quantum Leap Into The Future Of Chemistry


 Q-Chem 5.4 (devel), Q-Chem, Inc., Pleasanton, CA (2021)

 E. Epifanovsky,  A. T. B. Gilbert,  Xintian Feng,  Joonho Lee,  Yuezhi Mao,  
 N. Mardirossian,  P. Pokhilko,  A. White,  M. Wormit,  M. P. Coons,  
 A. L. Dempwolff,  Zhengting Gan,  D. Hait,  P. R. Horn,  L. D. Jacobson,  
 I. Kaliman,  J. Kussmann,  A. W. Lange,  Ka Un Lao,  D. S. Levine,  Jie Liu,  
 S. C. McKenzie,  A. F. Morrison,  K. Nanda,  F. Plasser,  D. R. Rehn,  
 M. L. Vidal,  Zhi-Qiang You,  Ying Zhu,  B. Alam,  B. Albrecht,  
 A. Aldossary,  E. Alguire,  J. H. Andersen,  D. Barton,  K. Begam,  A. Behn,  
 Y. A. Bernard,  E. J. Berquist,  H. Burton,  A. Carreras,  K. Carter-Fenk,  
 Romit Chakraborty,  A. D. Chien,  K. D. Closser,  V. Cofer-Shabica,  
 S. Dasgupta,  Jia Deng,  M. de Wergifosse,  M. Diedenhofen,  Hainam Do,  
 S. Ehlert,  Po-Tung Fang,  S. Fatehi,  Qingguo Feng,  T. Friedhoff,  
 J. Gayvert,  Qinghui Ge,  G. Gidofalvi,  M. Goldey,  J. Gomes,  
 C. Gonzalez-Espinoza,  S. Gulania,  A. Gunina,  M. W. D. Hanson-Heine,  
 P. H. P. Harbach,  A. W. Hauser,  M. F. Herbst,  M. Hernandez Vera,  
 M. Hodecker,  Z. C. Holden,  S. Houck,  Xunkun Huang,  Kerwin Hui,  
 B. C. Huynh,  M. Ivanov,  Hyunjun Ji,  Hanjie Jiang,  B. Kaduk,  S. Kaehler,  
 K. Khistyaev,  Jaehoon Kim,  P. Klunzinger,  Z. Koczor-Benda,  
 Joong Hoon Koh,  D. Kosenkov,  L. Koulias,  T. Kowalczyk,  C. M. Krauter,  
 K. Kue,  A. Kunitsa,  T. Kus,  A. Landau,  K. V. Lawler,  D. Lefrancois,  
 S. Lehtola,  Rain Li,  Yi-Pei Li,  Jiashu Liang,  M. Liebenthal,  
 Hung-Hsuan Lin,  You-Sheng Lin,  Fenglai Liu,  Kuan-Yu Liu,  
 M. Loipersberger,  A. Luenser,  A. Manjanath,  P. Manohar,  E. Mansoor,  
 S. F. Manzer,  Shan-Ping Mao,  A. V. Marenich,  T. Markovich,  S. Mason,  
 S. A. Maurer,  P. F. McLaughlin,  M. F. S. J. Menger,  J.-M. Mewes,  
 S. A. Mewes,  P. Morgante,  J. W. Mullinax,  K. J. Oosterbaan,  G. Paran,  
 Alexander C. Paul,  Suranjan K. Paul,  F. Pavosevic,  Zheng Pei,  S. Prager,  
 E. I. Proynov,  E. Ramos,  B. Rana,  A. E. Rask,  A. Rettig,  R. M. Richard,  
 F. Rob,  E. Rossomme,  T. Scheele,  M. Scheurer,  M. Schneider,  
 N. Sergueev,  S. M. Sharada,  W. Skomorowski,  D. W. Small,  C. J. Stein,  
 Yu-Chuan Su,  E. J. Sundstrom,  Zhen Tao,  J. Thirman,  T. Tsuchimochi,  
 N. M. Tubman,  S. P. Veccham,  O. Vydrov,  J. Wenzel,  J. Witte,  A. Yamada,  
 Kun Yao,  S. Yeganeh,  S. R. Yost,  A. Zech,  Igor Ying Zhang,  Xing Zhang,  
 Yu Zhang,  D. Zuev,  A. Aspuru-Guzik,  A. T. Bell,  N. A. Besley,  
 K. B. Bravaya,  B. R. Brooks,  D. Casanova,  Jeng-Da Chai,  S. Coriani,  
 C. J. Cramer,  A. E. DePrince, III,  R. A. DiStasio Jr.,  A. Dreuw,  
 B. D. Dunietz,  T. R. Furlani,  W. A. Goddard III,  S. Grimme,  
 S. Hammes-Schiffer,  T. Head-Gordon,  W. J. Hehre,  Chao-Ping Hsu,  
 T.-C. Jagau,  Yousung Jung,  A. Klamt,  Jing Kong,  D. S. Lambrecht,  
 WanZhen Liang,  N. J. Mayhall,  C. W. McCurdy,  J. B. Neaton,  T. Neudecker,  
 C. Ochsenfeld,  J. A. Parkhill,  R. Peverati,  V. A. Rassolov,  Yihan Shao,  
 L. V. Slipchenko,  R. P. Steele,  J. E. Subotnik,  A. J. W. Thom,  
 A. Tkatchenko,  D. G. Truhlar,  T. Van Voorhis,  T. A. Wesolowski,  
 K. B. Whaley,  H. L. Woodcock III,  P. M. Zimmerman,  S. Faraji,  
 P. M. W. Gill,  M. Head-Gordon,  J. M. Herbert,  A. I. Krylov

 Additional authors since Version 5.4.0: 
 Chandrima Chakravarty,  L. Cunha,  R. Kang,  Yongbin Kim,  S. Kotaru,  
 Shaozhi Li,  Xiangyuan Li,  F. Matz,  A. Molle,  V. Parravicini,  
 Haisheng Ren,  Hengyuan Shen,  Yingli Su,  Hung-Yi Tsai,  C. Utku,  
 Fang Wang,  Jeff Yang,  F. Zeller

 Contributors to earlier versions of Q-Chem not listed above: 
 R. D. Adamson,  B. Austin,  R. Baer,  J. Baker,  G. J. O. Beran,  
 K. Brandhorst,  S. T. Brown,  E. F. C. Byrd,  Arup K. Chakraborty,  
 G. K. L. Chan,  Chun-Min Chang,  Yunqing Chen,  C.-L. Cheng,  
 Siu Hung Chien,  D. M. Chipman,  D. L. Crittenden,  H. Dachsel,  
 R. J. Doerksen,  A. D. Dutoi,  R. G. Edgar,  J. Fosso-Tande,  
 L. Fusti-Molnar,  D. Ghosh,  A. Ghysels,  A. Golubeva-Zadorozhnaya,  
 J. Gonthier,  M. S. Gordon,  S. R. Gwaltney,  G. Hawkins,  J. E. Herr,  
 A. Heyden,  S. Hirata,  E. G. Hohenstein,  G. Kedziora,  F. J. Keil,  
 C. Kelley,  Jihan Kim,  R. A. King,  R. Z. Khaliullin,  P. P. Korambath,  
 W. Kurlancheek,  A. Laurent,  A. M. Lee,  M. S. Lee,  S. V. Levchenko,  
 Ching Yeh Lin,  D. Liotard,  E. Livshits,  R. C. Lochan,  I. Lotan,  
 L. A. Martinez-Martinez,  P. E. Maslen,  N. Nair,  D. P. O'Neill,  
 D. Neuhauser,  E. Neuscamman,  C. M. Oana,  R. Olivares-Amaya,  R. Olson,  
 T. M. Perrine,  B. Peters,  P. A. Pieniazek,  A. Prociuk,  Y. M. Rhee,  
 J. Ritchie,  M. A. Rohrdanz,  E. Rosta,  N. J. Russ,  H. F. Schaefer III,  
 M. W. Schmidt,  N. E. Schultz,  S. Sharma,  N. Shenvi,  C. D. Sherrill,  
 A. C. Simmonett,  A. Sodt,  T. Stein,  D. Stuck,  K. S. Thanthiriwatte,  
 V. Vanovschi,  L. Vogt,  Tao Wang,  A. Warshel,  M. A. Watson,  
 C. F. Williams,  Q. Wu,  X. Xu,  Jun Yang,  W. Zhang,  Yan Zhao

   Please cite Q-Chem as follows:
  "Software for the frontiers of quantum chemistry:
   An overview of developments in the Q-Chem 5 package"
   J. Chem. Phys. 155, 084801 (2021)
   https://doi.org/10.1063/5.0055522 (open access)

 Q-Chem 5.4.2 for Intel X86 EM64T Linux

 Parts of Q-Chem use Armadillo 9.900.5 (Nocturnal Misbehaviour).
 http://arma.sourceforge.net/

 Q-Chem begins on Wed Apr 20 10:29:07 2022  

 Host: atlas-074
0

     Scratch files written to ./qchem15534//
 Processing $rem in /scratch/abel/SOFTWARE/qchem/config/preferences:
 Processing $rem in /dipc/acebg/.qchemrc:

 Checking the input file for inconsistencies... 	...done.

--------------------------------------------------------------
User input:
--------------------------------------------------------------
$comment
 H2O+ at RAS-SF/6-311++G(d,p)
$end

$molecule
1 2    !charge and multiplicity
O1
H1 O1 oh
H2 O1 oh H1 hoh

oh = 0.997
hoh = 109.17
$end

$rem

!**REFERENCE***     
JOBTYPE          sp    
CORRELATION      RASCI
EXCHANGE         HF            
BASIS            6-311++G(d,p)
UNRESTRICTED     FALSE
MAX_CIS_CYCLES   200   
!THRESH 12             
!SET_ITER        500  

RAS_ROOTS         10   !States of H(1)+O(5)+H(1)
RAS_ELEC          5   !RAS2 electrons (active electrons) = 2*H(2)+O(4)-
RAS_ACT           5   !RAS2 orbitals = 2*H(2)+O(3)
RAS_OCC           2   !RAS1 orbtitals = O(2)
CALC_SOC          TRUE
RAS_SOC_SYM_DENS  TRUE

!****NTOrbs****                                                                                          
STATE_ANALYSIS     TRUE                                                                                   
GUI                2
!RAS_NATORB_STATE  10                                                                                     

!****MEMORY****                                                                                          
MEM_TOTAL    6000   !Default 2000 MB                                                                     
MEM_STATIC   192     !Default 64 MB                                                                      

$end    

--------------------------------------------------------------
 ----------------------------------------------------------------
             Standard Nuclear Orientation (Angstroms)
    I     Atom           X                Y                Z
 ----------------------------------------------------------------
    1      O       0.0000000000     0.0000000000     0.1155512138
    2      H      -0.8125311840    -0.0000000000    -0.4622048550
    3      H       0.8125311840    -0.0000000000    -0.4622048550
 ----------------------------------------------------------------
 Molecular Point Group                 C2v   NOp =  4
 Largest Abelian Subgroup              C2v   NOp =  4
 Nuclear Repulsion Energy =           8.81794733 hartrees
 There are        5 alpha and        4 beta electrons
 Requested basis set is 6-311++G(d,p)
 There are 16 shells and 36 basis functions

 Total QAlloc Memory Limit   6000 MB
 Mega-Array Size       188 MB
 MEM_STATIC part       192 MB


                       Distance Matrix (Angstroms)
             O (  1)   H (  2)
   H (  2)  0.997000
   H (  3)  0.997000  1.625062
 
 A cutoff of  1.0D-09 yielded    136 shell pairs
 There are       706 function pairs (       748 Cartesian)
 Smallest overlap matrix eigenvalue = 4.43E-03

 Scale SEOQF with 1.000000e+00/1.000000e+00/1.000000e+00

 Standard Electronic Orientation quadrupole field applied
 Nucleus-field energy     =    -0.0000000001 hartrees
 Guess from superposition of atomic densities
 Warning:  Energy on first SCF cycle will be non-variational
 SAD guess density has 10.000000 electrons

 -----------------------------------------------------------------------
  General SCF calculation program by
  Eric Jon Sundstrom, Paul Horn, Yuezhi Mao, Dmitri Zuev, Alec White,
  David Stuck, Shaama M.S., Shane Yost, Joonho Lee, David Small,
  Daniel Levine, Susi Lehtola, Hugh Burton, Evgeny Epifanovsky,
  Bang C. Huynh
 -----------------------------------------------------------------------
 Hartree-Fock
 Orthonormalizing orbitals
 A restricted open-shell SCF calculation will be
 performed using GDM
 SCF converges when RMS gradient is below 1.0e-05
 ---------------------------------------
  Cycle       Energy        RMS Gradient
 ---------------------------------------
    1     -74.2872332444      6.73e-01   Descent step
    2     -74.5823956276      4.99e-01   Descent step
    3     -74.7626166288      3.05e-01   Descent step
    4     -74.9542705307      9.93e-01   Descent step
    5     -75.3420209151      5.08e-01   Descent step
    6     -75.4834936446      2.85e-01   Dog-leg BFGS step
    7     -75.5553764541      1.16e-01   Normal BFGS step
    8     -75.5721431873      1.87e-02   Normal BFGS step
    9     -75.5723907499      1.35e-02   Normal BFGS step
   10     -75.5724375897      7.83e-03   Normal BFGS step
   11     -75.5725633075      8.31e-04   Normal BFGS step
   12     -75.5725646893      4.54e-04   Normal BFGS step
   13     -75.5725648819      1.89e-04   Normal BFGS step
   14     -75.5725649098      4.37e-05   Normal BFGS step
   15     -75.5725649126      2.79e-05   Normal BFGS step
   16     -75.5725649132      1.17e-05   Normal BFGS step
   17     -75.5725649137      1.58e-06  Convergence criterion met
The disked orbital energies are calculated using alpha and beta Focks
 ---------------------------------------
 SCF time:   CPU 0.57s  wall 2.00s 
<S^2> =          0.750000000
 SCF   energy in the final basis set =      -75.5725649137
 Total energy in the final basis set =      -75.5725649137
  
     ##========================================##
     ||                                        ||
     ||              R A S M A N 2             ||
     ||________________________________________||
     ||                                        ||
     ||  Author:                               ||
     ||                                        ||
     ||        David Casanova (2010)           ||
     ||                                        ||
     ##========================================##
  
  ***************************************************
  *  RAS-CI Dimensions:                             *
  *                                                 *
  *  Active Elec.:   5 ( 3, 2)   Active Orb.:   5   *
  *  Doubly Occ. :   2           Doubly Vir.:  29   *
  *  Frozen Occ. :   0           Frozen Vir.:   0   *
  *                                                 *
  *  Total CI configurations:      4750             * 
  *    Active configurations:       100             * 
  *      Hole configurations:       300             * 
  *  Particle configurations:      4350             * 
  *                                                 *
  *   Requested states:       10                    *
  *  Spin multiplicity: Any multiplicity            *
  *                                                 *
  ***************************************************
  
 
Direct CI diagonalization
 ---------------------------------------------------
 Iter    Rts Conv    Rts Left    Ttl Dev     Max Dev
 ---------------------------------------------------
   1         0          10      0.043530    0.006502
   2         0          10      0.021320    0.003060
   3         0          10      0.019527    0.003285
   4         0          10      0.021920    0.005027
   5         0          10      0.014807    0.002947
   6         0          10      0.033807    0.011773
   7         0          10      0.021164    0.007311
   8         0          10      0.017486    0.005154
   9         0          10      0.022828    0.006080
  10         0          10      0.019768    0.005264
  11         0          10      0.011925    0.002977
  12         0          10      0.010437    0.002491
  13         1           9      0.008424    0.002204
  14         1           9      0.004552    0.001287
  15         2           8      0.003412    0.001155
  16         3           7      0.002856    0.001307
  17         3           7      0.004082    0.003031
  18         3           7      0.003889    0.003115
  19         3           7      0.003384    0.002868
  20         3           7      0.002606    0.002190
  21         3           7      0.002324    0.002030
  22         3           7      0.002000    0.001804
  23         4           6      0.001780    0.001625
  24         4           6      0.001027    0.000908
  25         5           5      0.000871    0.000785
  26         5           5      0.000922    0.000852
  27         5           5      0.000580    0.000530
  28         6           4      0.000531    0.000500
  29         6           4      0.000535    0.000516
  30         6           4      0.000311    0.000298
  31         7           3      0.000292    0.000282
  32         7           3      0.000207    0.000200
  33         7           3      0.000117    0.000112
  34         8           2      0.000100    0.000095
  35         9           1      0.000090    0.000086
  36         9           1      0.000055    0.000052
  37         9           1      0.000048    0.000044
  38         9           1      0.000043    0.000039
  39         9           1      0.000023    0.000020
  40         9           1      0.000019    0.000015
  41         9           1      0.000020    0.000016
  42         9           1      0.000013    0.000009
  43         9           1      0.000010    0.000006
  44         9           1      0.000010    0.000006
  45         9           1      0.000006    0.000003
  46         9           1      0.000005    0.000001
  47        10           0      0.000004    0.000001    Roots Converged
 ---------------------------------------------------
 
 Alpha MOs, Restricted
 -- Doubly Occupied --           
-21.103  -1.844  -1.189  -1.007
  1 A1    2 A1    1 B1    1 B2                                                 
 -- Singly Occupied (Occupied) --
 -1.175
  3 A1                                                                         
 -- Virtual --                   
 -0.182  -0.117  -0.028  -0.014  -0.010  -0.014   0.068   0.071
  4 A1    2 B1    5 A1    6 A1    2 B2    3 B1    4 B1    7 A1                 
  0.325   0.365   0.768   0.843   0.853   1.083   1.097   1.235
  5 B1    8 A1    9 A1    3 B2    6 B1    1 A2   10 A1   11 A1                 
  1.323   1.460   1.827   1.951   2.350   2.477   2.896   3.030
  4 B2    7 B1    8 B1   12 A1   13 A1    9 B1    5 B2    2 A2                 
  3.100   3.613   3.746   4.997   5.242   5.628  51.011
 14 A1   15 A1   10 B1    6 B2   16 A1   11 B1   17 A1                         
 
 Beta MOs, Restricted
 -- Doubly Occupied --           
-21.065  -1.719  -1.149  -0.959
  1 A1    2 A1    1 B1    1 B2                                                 
 -- Singly Occupied (Vacant) --  
 -0.344
  3 A1                                                                         
 -- Virtual --                   
 -0.172  -0.111  -0.004  -0.008  -0.007   0.002   0.071   0.075
  4 A1    2 B1    5 A1    6 A1    2 B2    3 B1    4 B1    7 A1                 
  0.356   0.381   0.854   0.858   0.867   1.092   1.144   1.274
  5 B1    8 A1    9 A1    3 B2    6 B1    1 A2   10 A1   11 A1                 
  1.351   1.475   1.871   1.972   2.364   2.486   2.993   3.053
  4 B2    7 B1    8 B1   12 A1   13 A1    9 B1    5 B2    2 A2                 
  3.209   3.644   3.815   5.017   5.351   5.648  51.036
 14 A1   15 A1   10 B1    6 B2   16 A1   11 B1   17 A1                         
   
**************************************************
 RAS-CI total energy for state   1:    -75.661143502799
  Excitation energy (eV) =  0.000000000000
  <S^2>      :  0.7500
  Dipole Moment:   -0.0000 X    -0.0000 Y     0.8702 Z
  Amplitudes : 
  
 | HOLE  | ALPHA | BETA  | PART  |    AMPLITUDE 
--------------------------------------------------
 |       | 11100 | 10100 |       |     9.9218359452523E-01
--------------------------------------------------
*** Contributions RASCI wfn    Active:  98.66
                                 Hole:   0.06
                                 Part:   1.28
Electronic state symmetry: B2    (C2v      )
  
**************************************************
 RAS-CI total energy for state   2:    -75.587557067235
  Excitation energy (eV) =  2.002388790056
  <S^2>      :  0.7500
  Dipole Moment:    0.0000 X    -0.0000 Y     0.7311 Z
  Trans. Moment:    0.0000 X     0.1252 Y     0.0000 Z
  Strength   :  0.000769
  Amplitudes : 
  
 | HOLE  | ALPHA | BETA  | PART  |    AMPLITUDE 
--------------------------------------------------
 |       | 11100 | 11000 |       |     9.9599242537678E-01
--------------------------------------------------
*** Contributions RASCI wfn    Active:  99.32
                                 Hole:   0.05
                                 Part:   0.63
Electronic state symmetry: A1    (C2v      )
  
**************************************************
 RAS-CI total energy for state   3:    -75.420289836350
  Excitation energy (eV) =  6.553961719219
  <S^2>      :  0.7500
  Dipole Moment:   -0.0000 X    -0.0000 Y     1.0591 Z
  Trans. Moment:   -0.0000 X     0.0000 Y     0.0000 Z
  Strength   :  0.000000
  Amplitudes : 
  
 | HOLE  | ALPHA | BETA  | PART  |    AMPLITUDE 
--------------------------------------------------
 |       | 11100 | 01100 |       |     9.8830362099219E-01
--------------------------------------------------
*** Contributions RASCI wfn    Active:  98.07
                                 Hole:   0.05
                                 Part:   1.88
Electronic state symmetry: B1    (C2v      )
  
**************************************************
 RAS-CI total energy for state   4:    -75.227661642005
  Excitation energy (eV) = 11.795641575695
  <S^2>      :  3.7500
  Dipole Moment:    0.0000 X    -0.0000 Y    -0.3402 Z
  Trans. Moment:    0.0000 X     0.0000 Y     0.0000 Z
  Strength   :  0.000000
  Amplitudes : 
  
 | HOLE  | ALPHA | BETA  | PART  |    AMPLITUDE 
--------------------------------------------------
 |       | 11100 | 10010 |       |     5.1452653872213E-01
 |       | 11010 | 10100 |       |    -5.1452634977386E-01
 |       | 10110 | 11000 |       |     5.1452637138585E-01
 |       | 10100 | 11000 |   8   |     1.3448394215237E-01
 |       | 10100 | 11000 |   9   |    -1.4137488355417E-01
 |       | 11000 | 10100 |   8   |    -1.3448353702406E-01
 |       | 11000 | 10100 |   9   |     1.4137623174708E-01
 |       | 11100 | 10000 |   8   |     1.3448361251798E-01
 |       | 11100 | 10000 |   9   |    -1.4137574922382E-01
--------------------------------------------------
*** Contributions RASCI wfn    Active:  80.17
                                 Hole:   0.10
                                 Part:  19.73
Electronic state symmetry: B2    (C2v      )
  
**************************************************
 RAS-CI total energy for state   5:    -75.181858458848
  Excitation energy (eV) = 13.042009602620
  <S^2>      :  0.7500
  Dipole Moment:    0.0000 X    -0.0000 Y    -0.3273 Z
  Trans. Moment:    0.0000 X     0.0000 Y    -0.4417 Z
  Strength   :  0.062335
  Amplitudes : 
  
 | HOLE  | ALPHA | BETA  | PART  |    AMPLITUDE 
--------------------------------------------------
 |       | 11100 | 10010 |       |     7.5597984191024E-01
 |       | 11010 | 10100 |       |     3.5107436840141E-01
 |       | 10110 | 11000 |       |    -4.0490417914935E-01
 |       | 11100 | 10000 |   8   |     1.2935909933032E-01
 |       | 11100 | 10000 |   9   |    -1.6096398273178E-01
--------------------------------------------------
*** Contributions RASCI wfn    Active:  86.92
                                 Hole:   0.24
                                 Part:  12.84
Electronic state symmetry: B2    (C2v      )
  
**************************************************
 RAS-CI total energy for state   6:    -75.162264819102
  Excitation energy (eV) = 13.575179666958
  <S^2>      :  0.7500
  Dipole Moment:    0.0000 X     0.0000 Y    -0.1930 Z
  Trans. Moment:    0.0000 X     0.2097 Y     0.0000 Z
  Strength   :  0.014626
  Amplitudes : 
  
 | HOLE  | ALPHA | BETA  | PART  |    AMPLITUDE 
--------------------------------------------------
 |       | 11010 | 11000 |       |    -2.2601054590777E-01
 |       | 10110 | 10100 |       |     8.5900058754655E-01
 |   2   | 11100 | 11100 |       |    -1.1209560317700E-01
 |       | 10100 | 10100 |   8   |     2.3292575908923E-01
 |       | 10100 | 10100 |   9   |    -2.3361051642863E-01
 |       | 10100 | 10100 |  13   |    -1.1781798134492E-01
 |       | 10100 | 10100 |  15   |    -1.4517222773164E-01
--------------------------------------------------
*** Contributions RASCI wfn    Active:  79.78
                                 Hole:   1.36
                                 Part:  18.85
Electronic state symmetry: A1    (C2v      )
  
**************************************************
 RAS-CI total energy for state   7:    -75.114454760933
  Excitation energy (eV) = 14.876157541431
  <S^2>      :  0.7500
  Dipole Moment:    0.0000 X     0.0000 Y    -0.2738 Z
  Trans. Moment:   -0.0000 X     0.0000 Y    -0.2540 Z
  Strength   :  0.023506
  Amplitudes : 
  
 | HOLE  | ALPHA | BETA  | PART  |    AMPLITUDE 
--------------------------------------------------
 |       | 11010 | 10100 |       |     6.5033933487371E-01
 |       | 10110 | 11000 |       |     6.1622167546545E-01
 |       | 10100 | 11000 |   8   |     1.6479780562454E-01
 |       | 10100 | 11000 |   9   |    -1.5439489397433E-01
 |       | 11000 | 10100 |   8   |     1.4078567998105E-01
 |       | 11000 | 10100 |   9   |    -1.7231308748602E-01
--------------------------------------------------
*** Contributions RASCI wfn    Active:  81.63
                                 Hole:   0.67
                                 Part:  17.70
Electronic state symmetry: B2    (C2v      )
  
**************************************************
 RAS-CI total energy for state   8:    -75.077917765843
  Excitation energy (eV) = 15.870379762273
  <S^2>      :  0.7500
  Dipole Moment:    0.0000 X    -0.0000 Y    -0.1915 Z
  Trans. Moment:   -0.0000 X     0.0000 Y     0.0000 Z
  Strength   :  0.000000
  Amplitudes : 
  
 | HOLE  | ALPHA | BETA  | PART  |    AMPLITUDE 
--------------------------------------------------
 |       | 11001 | 11000 |       |    -2.2892427600247E-01
 |       | 10101 | 10100 |       |     7.8350931876801E-01
 |       | 11000 | 11000 |  11   |    -1.1667118019769E-01
 |       | 10100 | 10100 |  11   |     4.1433206266724E-01
 |       | 10100 | 10100 |  12   |     2.4194321495013E-01
 |       | 10100 | 10100 |  14   |     1.9236526351279E-01
--------------------------------------------------
*** Contributions RASCI wfn    Active:  67.41
                                 Hole:   0.15
                                 Part:  32.44
Electronic state symmetry: B1    (C2v      )
  
**************************************************
 RAS-CI total energy for state   9:    -75.022530624099
  Excitation energy (eV) = 17.377540571057
  <S^2>      :  3.7500
  Dipole Moment:    0.0000 X    -0.0000 Y     0.2011 Z
  Trans. Moment:   -0.0000 X     0.0000 Y    -0.0000 Z
  Strength   :  0.000000
  Amplitudes : 
  
 | HOLE  | ALPHA | BETA  | PART  |    AMPLITUDE 
--------------------------------------------------
 |       | 11100 | 00101 |       |    -4.2388946540415E-01
 |       | 10101 | 01100 |       |     4.2389436002305E-01
 |       | 01101 | 10100 |       |    -4.2390121855286E-01
 |       | 01100 | 10100 |  11   |    -2.7701166140426E-01
 |       | 01100 | 10100 |  12   |    -1.5122720289613E-01
 |       | 01100 | 10100 |  14   |    -1.4557490368091E-01
 |       | 10100 | 01100 |  11   |     2.7701726651842E-01
 |       | 10100 | 01100 |  12   |     1.5121603243346E-01
 |       | 10100 | 01100 |  14   |     1.4558068612436E-01
 |       | 11100 | 00100 |  11   |    -2.7702426751724E-01
 |       | 11100 | 00100 |  12   |    -1.5122607612458E-01
 |       | 11100 | 00100 |  14   |    -1.4557577415982E-01
--------------------------------------------------
*** Contributions RASCI wfn    Active:  55.95
                                 Hole:   0.74
                                 Part:  43.31
Electronic state symmetry: B2    (C2v      )
  
**************************************************
 RAS-CI total energy for state  10:    -74.997581610024
  Excitation energy (eV) = 18.056437785269
  <S^2>      :  0.7500
  Dipole Moment:    0.0000 X    -0.0000 Y    -0.2733 Z
  Trans. Moment:    0.0000 X    -0.0622 Y    -0.0000 Z
  Strength   :  0.001710
  Amplitudes : 
  
 | HOLE  | ALPHA | BETA  | PART  |    AMPLITUDE 
--------------------------------------------------
 |       | 11100 | 01001 |       |    -1.0254594899672E-01
 |       | 11010 | 11000 |       |    -8.4124378121724E-01
 |       | 10110 | 10100 |       |    -1.9207478077397E-01
 |       | 01110 | 01100 |       |     1.7492002547458E-01
 |   2   | 11010 | 11100 |       |    -1.1357528943775E-01
 |       | 11000 | 11000 |   8   |    -1.8405062197616E-01
 |       | 11000 | 11000 |   9   |     2.1052216389212E-01
 |       | 11000 | 11000 |  15   |     1.1707438065972E-01
--------------------------------------------------
*** Contributions RASCI wfn    Active:  79.80
                                 Hole:   2.68
                                 Part:  17.52
Electronic state symmetry: A1    (C2v      )
  
--------------------------------------------------
 Interstate Transition Properties
--------------------------------------------------
State A: Root  1
State B: Root  2
  
Angular momentum components
< B | Lx | A > =    -0.967248717i
< B | Ly | A > =     0.000000000i
< B | Lz | A > =    -0.000000000i
  
KET: S',Sz' (Root   1) =  0.500 0.500
BRA: S ,Sz  (Root   1) =  0.500 0.500
  
Spin Matrices
Sx matrix: < B(S,Sz) | Sx | A(S',Sz') >
                     |Sz'=-0.50>              |Sz'= 0.50>
 <Sz=-0.50|    0.000000    0.000000i     0.500000    0.000000i
 <Sz= 0.50|    0.500000    0.000000i     0.000000    0.000000i
Sy matrix: < B(S,Sz) | Sy | A(S',Sz') >
                     |Sz'=-0.50>              |Sz'= 0.50>
 <Sz=-0.50|    0.000000    0.000000i     0.000000    0.500000i
 <Sz= 0.50|    0.000000   -0.500000i     0.000000    0.000000i
Sz matrix: < B(S,Sz) | Sz | A(S',Sz') >
                     |Sz'=-0.50>              |Sz'= 0.50>
 <Sz=-0.50|   -0.500000    0.000000i     0.000000    0.000000i
 <Sz= 0.50|    0.000000    0.000000i     0.500000    0.000000i
  
Norm of one-particle transition density matrix
||gamma^AB||_total       =  0.995641
||gamma^AB||_symmetrized =  0.705390
||gamma^AB||_anti-symm   =  0.702656
  
Spin-orbit couplings
 Using HF (reference) density for the 2-elec mean-field SOC contribution
KET: S',Sz' (Root   1) =  0.500 0.500
BRA: S ,Sz  (Root   2) =  0.500 0.500
Natural Transition Orbitals stored in FCHK
 1e Reduced matrix elements (cm-1)
<S|| Hso(L-) ||S'> =    -0.0000000000   124.9626288415
<S|| Hso(L0) ||S'> =     0.0000000000    -0.0000000000
<S|| Hso(L+) ||S'> =    -0.0000000000  -124.9626288415
 1-elec SOC matrix (cm-1): < B(S,Sz) | Hso(1e) | A(S',Sz') >
                     |Sz'=-0.50>              |Sz'= 0.50>
 <Sz=-0.50|    0.000000   -0.000000i     0.000000  102.031559i
 <Sz= 0.50|   -0.000000  102.031559i    -0.000000    0.000000i
1-elec SOCC =   144.294414801 cm-1
 Averagin spin alpha/beta reference densities
 2e-SOMF Reduced matrix elements (cm-1)
<S|| Hso(L-) ||S'> =     0.0000000000   -45.7507551271
<S|| Hso(L0) ||S'> =     0.0000000000     0.0000000000
<S|| Hso(L+) ||S'> =     0.0000000000    45.7507551271
 2-elec mean-field SOC matrix (cm-1): < B(S,Sz) | Hso(2e-mf) | A(S',Sz') >
                     |Sz'=-0.50>              |Sz'= 0.50>
 <Sz=-0.50|    0.000000    0.000000i    -0.000000  -37.355335i
 <Sz= 0.50|    0.000000  -37.355335i     0.000000   -0.000000i
 Total mean-field SOC matrix (cm-1): < B(S,Sz) | Hsomf | A(S',Sz') >
                     |Sz'=-0.50>              |Sz'= 0.50>
 <Sz=-0.50|    0.000000   -0.000000i     0.000000   64.676224i
 <Sz= 0.50|   -0.000000   64.676224i    -0.000000    0.000000i
Mean-Field SOCC =    91.465993224 cm-1
   
**************************************************
State A: Root  1
State B: Root  3
  
Angular momentum components
< B | Lx | A > =    -0.000000000i
< B | Ly | A > =    -0.000000000i
< B | Lz | A > =     0.972570936i
  
KET: S',Sz' (Root   1) =  0.500 0.500
BRA: S ,Sz  (Root   1) =  0.500 0.500
  
Spin Matrices
Sx matrix: < B(S,Sz) | Sx | A(S',Sz') >
                     |Sz'=-0.50>              |Sz'= 0.50>
 <Sz=-0.50|    0.000000    0.000000i     0.500000    0.000000i
 <Sz= 0.50|    0.500000    0.000000i     0.000000    0.000000i
Sy matrix: < B(S,Sz) | Sy | A(S',Sz') >
                     |Sz'=-0.50>              |Sz'= 0.50>
 <Sz=-0.50|    0.000000    0.000000i     0.000000    0.500000i
 <Sz= 0.50|    0.000000   -0.500000i     0.000000    0.000000i
Sz matrix: < B(S,Sz) | Sz | A(S',Sz') >
                     |Sz'=-0.50>              |Sz'= 0.50>
 <Sz=-0.50|   -0.500000    0.000000i     0.000000    0.000000i
 <Sz= 0.50|    0.000000    0.000000i     0.500000    0.000000i
  
Norm of one-particle transition density matrix
||gamma^AB||_total       =  0.992641
||gamma^AB||_symmetrized =  0.703590
||gamma^AB||_anti-symm   =  0.700212
  
Spin-orbit couplings
 Using HF (reference) density for the 2-elec mean-field SOC contribution
KET: S',Sz' (Root   1) =  0.500 0.500
BRA: S ,Sz  (Root   3) =  0.500 0.500
Natural Transition Orbitals stored in FCHK
 1e Reduced matrix elements (cm-1)
<S|| Hso(L-) ||S'> =     0.0000000000     0.0000000000
<S|| Hso(L0) ||S'> =     0.0000000000   155.0425388911
<S|| Hso(L+) ||S'> =     0.0000000000    -0.0000000000
 1-elec SOC matrix (cm-1): < B(S,Sz) | Hso(1e) | A(S',Sz') >
                     |Sz'=-0.50>              |Sz'= 0.50>
 <Sz=-0.50|    0.000000   89.513852i    -0.000000    0.000000i
 <Sz= 0.50|    0.000000    0.000000i     0.000000  -89.513852i
1-elec SOCC =   126.591702903 cm-1
 2e-SOMF Reduced matrix elements (cm-1)
<S|| Hso(L-) ||S'> =    -0.0000000000    -0.0000000000
<S|| Hso(L0) ||S'> =     0.0000000000   -54.8003939565
<S|| Hso(L+) ||S'> =    -0.0000000000     0.0000000000
 2-elec mean-field SOC matrix (cm-1): < B(S,Sz) | Hso(2e-mf) | A(S',Sz') >
                     |Sz'=-0.50>              |Sz'= 0.50>
 <Sz=-0.50|    0.000000  -31.639022i     0.000000   -0.000000i
 <Sz= 0.50|   -0.000000   -0.000000i    -0.000000   31.639022i
 Total mean-field SOC matrix (cm-1): < B(S,Sz) | Hsomf | A(S',Sz') >
                     |Sz'=-0.50>              |Sz'= 0.50>
 <Sz=-0.50|    0.000000   57.874829i    -0.000000    0.000000i
 <Sz= 0.50|    0.000000    0.000000i     0.000000  -57.874829i
Mean-Field SOCC =    81.847368604 cm-1
   
**************************************************
State A: Root  1
State B: Root  4
  
Angular momentum components
< B | Lx | A > =     0.000000000i
< B | Ly | A > =     0.000000000i
< B | Lz | A > =     0.000000000i
  
Spin matrices Sx, Sy and Sz for states with different spin are null
  
Norm of one-particle transition density matrix
||gamma^AB||_total       =  0.799245
||gamma^AB||_symmetrized =  0.575636
||gamma^AB||_anti-symm   =  0.554469
  
Spin-orbit couplings
 Using HF (reference) density for the 2-elec mean-field SOC contribution
KET: S',Sz' (Root   1) =  0.500 0.500
BRA: S ,Sz  (Root   4) =  1.500 0.500
Natural Transition Orbitals stored in FCHK
 1e Reduced matrix elements (cm-1)
<S|| Hso(L-) ||S'> =     0.0000000000     0.0000000000
<S|| Hso(L0) ||S'> =     0.0000000000     0.0000000000
<S|| Hso(L+) ||S'> =     0.0000000000    -0.0000000000
 1-elec SOC matrix (cm-1): < B(S,Sz) | Hso(1e) | A(S',Sz') >
                     |Sz'=-0.50>              |Sz'= 0.50>
 <Sz=-1.50|    0.000000   -0.000000i     0.000000    0.000000i
 <Sz=-0.50|   -0.000000    0.000000i     0.000000   -0.000000i
 <Sz= 0.50|    0.000000    0.000000i     0.000000    0.000000i
 <Sz= 1.50|    0.000000    0.000000i     0.000000    0.000000i
1-elec SOCC =     0.000000000 cm-1
 2e-SOMF Reduced matrix elements (cm-1)
<S|| Hso(L-) ||S'> =    -0.0000000000    -0.0000000000
<S|| Hso(L0) ||S'> =     0.0000000000    -0.0000000000
<S|| Hso(L+) ||S'> =    -0.0000000000     0.0000000000
 2-elec mean-field SOC matrix (cm-1): < B(S,Sz) | Hso(2e-mf) | A(S',Sz') >
                     |Sz'=-0.50>              |Sz'= 0.50>
 <Sz=-1.50|   -0.000000    0.000000i     0.000000    0.000000i
 <Sz=-0.50|    0.000000   -0.000000i    -0.000000    0.000000i
 <Sz= 0.50|   -0.000000   -0.000000i    -0.000000   -0.000000i
 <Sz= 1.50|    0.000000    0.000000i    -0.000000   -0.000000i
 Total mean-field SOC matrix (cm-1): < B(S,Sz) | Hsomf | A(S',Sz') >
                     |Sz'=-0.50>              |Sz'= 0.50>
 <Sz=-1.50|    0.000000   -0.000000i     0.000000    0.000000i
 <Sz=-0.50|   -0.000000    0.000000i     0.000000   -0.000000i
 <Sz= 0.50|    0.000000    0.000000i     0.000000    0.000000i
 <Sz= 1.50|    0.000000    0.000000i     0.000000    0.000000i
Mean-Field SOCC =     0.000000000 cm-1
   
**************************************************
State A: Root  1
State B: Root  5
  
Angular momentum components
< B | Lx | A > =    -0.000000000i
< B | Ly | A > =     0.000000000i
< B | Lz | A > =    -0.000000000i
  
KET: S',Sz' (Root   1) =  0.500 0.500
BRA: S ,Sz  (Root   1) =  0.500 0.500
  
Spin Matrices
Sx matrix: < B(S,Sz) | Sx | A(S',Sz') >
                     |Sz'=-0.50>              |Sz'= 0.50>
 <Sz=-0.50|    0.000000    0.000000i     0.500000    0.000000i
 <Sz= 0.50|    0.500000    0.000000i     0.000000    0.000000i
Sy matrix: < B(S,Sz) | Sy | A(S',Sz') >
                     |Sz'=-0.50>              |Sz'= 0.50>
 <Sz=-0.50|    0.000000    0.000000i     0.000000    0.500000i
 <Sz= 0.50|    0.000000   -0.500000i     0.000000    0.000000i
Sz matrix: < B(S,Sz) | Sz | A(S',Sz') >
                     |Sz'=-0.50>              |Sz'= 0.50>
 <Sz=-0.50|   -0.500000    0.000000i     0.000000    0.000000i
 <Sz= 0.50|    0.000000    0.000000i     0.500000    0.000000i
  
Norm of one-particle transition density matrix
||gamma^AB||_total       =  0.874903
||gamma^AB||_symmetrized =  0.614759
||gamma^AB||_anti-symm   =  0.622516
  
Spin-orbit couplings
 Using HF (reference) density for the 2-elec mean-field SOC contribution
KET: S',Sz' (Root   1) =  0.500 0.500
BRA: S ,Sz  (Root   5) =  0.500 0.500
Natural Transition Orbitals stored in FCHK
 1e Reduced matrix elements (cm-1)
<S|| Hso(L-) ||S'> =    -0.0000000000    -0.0000000000
<S|| Hso(L0) ||S'> =     0.0000000000    -0.0000000000
<S|| Hso(L+) ||S'> =    -0.0000000000     0.0000000000
 1-elec SOC matrix (cm-1): < B(S,Sz) | Hso(1e) | A(S',Sz') >
                     |Sz'=-0.50>              |Sz'= 0.50>
 <Sz=-0.50|    0.000000   -0.000000i     0.000000   -0.000000i
 <Sz= 0.50|   -0.000000   -0.000000i    -0.000000    0.000000i
1-elec SOCC =     0.000000000 cm-1
 2e-SOMF Reduced matrix elements (cm-1)
<S|| Hso(L-) ||S'> =     0.0000000000     0.0000000000
<S|| Hso(L0) ||S'> =     0.0000000000     0.0000000000
<S|| Hso(L+) ||S'> =     0.0000000000    -0.0000000000
 2-elec mean-field SOC matrix (cm-1): < B(S,Sz) | Hso(2e-mf) | A(S',Sz') >
                     |Sz'=-0.50>              |Sz'= 0.50>
 <Sz=-0.50|    0.000000    0.000000i    -0.000000    0.000000i
 <Sz= 0.50|    0.000000    0.000000i     0.000000   -0.000000i
 Total mean-field SOC matrix (cm-1): < B(S,Sz) | Hsomf | A(S',Sz') >
                     |Sz'=-0.50>              |Sz'= 0.50>
 <Sz=-0.50|    0.000000   -0.000000i     0.000000   -0.000000i
 <Sz= 0.50|   -0.000000   -0.000000i    -0.000000    0.000000i
Mean-Field SOCC =     0.000000000 cm-1
   
**************************************************
State A: Root  1
State B: Root  6
  
Angular momentum components
< B | Lx | A > =     0.130082568i
< B | Ly | A > =     0.000000000i
< B | Lz | A > =     0.000000000i
  
KET: S',Sz' (Root   1) =  0.500 0.500
BRA: S ,Sz  (Root   1) =  0.500 0.500
  
Spin Matrices
Sx matrix: < B(S,Sz) | Sx | A(S',Sz') >
                     |Sz'=-0.50>              |Sz'= 0.50>
 <Sz=-0.50|    0.000000    0.000000i     0.500000    0.000000i
 <Sz= 0.50|    0.500000    0.000000i     0.000000    0.000000i
Sy matrix: < B(S,Sz) | Sy | A(S',Sz') >
                     |Sz'=-0.50>              |Sz'= 0.50>
 <Sz=-0.50|    0.000000    0.000000i     0.000000    0.500000i
 <Sz= 0.50|    0.000000   -0.500000i     0.000000    0.000000i
Sz matrix: < B(S,Sz) | Sz | A(S',Sz') >
                     |Sz'=-0.50>              |Sz'= 0.50>
 <Sz=-0.50|   -0.500000    0.000000i     0.000000    0.000000i
 <Sz= 0.50|    0.000000    0.000000i     0.500000    0.000000i
  
Norm of one-particle transition density matrix
||gamma^AB||_total       =  0.942107
||gamma^AB||_symmetrized =  0.668491
||gamma^AB||_anti-symm   =  0.663841
  
Spin-orbit couplings
 Using HF (reference) density for the 2-elec mean-field SOC contribution
KET: S',Sz' (Root   1) =  0.500 0.500
BRA: S ,Sz  (Root   6) =  0.500 0.500
Natural Transition Orbitals stored in FCHK
 1e Reduced matrix elements (cm-1)
<S|| Hso(L-) ||S'> =    -0.0000000000    51.9373978102
<S|| Hso(L0) ||S'> =     0.0000000000    -0.0000000000
<S|| Hso(L+) ||S'> =    -0.0000000000   -51.9373978102
 1-elec SOC matrix (cm-1): < B(S,Sz) | Hso(1e) | A(S',Sz') >
                     |Sz'=-0.50>              |Sz'= 0.50>
 <Sz=-0.50|    0.000000   -0.000000i     0.000000   42.406708i
 <Sz= 0.50|   -0.000000   42.406708i    -0.000000    0.000000i
1-elec SOCC =    59.972141213 cm-1
 2e-SOMF Reduced matrix elements (cm-1)
<S|| Hso(L-) ||S'> =     0.0000000000   -17.4448576792
<S|| Hso(L0) ||S'> =     0.0000000000     0.0000000000
<S|| Hso(L+) ||S'> =     0.0000000000    17.4448576792
 2-elec mean-field SOC matrix (cm-1): < B(S,Sz) | Hso(2e-mf) | A(S',Sz') >
                     |Sz'=-0.50>              |Sz'= 0.50>
 <Sz=-0.50|    0.000000    0.000000i    -0.000000  -14.243667i
 <Sz= 0.50|    0.000000  -14.243667i     0.000000   -0.000000i
 Total mean-field SOC matrix (cm-1): < B(S,Sz) | Hsomf | A(S',Sz') >
                     |Sz'=-0.50>              |Sz'= 0.50>
 <Sz=-0.50|    0.000000   -0.000000i     0.000000   28.163041i
 <Sz= 0.50|   -0.000000   28.163041i    -0.000000    0.000000i
Mean-Field SOCC =    39.828554659 cm-1
   
**************************************************
State A: Root  1
State B: Root  7
  
Angular momentum components
< B | Lx | A > =     0.000000000i
< B | Ly | A > =    -0.000000000i
< B | Lz | A > =     0.000000000i
  
KET: S',Sz' (Root   1) =  0.500 0.500
BRA: S ,Sz  (Root   1) =  0.500 0.500
  
Spin Matrices
Sx matrix: < B(S,Sz) | Sx | A(S',Sz') >
                     |Sz'=-0.50>              |Sz'= 0.50>
 <Sz=-0.50|    0.000000    0.000000i     0.500000    0.000000i
 <Sz= 0.50|    0.500000    0.000000i     0.000000    0.000000i
Sy matrix: < B(S,Sz) | Sy | A(S',Sz') >
                     |Sz'=-0.50>              |Sz'= 0.50>
 <Sz=-0.50|    0.000000    0.000000i     0.000000    0.500000i
 <Sz= 0.50|    0.000000   -0.500000i     0.000000    0.000000i
Sz matrix: < B(S,Sz) | Sz | A(S',Sz') >
                     |Sz'=-0.50>              |Sz'= 0.50>
 <Sz=-0.50|   -0.500000    0.000000i     0.000000    0.000000i
 <Sz= 0.50|    0.000000    0.000000i     0.500000    0.000000i
  
Norm of one-particle transition density matrix
||gamma^AB||_total       =  0.706259
||gamma^AB||_symmetrized =  0.501658
||gamma^AB||_anti-symm   =  0.497133
  
Spin-orbit couplings
 Using HF (reference) density for the 2-elec mean-field SOC contribution
KET: S',Sz' (Root   1) =  0.500 0.500
BRA: S ,Sz  (Root   7) =  0.500 0.500
Natural Transition Orbitals stored in FCHK
 1e Reduced matrix elements (cm-1)
<S|| Hso(L-) ||S'> =    -0.0000000000     0.0000000000
<S|| Hso(L0) ||S'> =     0.0000000000     0.0000000000
<S|| Hso(L+) ||S'> =    -0.0000000000    -0.0000000000
 1-elec SOC matrix (cm-1): < B(S,Sz) | Hso(1e) | A(S',Sz') >
                     |Sz'=-0.50>              |Sz'= 0.50>
 <Sz=-0.50|    0.000000    0.000000i     0.000000    0.000000i
 <Sz= 0.50|   -0.000000    0.000000i    -0.000000   -0.000000i
1-elec SOCC =     0.000000000 cm-1
 2e-SOMF Reduced matrix elements (cm-1)
<S|| Hso(L-) ||S'> =     0.0000000000    -0.0000000000
<S|| Hso(L0) ||S'> =     0.0000000000    -0.0000000000
<S|| Hso(L+) ||S'> =     0.0000000000     0.0000000000
 2-elec mean-field SOC matrix (cm-1): < B(S,Sz) | Hso(2e-mf) | A(S',Sz') >
                     |Sz'=-0.50>              |Sz'= 0.50>
 <Sz=-0.50|    0.000000   -0.000000i    -0.000000   -0.000000i
 <Sz= 0.50|    0.000000   -0.000000i     0.000000    0.000000i
 Total mean-field SOC matrix (cm-1): < B(S,Sz) | Hsomf | A(S',Sz') >
                     |Sz'=-0.50>              |Sz'= 0.50>
 <Sz=-0.50|    0.000000    0.000000i     0.000000    0.000000i
 <Sz= 0.50|   -0.000000    0.000000i    -0.000000   -0.000000i
Mean-Field SOCC =     0.000000000 cm-1
   
**************************************************
State A: Root  1
State B: Root  8
  
Angular momentum components
< B | Lx | A > =    -0.000000000i
< B | Ly | A > =    -0.000000000i
< B | Lz | A > =    -0.130775677i
  
KET: S',Sz' (Root   1) =  0.500 0.500
BRA: S ,Sz  (Root   1) =  0.500 0.500
  
Spin Matrices
Sx matrix: < B(S,Sz) | Sx | A(S',Sz') >
                     |Sz'=-0.50>              |Sz'= 0.50>
 <Sz=-0.50|    0.000000    0.000000i     0.500000    0.000000i
 <Sz= 0.50|    0.500000    0.000000i     0.000000    0.000000i
Sy matrix: < B(S,Sz) | Sy | A(S',Sz') >
                     |Sz'=-0.50>              |Sz'= 0.50>
 <Sz=-0.50|    0.000000    0.000000i     0.000000    0.500000i
 <Sz= 0.50|    0.000000   -0.500000i     0.000000    0.000000i
Sz matrix: < B(S,Sz) | Sz | A(S',Sz') >
                     |Sz'=-0.50>              |Sz'= 0.50>
 <Sz=-0.50|   -0.500000    0.000000i     0.000000    0.000000i
 <Sz= 0.50|    0.000000    0.000000i     0.500000    0.000000i
  
Norm of one-particle transition density matrix
||gamma^AB||_total       =  0.937581
||gamma^AB||_symmetrized =  0.661963
||gamma^AB||_anti-symm   =  0.663976
  
Spin-orbit couplings
 Using HF (reference) density for the 2-elec mean-field SOC contribution
KET: S',Sz' (Root   1) =  0.500 0.500
BRA: S ,Sz  (Root   8) =  0.500 0.500
Natural Transition Orbitals stored in FCHK
 1e Reduced matrix elements (cm-1)
<S|| Hso(L-) ||S'> =     0.0000000000     0.0000000000
<S|| Hso(L0) ||S'> =     0.0000000000   130.1751165920
<S|| Hso(L+) ||S'> =     0.0000000000    -0.0000000000
 1-elec SOC matrix (cm-1): < B(S,Sz) | Hso(1e) | A(S',Sz') >
                     |Sz'=-0.50>              |Sz'= 0.50>
 <Sz=-0.50|    0.000000   75.156639i    -0.000000    0.000000i
 <Sz= 0.50|    0.000000    0.000000i     0.000000  -75.156639i
1-elec SOCC =   106.287537619 cm-1
 2e-SOMF Reduced matrix elements (cm-1)
<S|| Hso(L-) ||S'> =    -0.0000000000    -0.0000000000
<S|| Hso(L0) ||S'> =     0.0000000000   -42.5161258572
<S|| Hso(L+) ||S'> =    -0.0000000000     0.0000000000
 2-elec mean-field SOC matrix (cm-1): < B(S,Sz) | Hso(2e-mf) | A(S',Sz') >
                     |Sz'=-0.50>              |Sz'= 0.50>
 <Sz=-0.50|    0.000000  -24.546697i     0.000000   -0.000000i
 <Sz= 0.50|   -0.000000   -0.000000i    -0.000000   24.546697i
 Total mean-field SOC matrix (cm-1): < B(S,Sz) | Hsomf | A(S',Sz') >
                     |Sz'=-0.50>              |Sz'= 0.50>
 <Sz=-0.50|    0.000000   50.609942i    -0.000000    0.000000i
 <Sz= 0.50|    0.000000    0.000000i     0.000000  -50.609942i
Mean-Field SOCC =    71.573266223 cm-1
   
**************************************************
State A: Root  1
State B: Root  9
  
Angular momentum components
< B | Lx | A > =     0.000000000i
< B | Ly | A > =    -0.000000000i
< B | Lz | A > =     0.000000000i
  
Spin matrices Sx, Sy and Sz for states with different spin are null
  
Norm of one-particle transition density matrix
||gamma^AB||_total       =  0.807275
||gamma^AB||_symmetrized =  0.588026
||gamma^AB||_anti-symm   =  0.553099
  
Spin-orbit couplings
 Using HF (reference) density for the 2-elec mean-field SOC contribution
KET: S',Sz' (Root   1) =  0.500 0.500
BRA: S ,Sz  (Root   9) =  1.500 0.500
Natural Transition Orbitals stored in FCHK
 1e Reduced matrix elements (cm-1)
<S|| Hso(L-) ||S'> =     0.0000000004     0.0000000000
<S|| Hso(L0) ||S'> =     0.0000000000    -0.0000000000
<S|| Hso(L+) ||S'> =     0.0000000004    -0.0000000000
 1-elec SOC matrix (cm-1): < B(S,Sz) | Hso(1e) | A(S',Sz') >
                     |Sz'=-0.50>              |Sz'= 0.50>
 <Sz=-1.50|    0.000000   -0.000000i     0.000000    0.000000i
 <Sz=-0.50|   -0.000000   -0.000000i     0.000000   -0.000000i
 <Sz= 0.50|    0.000000    0.000000i     0.000000   -0.000000i
 <Sz= 1.50|    0.000000    0.000000i     0.000000    0.000000i
1-elec SOCC =     0.000000001 cm-1
 2e-SOMF Reduced matrix elements (cm-1)
<S|| Hso(L-) ||S'> =    -0.0000000001    -0.0000000000
<S|| Hso(L0) ||S'> =     0.0000000000     0.0000000000
<S|| Hso(L+) ||S'> =    -0.0000000001     0.0000000000
 2-elec mean-field SOC matrix (cm-1): < B(S,Sz) | Hso(2e-mf) | A(S',Sz') >
                     |Sz'=-0.50>              |Sz'= 0.50>
 <Sz=-1.50|   -0.000000    0.000000i     0.000000    0.000000i
 <Sz=-0.50|    0.000000    0.000000i    -0.000000    0.000000i
 <Sz= 0.50|   -0.000000   -0.000000i    -0.000000    0.000000i
 <Sz= 1.50|    0.000000    0.000000i    -0.000000   -0.000000i
 Total mean-field SOC matrix (cm-1): < B(S,Sz) | Hsomf | A(S',Sz') >
                     |Sz'=-0.50>              |Sz'= 0.50>
 <Sz=-1.50|    0.000000   -0.000000i     0.000000    0.000000i
 <Sz=-0.50|   -0.000000    0.000000i     0.000000   -0.000000i
 <Sz= 0.50|    0.000000    0.000000i     0.000000    0.000000i
 <Sz= 1.50|    0.000000    0.000000i     0.000000    0.000000i
Mean-Field SOCC =     0.000000000 cm-1
   
**************************************************
State A: Root  1
State B: Root 10
  
Angular momentum components
< B | Lx | A > =    -0.038739359i
< B | Ly | A > =     0.000000000i
< B | Lz | A > =     0.000000000i
  
KET: S',Sz' (Root   1) =  0.500 0.500
BRA: S ,Sz  (Root   1) =  0.500 0.500
  
Spin Matrices
Sx matrix: < B(S,Sz) | Sx | A(S',Sz') >
                     |Sz'=-0.50>              |Sz'= 0.50>
 <Sz=-0.50|    0.000000    0.000000i     0.500000    0.000000i
 <Sz= 0.50|    0.500000    0.000000i     0.000000    0.000000i
Sy matrix: < B(S,Sz) | Sy | A(S',Sz') >
                     |Sz'=-0.50>              |Sz'= 0.50>
 <Sz=-0.50|    0.000000    0.000000i     0.000000    0.500000i
 <Sz= 0.50|    0.000000   -0.500000i     0.000000    0.000000i
Sz matrix: < B(S,Sz) | Sz | A(S',Sz') >
                     |Sz'=-0.50>              |Sz'= 0.50>
 <Sz=-0.50|   -0.500000    0.000000i     0.000000    0.000000i
 <Sz= 0.50|    0.000000    0.000000i     0.500000    0.000000i
  
Norm of one-particle transition density matrix
||gamma^AB||_total       =  0.241556
||gamma^AB||_symmetrized =  0.171782
||gamma^AB||_anti-symm   =  0.169825
  
Spin-orbit couplings
 Using HF (reference) density for the 2-elec mean-field SOC contribution
KET: S',Sz' (Root   1) =  0.500 0.500
BRA: S ,Sz  (Root  10) =  0.500 0.500
Natural Transition Orbitals stored in FCHK
 1e Reduced matrix elements (cm-1)
<S|| Hso(L-) ||S'> =    -0.0000000000   -22.2802836478
<S|| Hso(L0) ||S'> =     0.0000000000     0.0000000000
<S|| Hso(L+) ||S'> =    -0.0000000000    22.2802836478
 1-elec SOC matrix (cm-1): < B(S,Sz) | Hso(1e) | A(S',Sz') >
                     |Sz'=-0.50>              |Sz'= 0.50>
 <Sz=-0.50|    0.000000    0.000000i     0.000000  -18.191775i
 <Sz= 0.50|   -0.000000  -18.191775i    -0.000000   -0.000000i
1-elec SOCC =    25.727055523 cm-1
 2e-SOMF Reduced matrix elements (cm-1)
<S|| Hso(L-) ||S'> =     0.0000000000     7.5220009299
<S|| Hso(L0) ||S'> =     0.0000000000    -0.0000000000
<S|| Hso(L+) ||S'> =     0.0000000000    -7.5220009299
 2-elec mean-field SOC matrix (cm-1): < B(S,Sz) | Hso(2e-mf) | A(S',Sz') >
                     |Sz'=-0.50>              |Sz'= 0.50>
 <Sz=-0.50|    0.000000   -0.000000i    -0.000000    6.141688i
 <Sz= 0.50|    0.000000    6.141688i     0.000000    0.000000i
 Total mean-field SOC matrix (cm-1): < B(S,Sz) | Hsomf | A(S',Sz') >
                     |Sz'=-0.50>              |Sz'= 0.50>
 <Sz=-0.50|    0.000000    0.000000i     0.000000  -12.050087i
 <Sz= 0.50|   -0.000000  -12.050087i    -0.000000   -0.000000i
Mean-Field SOCC =    17.041397000 cm-1
   
**************************************************
State A: Root  2
State B: Root  1
  
Angular momentum components
< B | Lx | A > =     0.967248717i
< B | Ly | A > =    -0.000000000i
< B | Lz | A > =     0.000000000i
  
KET: S',Sz' (Root   1) =  0.500 0.500
BRA: S ,Sz  (Root   1) =  0.500 0.500
  
Spin Matrices
Sx matrix: < B(S,Sz) | Sx | A(S',Sz') >
                     |Sz'=-0.50>              |Sz'= 0.50>
 <Sz=-0.50|    0.000000    0.000000i     0.500000    0.000000i
 <Sz= 0.50|    0.500000    0.000000i     0.000000    0.000000i
Sy matrix: < B(S,Sz) | Sy | A(S',Sz') >
                     |Sz'=-0.50>              |Sz'= 0.50>
 <Sz=-0.50|    0.000000    0.000000i     0.000000    0.500000i
 <Sz= 0.50|    0.000000   -0.500000i     0.000000    0.000000i
Sz matrix: < B(S,Sz) | Sz | A(S',Sz') >
                     |Sz'=-0.50>              |Sz'= 0.50>
 <Sz=-0.50|   -0.500000    0.000000i     0.000000    0.000000i
 <Sz= 0.50|    0.000000    0.000000i     0.500000    0.000000i
  
Norm of one-particle transition density matrix
||gamma^AB||_total       =  0.995641
||gamma^AB||_symmetrized =  0.705390
||gamma^AB||_anti-symm   =  0.702656
  
Spin-orbit couplings
 Using HF (reference) density for the 2-elec mean-field SOC contribution
KET: S',Sz' (Root   2) =  0.500 0.500
BRA: S ,Sz  (Root   1) =  0.500 0.500
Natural Transition Orbitals stored in FCHK
 1e Reduced matrix elements (cm-1)
<S|| Hso(L-) ||S'> =     0.0000000000  -124.9626288415
<S|| Hso(L0) ||S'> =     0.0000000000     0.0000000000
<S|| Hso(L+) ||S'> =     0.0000000000   124.9626288415
 1-elec SOC matrix (cm-1): < B(S,Sz) | Hso(1e) | A(S',Sz') >
                     |Sz'=-0.50>              |Sz'= 0.50>
 <Sz=-0.50|    0.000000    0.000000i    -0.000000 -102.031559i
 <Sz= 0.50|    0.000000 -102.031559i     0.000000   -0.000000i
1-elec SOCC =   144.294414801 cm-1
 2e-SOMF Reduced matrix elements (cm-1)
<S|| Hso(L-) ||S'> =    -0.0000000000    45.7507551271
<S|| Hso(L0) ||S'> =     0.0000000000    -0.0000000000
<S|| Hso(L+) ||S'> =    -0.0000000000   -45.7507551271
 2-elec mean-field SOC matrix (cm-1): < B(S,Sz) | Hso(2e-mf) | A(S',Sz') >
                     |Sz'=-0.50>              |Sz'= 0.50>
 <Sz=-0.50|    0.000000   -0.000000i     0.000000   37.355335i
 <Sz= 0.50|   -0.000000   37.355335i    -0.000000    0.000000i
 Total mean-field SOC matrix (cm-1): < B(S,Sz) | Hsomf | A(S',Sz') >
                     |Sz'=-0.50>              |Sz'= 0.50>
 <Sz=-0.50|    0.000000    0.000000i    -0.000000  -64.676224i
 <Sz= 0.50|    0.000000  -64.676224i     0.000000   -0.000000i
Mean-Field SOCC =    91.465993224 cm-1
   
**************************************************
State A: Root  2
State B: Root  3
  
Angular momentum components
< B | Lx | A > =     0.000000000i
< B | Ly | A > =     0.923643670i
< B | Lz | A > =     0.000000000i
  
KET: S',Sz' (Root   1) =  0.500 0.500
BRA: S ,Sz  (Root   1) =  0.500 0.500
  
Spin Matrices
Sx matrix: < B(S,Sz) | Sx | A(S',Sz') >
                     |Sz'=-0.50>              |Sz'= 0.50>
 <Sz=-0.50|    0.000000    0.000000i     0.500000    0.000000i
 <Sz= 0.50|    0.500000    0.000000i     0.000000    0.000000i
Sy matrix: < B(S,Sz) | Sy | A(S',Sz') >
                     |Sz'=-0.50>              |Sz'= 0.50>
 <Sz=-0.50|    0.000000    0.000000i     0.000000    0.500000i
 <Sz= 0.50|    0.000000   -0.500000i     0.000000    0.000000i
Sz matrix: < B(S,Sz) | Sz | A(S',Sz') >
                     |Sz'=-0.50>              |Sz'= 0.50>
 <Sz=-0.50|   -0.500000    0.000000i     0.000000    0.000000i
 <Sz= 0.50|    0.000000    0.000000i     0.500000    0.000000i
  
Norm of one-particle transition density matrix
||gamma^AB||_total       =  0.990195
||gamma^AB||_symmetrized =  0.701590
||gamma^AB||_anti-symm   =  0.698755
  
Spin-orbit couplings
 Using HF (reference) density for the 2-elec mean-field SOC contribution
KET: S',Sz' (Root   2) =  0.500 0.500
BRA: S ,Sz  (Root   3) =  0.500 0.500
Natural Transition Orbitals stored in FCHK
 1e Reduced matrix elements (cm-1)
<S|| Hso(L-) ||S'> =   -98.8530659615     0.0000000000
<S|| Hso(L0) ||S'> =     0.0000000000     0.0000000000
<S|| Hso(L+) ||S'> =   -98.8530659615    -0.0000000000
 1-elec SOC matrix (cm-1): < B(S,Sz) | Hso(1e) | A(S',Sz') >
                     |Sz'=-0.50>              |Sz'= 0.50>
 <Sz=-0.50|    0.000000    0.000000i    80.713190    0.000000i
 <Sz= 0.50|  -80.713190    0.000000i    -0.000000   -0.000000i
1-elec SOCC =   114.145688486 cm-1
 2e-SOMF Reduced matrix elements (cm-1)
<S|| Hso(L-) ||S'> =    38.1156672512    -0.0000000000
<S|| Hso(L0) ||S'> =     0.0000000000    -0.0000000000
<S|| Hso(L+) ||S'> =    38.1156672512     0.0000000000
 2-elec mean-field SOC matrix (cm-1): < B(S,Sz) | Hso(2e-mf) | A(S',Sz') >
                     |Sz'=-0.50>              |Sz'= 0.50>
 <Sz=-0.50|    0.000000   -0.000000i   -31.121312   -0.000000i
 <Sz= 0.50|   31.121312   -0.000000i     0.000000    0.000000i
 Total mean-field SOC matrix (cm-1): < B(S,Sz) | Hsomf | A(S',Sz') >
                     |Sz'=-0.50>              |Sz'= 0.50>
 <Sz=-0.50|    0.000000    0.000000i    49.591878    0.000000i
 <Sz= 0.50|  -49.591878    0.000000i    -0.000000   -0.000000i
Mean-Field SOCC =    70.133506990 cm-1
   
**************************************************
State A: Root  2
State B: Root  4
  
Angular momentum components
< B | Lx | A > =     0.000000107i
< B | Ly | A > =     0.000000000i
< B | Lz | A > =    -0.000000000i
  
Spin matrices Sx, Sy and Sz for states with different spin are null
  
Norm of one-particle transition density matrix
||gamma^AB||_total       =  0.796087
||gamma^AB||_symmetrized =  0.569861
||gamma^AB||_anti-symm   =  0.555889
  
Spin-orbit couplings
 Using HF (reference) density for the 2-elec mean-field SOC contribution
KET: S',Sz' (Root   2) =  0.500 0.500
BRA: S ,Sz  (Root   4) =  1.500 0.500
Natural Transition Orbitals stored in FCHK
 1e Reduced matrix elements (cm-1)
<S|| Hso(L-) ||S'> =     0.0000000000   -42.5445237301
<S|| Hso(L0) ||S'> =     0.0000000000     0.0000000000
<S|| Hso(L+) ||S'> =     0.0000000000    42.5445237301
 1-elec SOC matrix (cm-1): < B(S,Sz) | Hso(1e) | A(S',Sz') >
                     |Sz'=-0.50>              |Sz'= 0.50>
 <Sz=-1.50|    0.000000   42.544524i     0.000000    0.000000i
 <Sz=-0.50|   -0.000000    0.000000i     0.000000   24.563092i
 <Sz= 0.50|    0.000000  -24.563092i     0.000000    0.000000i
 <Sz= 1.50|    0.000000    0.000000i     0.000000  -42.544524i
1-elec SOCC =    69.474916326 cm-1
 2e-SOMF Reduced matrix elements (cm-1)
<S|| Hso(L-) ||S'> =    -0.0000000000    14.2904145721
<S|| Hso(L0) ||S'> =     0.0000000000    -0.0000000000
<S|| Hso(L+) ||S'> =    -0.0000000000   -14.2904145721
 2-elec mean-field SOC matrix (cm-1): < B(S,Sz) | Hso(2e-mf) | A(S',Sz') >
                     |Sz'=-0.50>              |Sz'= 0.50>
 <Sz=-1.50|   -0.000000  -14.290415i     0.000000    0.000000i
 <Sz=-0.50|    0.000000   -0.000000i    -0.000000   -8.250575i
 <Sz= 0.50|   -0.000000    8.250575i    -0.000000   -0.000000i
 <Sz= 1.50|    0.000000    0.000000i    -0.000000   14.290415i
 Total mean-field SOC matrix (cm-1): < B(S,Sz) | Hsomf | A(S',Sz') >
                     |Sz'=-0.50>              |Sz'= 0.50>
 <Sz=-1.50|    0.000000   28.254109i     0.000000    0.000000i
 <Sz=-0.50|   -0.000000    0.000000i     0.000000   16.312518i
 <Sz= 0.50|    0.000000  -16.312518i     0.000000    0.000000i
 <Sz= 1.50|    0.000000    0.000000i     0.000000  -28.254109i
Mean-Field SOCC =    46.138767049 cm-1
   
**************************************************
State A: Root  2
State B: Root  5
  
Angular momentum components
< B | Lx | A > =    -0.122926757i
< B | Ly | A > =     0.000000000i
< B | Lz | A > =    -0.000000000i
  
KET: S',Sz' (Root   1) =  0.500 0.500
BRA: S ,Sz  (Root   1) =  0.500 0.500
  
Spin Matrices
Sx matrix: < B(S,Sz) | Sx | A(S',Sz') >
                     |Sz'=-0.50>              |Sz'= 0.50>
 <Sz=-0.50|    0.000000    0.000000i     0.500000    0.000000i
 <Sz= 0.50|    0.500000    0.000000i     0.000000    0.000000i
Sy matrix: < B(S,Sz) | Sy | A(S',Sz') >
                     |Sz'=-0.50>              |Sz'= 0.50>
 <Sz=-0.50|    0.000000    0.000000i     0.000000    0.500000i
 <Sz= 0.50|    0.000000   -0.500000i     0.000000    0.000000i
Sz matrix: < B(S,Sz) | Sz | A(S',Sz') >
                     |Sz'=-0.50>              |Sz'= 0.50>
 <Sz=-0.50|   -0.500000    0.000000i     0.000000    0.000000i
 <Sz= 0.50|    0.000000    0.000000i     0.500000    0.000000i
  
Norm of one-particle transition density matrix
||gamma^AB||_total       =  0.899378
||gamma^AB||_symmetrized =  0.630159
||gamma^AB||_anti-symm   =  0.641702
  
Spin-orbit couplings
 Using HF (reference) density for the 2-elec mean-field SOC contribution
KET: S',Sz' (Root   2) =  0.500 0.500
BRA: S ,Sz  (Root   5) =  0.500 0.500
Natural Transition Orbitals stored in FCHK
 1e Reduced matrix elements (cm-1)
<S|| Hso(L-) ||S'> =    -0.0000000000    15.9965598744
<S|| Hso(L0) ||S'> =     0.0000000000    -0.0000000000
<S|| Hso(L+) ||S'> =    -0.0000000000   -15.9965598744
 1-elec SOC matrix (cm-1): < B(S,Sz) | Hso(1e) | A(S',Sz') >
                     |Sz'=-0.50>              |Sz'= 0.50>
 <Sz=-0.50|    0.000000   -0.000000i     0.000000   13.061136i
 <Sz= 0.50|   -0.000000   13.061136i    -0.000000    0.000000i
1-elec SOCC =    18.471236299 cm-1
 2e-SOMF Reduced matrix elements (cm-1)
<S|| Hso(L-) ||S'> =     0.0000000000    -5.5652933115
<S|| Hso(L0) ||S'> =     0.0000000000     0.0000000000
<S|| Hso(L+) ||S'> =     0.0000000000     5.5652933115
 2-elec mean-field SOC matrix (cm-1): < B(S,Sz) | Hso(2e-mf) | A(S',Sz') >
                     |Sz'=-0.50>              |Sz'= 0.50>
 <Sz=-0.50|    0.000000    0.000000i    -0.000000   -4.544043i
 <Sz= 0.50|    0.000000   -4.544043i     0.000000   -0.000000i
 Total mean-field SOC matrix (cm-1): < B(S,Sz) | Hsomf | A(S',Sz') >
                     |Sz'=-0.50>              |Sz'= 0.50>
 <Sz=-0.50|    0.000000   -0.000000i     0.000000    8.517093i
 <Sz= 0.50|   -0.000000    8.517093i    -0.000000    0.000000i
Mean-Field SOCC =    12.044989116 cm-1
   
**************************************************
State A: Root  2
State B: Root  6
  
Angular momentum components
< B | Lx | A > =     0.000000000i
< B | Ly | A > =    -0.000000000i
< B | Lz | A > =    -0.000000000i
  
KET: S',Sz' (Root   1) =  0.500 0.500
BRA: S ,Sz  (Root   1) =  0.500 0.500
  
Spin Matrices
Sx matrix: < B(S,Sz) | Sx | A(S',Sz') >
                     |Sz'=-0.50>              |Sz'= 0.50>
 <Sz=-0.50|    0.000000    0.000000i     0.500000    0.000000i
 <Sz= 0.50|    0.500000    0.000000i     0.000000    0.000000i
Sy matrix: < B(S,Sz) | Sy | A(S',Sz') >
                     |Sz'=-0.50>              |Sz'= 0.50>
 <Sz=-0.50|    0.000000    0.000000i     0.000000    0.500000i
 <Sz= 0.50|    0.000000   -0.500000i     0.000000    0.000000i
Sz matrix: < B(S,Sz) | Sz | A(S',Sz') >
                     |Sz'=-0.50>              |Sz'= 0.50>
 <Sz=-0.50|   -0.500000    0.000000i     0.000000    0.000000i
 <Sz= 0.50|    0.000000    0.000000i     0.500000    0.000000i
  
Norm of one-particle transition density matrix
||gamma^AB||_total       =  0.270478
||gamma^AB||_symmetrized =  0.191284
||gamma^AB||_anti-symm   =  0.191229
  
Spin-orbit couplings
 Using HF (reference) density for the 2-elec mean-field SOC contribution
KET: S',Sz' (Root   2) =  0.500 0.500
BRA: S ,Sz  (Root   6) =  0.500 0.500
Natural Transition Orbitals stored in FCHK
 1e Reduced matrix elements (cm-1)
<S|| Hso(L-) ||S'> =    -0.0000000000     0.0000000000
<S|| Hso(L0) ||S'> =     0.0000000000    -0.0000000000
<S|| Hso(L+) ||S'> =    -0.0000000000    -0.0000000000
 1-elec SOC matrix (cm-1): < B(S,Sz) | Hso(1e) | A(S',Sz') >
                     |Sz'=-0.50>              |Sz'= 0.50>
 <Sz=-0.50|    0.000000   -0.000000i     0.000000    0.000000i
 <Sz= 0.50|   -0.000000    0.000000i    -0.000000    0.000000i
1-elec SOCC =     0.000000000 cm-1
 2e-SOMF Reduced matrix elements (cm-1)
<S|| Hso(L-) ||S'> =     0.0000000000    -0.0000000000
<S|| Hso(L0) ||S'> =     0.0000000000     0.0000000000
<S|| Hso(L+) ||S'> =     0.0000000000     0.0000000000
 2-elec mean-field SOC matrix (cm-1): < B(S,Sz) | Hso(2e-mf) | A(S',Sz') >
                     |Sz'=-0.50>              |Sz'= 0.50>
 <Sz=-0.50|    0.000000    0.000000i    -0.000000   -0.000000i
 <Sz= 0.50|    0.000000   -0.000000i     0.000000   -0.000000i
 Total mean-field SOC matrix (cm-1): < B(S,Sz) | Hsomf | A(S',Sz') >
                     |Sz'=-0.50>              |Sz'= 0.50>
 <Sz=-0.50|    0.000000   -0.000000i     0.000000    0.000000i
 <Sz= 0.50|   -0.000000    0.000000i    -0.000000    0.000000i
Mean-Field SOCC =     0.000000000 cm-1
   
**************************************************
State A: Root  2
State B: Root  7
  
Angular momentum components
< B | Lx | A > =     0.061283416i
< B | Ly | A > =     0.000000000i
< B | Lz | A > =     0.000000000i
  
KET: S',Sz' (Root   1) =  0.500 0.500
BRA: S ,Sz  (Root   1) =  0.500 0.500
  
Spin Matrices
Sx matrix: < B(S,Sz) | Sx | A(S',Sz') >
                     |Sz'=-0.50>              |Sz'= 0.50>
 <Sz=-0.50|    0.000000    0.000000i     0.500000    0.000000i
 <Sz= 0.50|    0.500000    0.000000i     0.000000    0.000000i
Sy matrix: < B(S,Sz) | Sy | A(S',Sz') >
                     |Sz'=-0.50>              |Sz'= 0.50>
 <Sz=-0.50|    0.000000    0.000000i     0.000000    0.500000i
 <Sz= 0.50|    0.000000   -0.500000i     0.000000    0.000000i
Sz matrix: < B(S,Sz) | Sz | A(S',Sz') >
                     |Sz'=-0.50>              |Sz'= 0.50>
 <Sz=-0.50|   -0.500000    0.000000i     0.000000    0.000000i
 <Sz= 0.50|    0.000000    0.000000i     0.500000    0.000000i
  
Norm of one-particle transition density matrix
||gamma^AB||_total       =  0.668160
||gamma^AB||_symmetrized =  0.473015
||gamma^AB||_anti-symm   =  0.471906
  
Spin-orbit couplings
 Using HF (reference) density for the 2-elec mean-field SOC contribution
KET: S',Sz' (Root   2) =  0.500 0.500
BRA: S ,Sz  (Root   7) =  0.500 0.500
Natural Transition Orbitals stored in FCHK
 1e Reduced matrix elements (cm-1)
<S|| Hso(L-) ||S'> =     0.0000000000    35.7028435101
<S|| Hso(L0) ||S'> =     0.0000000000    -0.0000000000
<S|| Hso(L+) ||S'> =     0.0000000000   -35.7028435101
 1-elec SOC matrix (cm-1): < B(S,Sz) | Hso(1e) | A(S',Sz') >
                     |Sz'=-0.50>              |Sz'= 0.50>
 <Sz=-0.50|    0.000000   -0.000000i    -0.000000   29.151250i
 <Sz= 0.50|    0.000000   29.151250i     0.000000    0.000000i
1-elec SOCC =    41.226092623 cm-1
 2e-SOMF Reduced matrix elements (cm-1)
<S|| Hso(L-) ||S'> =    -0.0000000000   -12.0937830777
<S|| Hso(L0) ||S'> =     0.0000000000     0.0000000000
<S|| Hso(L+) ||S'> =    -0.0000000000    12.0937830777
 2-elec mean-field SOC matrix (cm-1): < B(S,Sz) | Hso(2e-mf) | A(S',Sz') >
                     |Sz'=-0.50>              |Sz'= 0.50>
 <Sz=-0.50|    0.000000    0.000000i     0.000000   -9.874533i
 <Sz= 0.50|   -0.000000   -9.874533i    -0.000000   -0.000000i
 Total mean-field SOC matrix (cm-1): < B(S,Sz) | Hsomf | A(S',Sz') >
                     |Sz'=-0.50>              |Sz'= 0.50>
 <Sz=-0.50|    0.000000   -0.000000i    -0.000000   19.276717i
 <Sz= 0.50|    0.000000   19.276717i     0.000000    0.000000i
Mean-Field SOCC =    27.261394792 cm-1
   
**************************************************
State A: Root  2
State B: Root  8
  
Angular momentum components
< B | Lx | A > =     0.000000000i
< B | Ly | A > =     0.090899819i
< B | Lz | A > =     0.000000000i
  
KET: S',Sz' (Root   1) =  0.500 0.500
BRA: S ,Sz  (Root   1) =  0.500 0.500
  
Spin Matrices
Sx matrix: < B(S,Sz) | Sx | A(S',Sz') >
                     |Sz'=-0.50>              |Sz'= 0.50>
 <Sz=-0.50|    0.000000    0.000000i     0.500000    0.000000i
 <Sz= 0.50|    0.500000    0.000000i     0.000000    0.000000i
Sy matrix: < B(S,Sz) | Sy | A(S',Sz') >
                     |Sz'=-0.50>              |Sz'= 0.50>
 <Sz=-0.50|    0.000000    0.000000i     0.000000    0.500000i
 <Sz= 0.50|    0.000000   -0.500000i     0.000000    0.000000i
Sz matrix: < B(S,Sz) | Sz | A(S',Sz') >
                     |Sz'=-0.50>              |Sz'= 0.50>
 <Sz=-0.50|   -0.500000    0.000000i     0.000000    0.000000i
 <Sz= 0.50|    0.000000    0.000000i     0.500000    0.000000i
  
Norm of one-particle transition density matrix
||gamma^AB||_total       =  0.276489
||gamma^AB||_symmetrized =  0.196919
||gamma^AB||_anti-symm   =  0.194085
  
Spin-orbit couplings
 Using HF (reference) density for the 2-elec mean-field SOC contribution
KET: S',Sz' (Root   2) =  0.500 0.500
BRA: S ,Sz  (Root   8) =  0.500 0.500
Natural Transition Orbitals stored in FCHK
 1e Reduced matrix elements (cm-1)
<S|| Hso(L-) ||S'> =    17.6298719847     0.0000000000
<S|| Hso(L0) ||S'> =     0.0000000000     0.0000000000
<S|| Hso(L+) ||S'> =    17.6298719847    -0.0000000000
 1-elec SOC matrix (cm-1): < B(S,Sz) | Hso(1e) | A(S',Sz') >
                     |Sz'=-0.50>              |Sz'= 0.50>
 <Sz=-0.50|    0.000000    0.000000i   -14.394730    0.000000i
 <Sz= 0.50|   14.394730    0.000000i     0.000000   -0.000000i
1-elec SOCC =    20.357222672 cm-1
 2e-SOMF Reduced matrix elements (cm-1)
<S|| Hso(L-) ||S'> =    -6.0270730768    -0.0000000000
<S|| Hso(L0) ||S'> =     0.0000000000    -0.0000000000
<S|| Hso(L+) ||S'> =    -6.0270730768     0.0000000000
 2-elec mean-field SOC matrix (cm-1): < B(S,Sz) | Hso(2e-mf) | A(S',Sz') >
                     |Sz'=-0.50>              |Sz'= 0.50>
 <Sz=-0.50|    0.000000   -0.000000i     4.921085   -0.000000i
 <Sz= 0.50|   -4.921085   -0.000000i    -0.000000    0.000000i
 Total mean-field SOC matrix (cm-1): < B(S,Sz) | Hsomf | A(S',Sz') >
                     |Sz'=-0.50>              |Sz'= 0.50>
 <Sz=-0.50|    0.000000    0.000000i    -9.473646   -0.000000i
 <Sz= 0.50|    9.473646   -0.000000i     0.000000   -0.000000i
Mean-Field SOCC =    13.397758146 cm-1
   
**************************************************
State A: Root  2
State B: Root  9
  
Angular momentum components
< B | Lx | A > =    -0.000001022i
< B | Ly | A > =     0.000000000i
< B | Lz | A > =     0.000000000i
  
Spin matrices Sx, Sy and Sz for states with different spin are null
  
Norm of one-particle transition density matrix
||gamma^AB||_total       =  0.201861
||gamma^AB||_symmetrized =  0.142539
||gamma^AB||_anti-symm   =  0.142935
  
Spin-orbit couplings
 Using HF (reference) density for the 2-elec mean-field SOC contribution
KET: S',Sz' (Root   2) =  0.500 0.500
BRA: S ,Sz  (Root   9) =  1.500 0.500
Natural Transition Orbitals stored in FCHK
 1e Reduced matrix elements (cm-1)
<S|| Hso(L-) ||S'> =     0.0000000000    -6.8356334644
<S|| Hso(L0) ||S'> =     0.0000000000     0.0000000009
<S|| Hso(L+) ||S'> =     0.0000000000     6.8356334644
 1-elec SOC matrix (cm-1): < B(S,Sz) | Hso(1e) | A(S',Sz') >
                     |Sz'=-0.50>              |Sz'= 0.50>
 <Sz=-1.50|    0.000000    6.835633i     0.000000    0.000000i
 <Sz=-0.50|   -0.000000    0.000000i     0.000000    3.946555i
 <Sz= 0.50|    0.000000   -3.946555i     0.000000    0.000000i
 <Sz= 1.50|    0.000000    0.000000i     0.000000   -6.835633i
1-elec SOCC =    11.162542704 cm-1
 2e-SOMF Reduced matrix elements (cm-1)
<S|| Hso(L-) ||S'> =    -0.0000000000     2.1813263640
<S|| Hso(L0) ||S'> =     0.0000000000    -0.0000000003
<S|| Hso(L+) ||S'> =    -0.0000000000    -2.1813263640
 2-elec mean-field SOC matrix (cm-1): < B(S,Sz) | Hso(2e-mf) | A(S',Sz') >
                     |Sz'=-0.50>              |Sz'= 0.50>
 <Sz=-1.50|   -0.000000   -2.181326i     0.000000    0.000000i
 <Sz=-0.50|    0.000000   -0.000000i    -0.000000   -1.259389i
 <Sz= 0.50|   -0.000000    1.259389i    -0.000000   -0.000000i
 <Sz= 1.50|    0.000000    0.000000i    -0.000000    2.181326i
 Total mean-field SOC matrix (cm-1): < B(S,Sz) | Hsomf | A(S',Sz') >
                     |Sz'=-0.50>              |Sz'= 0.50>
 <Sz=-1.50|    0.000000    4.654307i     0.000000    0.000000i
 <Sz=-0.50|   -0.000000    0.000000i     0.000000    2.687165i
 <Sz= 0.50|    0.000000   -2.687165i     0.000000    0.000000i
 <Sz= 1.50|    0.000000    0.000000i     0.000000   -4.654307i
Mean-Field SOCC =     7.600451668 cm-1
   
**************************************************
State A: Root  2
State B: Root 10
  
Angular momentum components
< B | Lx | A > =    -0.000000000i
< B | Ly | A > =    -0.000000000i
< B | Lz | A > =    -0.000000000i
  
KET: S',Sz' (Root   1) =  0.500 0.500
BRA: S ,Sz  (Root   1) =  0.500 0.500
  
Spin Matrices
Sx matrix: < B(S,Sz) | Sx | A(S',Sz') >
                     |Sz'=-0.50>              |Sz'= 0.50>
 <Sz=-0.50|    0.000000    0.000000i     0.500000    0.000000i
 <Sz= 0.50|    0.500000    0.000000i     0.000000    0.000000i
Sy matrix: < B(S,Sz) | Sy | A(S',Sz') >
                     |Sz'=-0.50>              |Sz'= 0.50>
 <Sz=-0.50|    0.000000    0.000000i     0.000000    0.500000i
 <Sz= 0.50|    0.000000   -0.500000i     0.000000    0.000000i
Sz matrix: < B(S,Sz) | Sz | A(S',Sz') >
                     |Sz'=-0.50>              |Sz'= 0.50>
 <Sz=-0.50|   -0.500000    0.000000i     0.000000    0.000000i
 <Sz= 0.50|    0.000000    0.000000i     0.500000    0.000000i
  
Norm of one-particle transition density matrix
||gamma^AB||_total       =  0.919674
||gamma^AB||_symmetrized =  0.654571
||gamma^AB||_anti-symm   =  0.646017
  
Spin-orbit couplings
 Using HF (reference) density for the 2-elec mean-field SOC contribution
KET: S',Sz' (Root   2) =  0.500 0.500
BRA: S ,Sz  (Root  10) =  0.500 0.500
Natural Transition Orbitals stored in FCHK
 1e Reduced matrix elements (cm-1)
<S|| Hso(L-) ||S'> =    -0.0000000000     0.0000000000
<S|| Hso(L0) ||S'> =     0.0000000000    -0.0000000000
<S|| Hso(L+) ||S'> =    -0.0000000000    -0.0000000000
 1-elec SOC matrix (cm-1): < B(S,Sz) | Hso(1e) | A(S',Sz') >
                     |Sz'=-0.50>              |Sz'= 0.50>
 <Sz=-0.50|    0.000000   -0.000000i     0.000000    0.000000i
 <Sz= 0.50|   -0.000000    0.000000i    -0.000000    0.000000i
1-elec SOCC =     0.000000000 cm-1
 2e-SOMF Reduced matrix elements (cm-1)
<S|| Hso(L-) ||S'> =     0.0000000000     0.0000000000
<S|| Hso(L0) ||S'> =     0.0000000000     0.0000000000
<S|| Hso(L+) ||S'> =     0.0000000000    -0.0000000000
 2-elec mean-field SOC matrix (cm-1): < B(S,Sz) | Hso(2e-mf) | A(S',Sz') >
                     |Sz'=-0.50>              |Sz'= 0.50>
 <Sz=-0.50|    0.000000    0.000000i    -0.000000    0.000000i
 <Sz= 0.50|    0.000000    0.000000i     0.000000   -0.000000i
 Total mean-field SOC matrix (cm-1): < B(S,Sz) | Hsomf | A(S',Sz') >
                     |Sz'=-0.50>              |Sz'= 0.50>
 <Sz=-0.50|    0.000000   -0.000000i     0.000000    0.000000i
 <Sz= 0.50|   -0.000000    0.000000i    -0.000000    0.000000i
Mean-Field SOCC =     0.000000000 cm-1
   
**************************************************
State A: Root  3
State B: Root  1
  
Angular momentum components
< B | Lx | A > =     0.000000000i
< B | Ly | A > =     0.000000000i
< B | Lz | A > =    -0.972570936i
  
KET: S',Sz' (Root   1) =  0.500 0.500
BRA: S ,Sz  (Root   1) =  0.500 0.500
  
Spin Matrices
Sx matrix: < B(S,Sz) | Sx | A(S',Sz') >
                     |Sz'=-0.50>              |Sz'= 0.50>
 <Sz=-0.50|    0.000000    0.000000i     0.500000    0.000000i
 <Sz= 0.50|    0.500000    0.000000i     0.000000    0.000000i
Sy matrix: < B(S,Sz) | Sy | A(S',Sz') >
                     |Sz'=-0.50>              |Sz'= 0.50>
 <Sz=-0.50|    0.000000    0.000000i     0.000000    0.500000i
 <Sz= 0.50|    0.000000   -0.500000i     0.000000    0.000000i
Sz matrix: < B(S,Sz) | Sz | A(S',Sz') >
                     |Sz'=-0.50>              |Sz'= 0.50>
 <Sz=-0.50|   -0.500000    0.000000i     0.000000    0.000000i
 <Sz= 0.50|    0.000000    0.000000i     0.500000    0.000000i
  
Norm of one-particle transition density matrix
||gamma^AB||_total       =  0.992641
||gamma^AB||_symmetrized =  0.703590
||gamma^AB||_anti-symm   =  0.700212
  
Spin-orbit couplings
 Using HF (reference) density for the 2-elec mean-field SOC contribution
KET: S',Sz' (Root   3) =  0.500 0.500
BRA: S ,Sz  (Root   1) =  0.500 0.500
Natural Transition Orbitals stored in FCHK
 1e Reduced matrix elements (cm-1)
<S|| Hso(L-) ||S'> =    -0.0000000000    -0.0000000000
<S|| Hso(L0) ||S'> =     0.0000000000  -155.0425388911
<S|| Hso(L+) ||S'> =    -0.0000000000     0.0000000000
 1-elec SOC matrix (cm-1): < B(S,Sz) | Hso(1e) | A(S',Sz') >
                     |Sz'=-0.50>              |Sz'= 0.50>
 <Sz=-0.50|    0.000000  -89.513852i     0.000000   -0.000000i
 <Sz= 0.50|   -0.000000   -0.000000i    -0.000000   89.513852i
1-elec SOCC =   126.591702903 cm-1
 2e-SOMF Reduced matrix elements (cm-1)
<S|| Hso(L-) ||S'> =     0.0000000000     0.0000000000
<S|| Hso(L0) ||S'> =     0.0000000000    54.8003939565
<S|| Hso(L+) ||S'> =     0.0000000000    -0.0000000000
 2-elec mean-field SOC matrix (cm-1): < B(S,Sz) | Hso(2e-mf) | A(S',Sz') >
                     |Sz'=-0.50>              |Sz'= 0.50>
 <Sz=-0.50|    0.000000   31.639022i    -0.000000    0.000000i
 <Sz= 0.50|    0.000000    0.000000i     0.000000  -31.639022i
 Total mean-field SOC matrix (cm-1): < B(S,Sz) | Hsomf | A(S',Sz') >
                     |Sz'=-0.50>              |Sz'= 0.50>
 <Sz=-0.50|    0.000000  -57.874829i     0.000000   -0.000000i
 <Sz= 0.50|   -0.000000   -0.000000i    -0.000000   57.874829i
Mean-Field SOCC =    81.847368604 cm-1
   
**************************************************
State A: Root  3
State B: Root  2
  
Angular momentum components
< B | Lx | A > =    -0.000000000i
< B | Ly | A > =    -0.923643670i
< B | Lz | A > =    -0.000000000i
  
KET: S',Sz' (Root   1) =  0.500 0.500
BRA: S ,Sz  (Root   1) =  0.500 0.500
  
Spin Matrices
Sx matrix: < B(S,Sz) | Sx | A(S',Sz') >
                     |Sz'=-0.50>              |Sz'= 0.50>
 <Sz=-0.50|    0.000000    0.000000i     0.500000    0.000000i
 <Sz= 0.50|    0.500000    0.000000i     0.000000    0.000000i
Sy matrix: < B(S,Sz) | Sy | A(S',Sz') >
                     |Sz'=-0.50>              |Sz'= 0.50>
 <Sz=-0.50|    0.000000    0.000000i     0.000000    0.500000i
 <Sz= 0.50|    0.000000   -0.500000i     0.000000    0.000000i
Sz matrix: < B(S,Sz) | Sz | A(S',Sz') >
                     |Sz'=-0.50>              |Sz'= 0.50>
 <Sz=-0.50|   -0.500000    0.000000i     0.000000    0.000000i
 <Sz= 0.50|    0.000000    0.000000i     0.500000    0.000000i
  
Norm of one-particle transition density matrix
||gamma^AB||_total       =  0.990195
||gamma^AB||_symmetrized =  0.701590
||gamma^AB||_anti-symm   =  0.698755
  
Spin-orbit couplings
 Using HF (reference) density for the 2-elec mean-field SOC contribution
KET: S',Sz' (Root   3) =  0.500 0.500
BRA: S ,Sz  (Root   2) =  0.500 0.500
Natural Transition Orbitals stored in FCHK
 1e Reduced matrix elements (cm-1)
<S|| Hso(L-) ||S'> =    98.8530659615    -0.0000000000
<S|| Hso(L0) ||S'> =     0.0000000000    -0.0000000000
<S|| Hso(L+) ||S'> =    98.8530659615     0.0000000000
 1-elec SOC matrix (cm-1): < B(S,Sz) | Hso(1e) | A(S',Sz') >
                     |Sz'=-0.50>              |Sz'= 0.50>
 <Sz=-0.50|    0.000000   -0.000000i   -80.713190   -0.000000i
 <Sz= 0.50|   80.713190   -0.000000i     0.000000    0.000000i
1-elec SOCC =   114.145688486 cm-1
 2e-SOMF Reduced matrix elements (cm-1)
<S|| Hso(L-) ||S'> =   -38.1156672512     0.0000000000
<S|| Hso(L0) ||S'> =     0.0000000000     0.0000000000
<S|| Hso(L+) ||S'> =   -38.1156672512    -0.0000000000
 2-elec mean-field SOC matrix (cm-1): < B(S,Sz) | Hso(2e-mf) | A(S',Sz') >
                     |Sz'=-0.50>              |Sz'= 0.50>
 <Sz=-0.50|    0.000000    0.000000i    31.121312    0.000000i
 <Sz= 0.50|  -31.121312    0.000000i    -0.000000   -0.000000i
 Total mean-field SOC matrix (cm-1): < B(S,Sz) | Hsomf | A(S',Sz') >
                     |Sz'=-0.50>              |Sz'= 0.50>
 <Sz=-0.50|    0.000000   -0.000000i   -49.591878   -0.000000i
 <Sz= 0.50|   49.591878   -0.000000i     0.000000    0.000000i
Mean-Field SOCC =    70.133506990 cm-1
   
**************************************************
State A: Root  3
State B: Root  4
  
Angular momentum components
< B | Lx | A > =    -0.000000000i
< B | Ly | A > =    -0.000000000i
< B | Lz | A > =    -0.000000135i
  
Spin matrices Sx, Sy and Sz for states with different spin are null
  
Norm of one-particle transition density matrix
||gamma^AB||_total       =  0.076033
||gamma^AB||_symmetrized =  0.055133
||gamma^AB||_anti-symm   =  0.052357
  
Spin-orbit couplings
 Using HF (reference) density for the 2-elec mean-field SOC contribution
KET: S',Sz' (Root   3) =  0.500 0.500
BRA: S ,Sz  (Root   4) =  1.500 0.500
Natural Transition Orbitals stored in FCHK
 1e Reduced matrix elements (cm-1)
<S|| Hso(L-) ||S'> =     0.0000000000    -0.0000000000
<S|| Hso(L0) ||S'> =     0.0000000000   -11.6683359955
<S|| Hso(L+) ||S'> =     0.0000000000     0.0000000000
 1-elec SOC matrix (cm-1): < B(S,Sz) | Hso(1e) | A(S',Sz') >
                     |Sz'=-0.50>              |Sz'= 0.50>
 <Sz=-1.50|    0.000000    0.000000i     0.000000    0.000000i
 <Sz=-0.50|   -0.000000   -9.527156i     0.000000    0.000000i
 <Sz= 0.50|    0.000000   -0.000000i     0.000000   -9.527156i
 <Sz= 1.50|    0.000000    0.000000i     0.000000   -0.000000i
1-elec SOCC =    13.473433856 cm-1
 2e-SOMF Reduced matrix elements (cm-1)
<S|| Hso(L-) ||S'> =    -0.0000000000     0.0000000000
<S|| Hso(L0) ||S'> =     0.0000000000     3.8166480665
<S|| Hso(L+) ||S'> =    -0.0000000000    -0.0000000000
 2-elec mean-field SOC matrix (cm-1): < B(S,Sz) | Hso(2e-mf) | A(S',Sz') >
                     |Sz'=-0.50>              |Sz'= 0.50>
 <Sz=-1.50|   -0.000000   -0.000000i     0.000000    0.000000i
 <Sz=-0.50|    0.000000    3.116280i    -0.000000   -0.000000i
 <Sz= 0.50|   -0.000000    0.000000i    -0.000000    3.116280i
 <Sz= 1.50|    0.000000    0.000000i    -0.000000    0.000000i
 Total mean-field SOC matrix (cm-1): < B(S,Sz) | Hsomf | A(S',Sz') >
                     |Sz'=-0.50>              |Sz'= 0.50>
 <Sz=-1.50|    0.000000    0.000000i     0.000000    0.000000i
 <Sz=-0.50|   -0.000000   -6.410876i     0.000000    0.000000i
 <Sz= 0.50|    0.000000   -0.000000i     0.000000   -6.410876i
 <Sz= 1.50|    0.000000    0.000000i     0.000000   -0.000000i
Mean-Field SOCC =     9.066348279 cm-1
   
**************************************************
State A: Root  3
State B: Root  5
  
Angular momentum components
< B | Lx | A > =    -0.000000000i
< B | Ly | A > =    -0.000000000i
< B | Lz | A > =    -0.007167000i
  
KET: S',Sz' (Root   1) =  0.500 0.500
BRA: S ,Sz  (Root   1) =  0.500 0.500
  
[...]
 <Sz= 0.50|   -1.800432    0.000000i    -0.000000    0.000000i
1-elec SOCC =     2.546194834 cm-1
 2e-SOMF Reduced matrix elements (cm-1)
<S|| Hso(L-) ||S'> =     0.8453632253    -0.0000000000
<S|| Hso(L0) ||S'> =     0.0000000000     0.0000000000
<S|| Hso(L+) ||S'> =     0.8453632253     0.0000000000
 2-elec mean-field SOC matrix (cm-1): < B(S,Sz) | Hso(2e-mf) | A(S',Sz') >
                     |Sz'=-0.50>              |Sz'= 0.50>
 <Sz=-0.50|    0.000000    0.000000i    -0.690236   -0.000000i
 <Sz= 0.50|    0.690236   -0.000000i     0.000000   -0.000000i
 Total mean-field SOC matrix (cm-1): < B(S,Sz) | Hsomf | A(S',Sz') >
                     |Sz'=-0.50>              |Sz'= 0.50>
 <Sz=-0.50|    0.000000   -0.000000i     1.110195    0.000000i
 <Sz= 0.50|   -1.110195    0.000000i    -0.000000    0.000000i
Mean-Field SOCC =     1.570053463 cm-1
   
**************************************************
State A: Root 10
State B: Root  4
  
Angular momentum components
< B | Lx | A > =    -0.000000367i
< B | Ly | A > =     0.000000000i
< B | Lz | A > =     0.000000000i
  
Spin matrices Sx, Sy and Sz for states with different spin are null
  
Norm of one-particle transition density matrix
||gamma^AB||_total       =  0.779318
||gamma^AB||_symmetrized =  0.409420
||gamma^AB||_anti-symm   =  0.663108
  
Spin-orbit couplings
 Using HF (reference) density for the 2-elec mean-field SOC contribution
KET: S',Sz' (Root  10) =  0.500 0.500
BRA: S ,Sz  (Root   4) =  1.500 0.500
Natural Transition Orbitals stored in FCHK
 1e Reduced matrix elements (cm-1)
<S|| Hso(L-) ||S'> =     0.0000000000   141.4452681128
<S|| Hso(L0) ||S'> =     0.0000000000    -0.0000000000
<S|| Hso(L+) ||S'> =     0.0000000000  -141.4452681128
 1-elec SOC matrix (cm-1): < B(S,Sz) | Hso(1e) | A(S',Sz') >
                     |Sz'=-0.50>              |Sz'= 0.50>
 <Sz=-1.50|    0.000000 -141.445268i     0.000000    0.000000i
 <Sz=-0.50|   -0.000000   -0.000000i     0.000000  -81.663464i
 <Sz= 0.50|    0.000000   81.663464i     0.000000   -0.000000i
 <Sz= 1.50|    0.000000    0.000000i     0.000000  141.445268i
1-elec SOCC =   230.979155605 cm-1
 2e-SOMF Reduced matrix elements (cm-1)
<S|| Hso(L-) ||S'> =    -0.0000000000   -50.8171073777
<S|| Hso(L0) ||S'> =     0.0000000000     0.0000000000
<S|| Hso(L+) ||S'> =    -0.0000000000    50.8171073777
 2-elec mean-field SOC matrix (cm-1): < B(S,Sz) | Hso(2e-mf) | A(S',Sz') >
                     |Sz'=-0.50>              |Sz'= 0.50>
 <Sz=-1.50|   -0.000000   50.817107i     0.000000    0.000000i
 <Sz=-0.50|    0.000000    0.000000i    -0.000000   29.339271i
 <Sz= 0.50|   -0.000000  -29.339271i    -0.000000    0.000000i
 <Sz= 1.50|    0.000000    0.000000i    -0.000000  -50.817107i
 Total mean-field SOC matrix (cm-1): < B(S,Sz) | Hsomf | A(S',Sz') >
                     |Sz'=-0.50>              |Sz'= 0.50>
 <Sz=-1.50|    0.000000  -90.628161i     0.000000    0.000000i
 <Sz=-0.50|   -0.000000   -0.000000i     0.000000  -52.324193i
 <Sz= 0.50|    0.000000   52.324193i     0.000000   -0.000000i
 <Sz= 1.50|    0.000000    0.000000i     0.000000   90.628161i
Mean-Field SOCC =   147.995166752 cm-1
   
**************************************************
State A: Root 10
State B: Root  5
  
Angular momentum components
< B | Lx | A > =     0.062117465i
< B | Ly | A > =     0.000000000i
< B | Lz | A > =    -0.000000000i
  
KET: S',Sz' (Root   1) =  0.500 0.500
BRA: S ,Sz  (Root   1) =  0.500 0.500
  
Spin Matrices
Sx matrix: < B(S,Sz) | Sx | A(S',Sz') >
                     |Sz'=-0.50>              |Sz'= 0.50>
 <Sz=-0.50|    0.000000    0.000000i     0.500000    0.000000i
 <Sz= 0.50|    0.500000    0.000000i     0.000000    0.000000i
Sy matrix: < B(S,Sz) | Sy | A(S',Sz') >
                     |Sz'=-0.50>              |Sz'= 0.50>
 <Sz=-0.50|    0.000000    0.000000i     0.000000    0.500000i
 <Sz= 0.50|    0.000000   -0.500000i     0.000000    0.000000i
Sz matrix: < B(S,Sz) | Sz | A(S',Sz') >
                     |Sz'=-0.50>              |Sz'= 0.50>
 <Sz=-0.50|   -0.500000    0.000000i     0.000000    0.000000i
 <Sz= 0.50|    0.000000    0.000000i     0.500000    0.000000i
  
Norm of one-particle transition density matrix
||gamma^AB||_total       =  0.555603
||gamma^AB||_symmetrized =  0.297590
||gamma^AB||_anti-symm   =  0.469185
  
Spin-orbit couplings
 Using HF (reference) density for the 2-elec mean-field SOC contribution
KET: S',Sz' (Root  10) =  0.500 0.500
BRA: S ,Sz  (Root   5) =  0.500 0.500
Natural Transition Orbitals stored in FCHK
 1e Reduced matrix elements (cm-1)
<S|| Hso(L-) ||S'> =    -0.0000000000   140.9478098739
<S|| Hso(L0) ||S'> =     0.0000000000    -0.0000000000
<S|| Hso(L+) ||S'> =    -0.0000000000  -140.9478098739
 1-elec SOC matrix (cm-1): < B(S,Sz) | Hso(1e) | A(S',Sz') >
                     |Sz'=-0.50>              |Sz'= 0.50>
 <Sz=-0.50|    0.000000   -0.000000i     0.000000  115.083405i
 <Sz= 0.50|   -0.000000  115.083405i    -0.000000    0.000000i
1-elec SOCC =   162.752511945 cm-1
 2e-SOMF Reduced matrix elements (cm-1)
<S|| Hso(L-) ||S'> =     0.0000000000   -50.6197224758
<S|| Hso(L0) ||S'> =     0.0000000000     0.0000000000
<S|| Hso(L+) ||S'> =     0.0000000000    50.6197224758
 2-elec mean-field SOC matrix (cm-1): < B(S,Sz) | Hso(2e-mf) | A(S',Sz') >
                     |Sz'=-0.50>              |Sz'= 0.50>
 <Sz=-0.50|    0.000000    0.000000i    -0.000000  -41.330830i
 <Sz= 0.50|    0.000000  -41.330830i     0.000000   -0.000000i
 Total mean-field SOC matrix (cm-1): < B(S,Sz) | Hsomf | A(S',Sz') >
                     |Sz'=-0.50>              |Sz'= 0.50>
 <Sz=-0.50|    0.000000   -0.000000i     0.000000   73.752575i
 <Sz= 0.50|   -0.000000   73.752575i    -0.000000    0.000000i
Mean-Field SOCC =   104.301891149 cm-1
   
**************************************************
State A: Root 10
State B: Root  6
  
Angular momentum components
< B | Lx | A > =     0.000000000i
< B | Ly | A > =    -0.000000000i
< B | Lz | A > =     0.000000000i
  
KET: S',Sz' (Root   1) =  0.500 0.500
BRA: S ,Sz  (Root   1) =  0.500 0.500
  
Spin Matrices
Sx matrix: < B(S,Sz) | Sx | A(S',Sz') >
                     |Sz'=-0.50>              |Sz'= 0.50>
 <Sz=-0.50|    0.000000    0.000000i     0.500000    0.000000i
 <Sz= 0.50|    0.500000    0.000000i     0.000000    0.000000i
Sy matrix: < B(S,Sz) | Sy | A(S',Sz') >
                     |Sz'=-0.50>              |Sz'= 0.50>
 <Sz=-0.50|    0.000000    0.000000i     0.000000    0.500000i
 <Sz= 0.50|    0.000000   -0.500000i     0.000000    0.000000i
Sz matrix: < B(S,Sz) | Sz | A(S',Sz') >
                     |Sz'=-0.50>              |Sz'= 0.50>
 <Sz=-0.50|   -0.500000    0.000000i     0.000000    0.000000i
 <Sz= 0.50|    0.000000    0.000000i     0.500000    0.000000i
  
Norm of one-particle transition density matrix
||gamma^AB||_total       =  0.448751
||gamma^AB||_symmetrized =  0.447049
||gamma^AB||_anti-symm   =  0.039044
  
Spin-orbit couplings
 Using HF (reference) density for the 2-elec mean-field SOC contribution
KET: S',Sz' (Root  10) =  0.500 0.500
BRA: S ,Sz  (Root   6) =  0.500 0.500
Natural Transition Orbitals stored in FCHK
 1e Reduced matrix elements (cm-1)
<S|| Hso(L-) ||S'> =    -0.0000000000    -0.0000000000
<S|| Hso(L0) ||S'> =     0.0000000000     0.0000000000
<S|| Hso(L+) ||S'> =    -0.0000000000     0.0000000000
 1-elec SOC matrix (cm-1): < B(S,Sz) | Hso(1e) | A(S',Sz') >
                     |Sz'=-0.50>              |Sz'= 0.50>
 <Sz=-0.50|    0.000000    0.000000i     0.000000   -0.000000i
 <Sz= 0.50|   -0.000000   -0.000000i    -0.000000   -0.000000i
1-elec SOCC =     0.000000000 cm-1
 2e-SOMF Reduced matrix elements (cm-1)
<S|| Hso(L-) ||S'> =     0.0000000000     0.0000000000
<S|| Hso(L0) ||S'> =     0.0000000000    -0.0000000000
<S|| Hso(L+) ||S'> =     0.0000000000    -0.0000000000
 2-elec mean-field SOC matrix (cm-1): < B(S,Sz) | Hso(2e-mf) | A(S',Sz') >
                     |Sz'=-0.50>              |Sz'= 0.50>
 <Sz=-0.50|    0.000000   -0.000000i    -0.000000    0.000000i
 <Sz= 0.50|    0.000000    0.000000i     0.000000    0.000000i
 Total mean-field SOC matrix (cm-1): < B(S,Sz) | Hsomf | A(S',Sz') >
                     |Sz'=-0.50>              |Sz'= 0.50>
 <Sz=-0.50|    0.000000    0.000000i     0.000000   -0.000000i
 <Sz= 0.50|   -0.000000   -0.000000i    -0.000000   -0.000000i
Mean-Field SOCC =     0.000000000 cm-1
   
**************************************************
State A: Root 10
State B: Root  7
  
Angular momentum components
< B | Lx | A > =    -1.013622703i
< B | Ly | A > =     0.000000000i
< B | Lz | A > =    -0.000000000i
  
KET: S',Sz' (Root   1) =  0.500 0.500
BRA: S ,Sz  (Root   1) =  0.500 0.500
  
Spin Matrices
Sx matrix: < B(S,Sz) | Sx | A(S',Sz') >
                     |Sz'=-0.50>              |Sz'= 0.50>
 <Sz=-0.50|    0.000000    0.000000i     0.500000    0.000000i
 <Sz= 0.50|    0.500000    0.000000i     0.000000    0.000000i
Sy matrix: < B(S,Sz) | Sy | A(S',Sz') >
                     |Sz'=-0.50>              |Sz'= 0.50>
 <Sz=-0.50|    0.000000    0.000000i     0.000000    0.500000i
 <Sz= 0.50|    0.000000   -0.500000i     0.000000    0.000000i
Sz matrix: < B(S,Sz) | Sz | A(S',Sz') >
                     |Sz'=-0.50>              |Sz'= 0.50>
 <Sz=-0.50|   -0.500000    0.000000i     0.000000    0.000000i
 <Sz= 0.50|    0.000000    0.000000i     0.500000    0.000000i
  
Norm of one-particle transition density matrix
||gamma^AB||_total       =  0.959066
||gamma^AB||_symmetrized =  0.815548
||gamma^AB||_anti-symm   =  0.504667
  
Spin-orbit couplings
 Using HF (reference) density for the 2-elec mean-field SOC contribution
KET: S',Sz' (Root  10) =  0.500 0.500
BRA: S ,Sz  (Root   7) =  0.500 0.500
Natural Transition Orbitals stored in FCHK
 1e Reduced matrix elements (cm-1)
<S|| Hso(L-) ||S'> =    -0.0000000000     5.9109803325
<S|| Hso(L0) ||S'> =     0.0000000000     0.0000000000
<S|| Hso(L+) ||S'> =    -0.0000000000    -5.9109803325
 1-elec SOC matrix (cm-1): < B(S,Sz) | Hso(1e) | A(S',Sz') >
                     |Sz'=-0.50>              |Sz'= 0.50>
 <Sz=-0.50|    0.000000    0.000000i     0.000000    4.826295i
 <Sz= 0.50|   -0.000000    4.826295i    -0.000000   -0.000000i
1-elec SOCC =     6.825412172 cm-1
 2e-SOMF Reduced matrix elements (cm-1)
<S|| Hso(L-) ||S'> =     0.0000000000    -2.1270567724
<S|| Hso(L0) ||S'> =     0.0000000000    -0.0000000000
<S|| Hso(L+) ||S'> =     0.0000000000     2.1270567724
 2-elec mean-field SOC matrix (cm-1): < B(S,Sz) | Hso(2e-mf) | A(S',Sz') >
                     |Sz'=-0.50>              |Sz'= 0.50>
 <Sz=-0.50|    0.000000   -0.000000i    -0.000000   -1.736735i
 <Sz= 0.50|    0.000000   -1.736735i     0.000000    0.000000i
 Total mean-field SOC matrix (cm-1): < B(S,Sz) | Hsomf | A(S',Sz') >
                     |Sz'=-0.50>              |Sz'= 0.50>
 <Sz=-0.50|    0.000000    0.000000i     0.000000    3.089561i
 <Sz= 0.50|   -0.000000    3.089561i    -0.000000   -0.000000i
Mean-Field SOCC =     4.369298572 cm-1
   
**************************************************
State A: Root 10
State B: Root  8
  
Angular momentum components
< B | Lx | A > =     0.000000000i
< B | Ly | A > =     0.020069544i
< B | Lz | A > =    -0.000000000i
  
KET: S',Sz' (Root   1) =  0.500 0.500
BRA: S ,Sz  (Root   1) =  0.500 0.500
  
Spin Matrices
Sx matrix: < B(S,Sz) | Sx | A(S',Sz') >
                     |Sz'=-0.50>              |Sz'= 0.50>
 <Sz=-0.50|    0.000000    0.000000i     0.500000    0.000000i
 <Sz= 0.50|    0.500000    0.000000i     0.000000    0.000000i
Sy matrix: < B(S,Sz) | Sy | A(S',Sz') >
                     |Sz'=-0.50>              |Sz'= 0.50>
 <Sz=-0.50|    0.000000    0.000000i     0.000000    0.500000i
 <Sz= 0.50|    0.000000   -0.500000i     0.000000    0.000000i
Sz matrix: < B(S,Sz) | Sz | A(S',Sz') >
                     |Sz'=-0.50>              |Sz'= 0.50>
 <Sz=-0.50|   -0.500000    0.000000i     0.000000    0.000000i
 <Sz= 0.50|    0.000000    0.000000i     0.500000    0.000000i
  
Norm of one-particle transition density matrix
||gamma^AB||_total       =  0.064582
||gamma^AB||_symmetrized =  0.051762
||gamma^AB||_anti-symm   =  0.038620
  
Spin-orbit couplings
 Using HF (reference) density for the 2-elec mean-field SOC contribution
KET: S',Sz' (Root  10) =  0.500 0.500
BRA: S ,Sz  (Root   8) =  0.500 0.500
Natural Transition Orbitals stored in FCHK
 1e Reduced matrix elements (cm-1)
<S|| Hso(L-) ||S'> =     2.8408375795    -0.0000000000
<S|| Hso(L0) ||S'> =     0.0000000000    -0.0000000000
<S|| Hso(L+) ||S'> =     2.8408375795     0.0000000000
 1-elec SOC matrix (cm-1): < B(S,Sz) | Hso(1e) | A(S',Sz') >
                     |Sz'=-0.50>              |Sz'= 0.50>
 <Sz=-0.50|    0.000000   -0.000000i    -2.319534   -0.000000i
 <Sz= 0.50|    2.319534   -0.000000i     0.000000    0.000000i
1-elec SOCC =     3.280316682 cm-1
 2e-SOMF Reduced matrix elements (cm-1)
<S|| Hso(L-) ||S'> =    -1.1198406321     0.0000000000
<S|| Hso(L0) ||S'> =     0.0000000000     0.0000000000
<S|| Hso(L+) ||S'> =    -1.1198406321    -0.0000000000
 2-elec mean-field SOC matrix (cm-1): < B(S,Sz) | Hso(2e-mf) | A(S',Sz') >
                     |Sz'=-0.50>              |Sz'= 0.50>
 <Sz=-0.50|    0.000000    0.000000i     0.914346    0.000000i
 <Sz= 0.50|   -0.914346    0.000000i    -0.000000   -0.000000i
 Total mean-field SOC matrix (cm-1): < B(S,Sz) | Hsomf | A(S',Sz') >
                     |Sz'=-0.50>              |Sz'= 0.50>
 <Sz=-0.50|    0.000000   -0.000000i    -1.405188   -0.000000i
 <Sz= 0.50|    1.405188   -0.000000i     0.000000    0.000000i
Mean-Field SOCC =     1.987236102 cm-1
   
**************************************************
State A: Root 10
State B: Root  9
  
Angular momentum components
< B | Lx | A > =     0.000001596i
< B | Ly | A > =     0.000000000i
< B | Lz | A > =     0.000000000i
  
Spin matrices Sx, Sy and Sz for states with different spin are null
  
Norm of one-particle transition density matrix
||gamma^AB||_total       =  0.043659
||gamma^AB||_symmetrized =  0.038840
||gamma^AB||_anti-symm   =  0.019940
  
Spin-orbit couplings
 Using HF (reference) density for the 2-elec mean-field SOC contribution
KET: S',Sz' (Root  10) =  0.500 0.500
BRA: S ,Sz  (Root   9) =  1.500 0.500
Natural Transition Orbitals stored in FCHK
 1e Reduced matrix elements (cm-1)
<S|| Hso(L-) ||S'> =    -0.0000000000     0.2666211013
<S|| Hso(L0) ||S'> =     0.0000000000    -0.0000000001
<S|| Hso(L+) ||S'> =    -0.0000000000    -0.2666211013
 1-elec SOC matrix (cm-1): < B(S,Sz) | Hso(1e) | A(S',Sz') >
                     |Sz'=-0.50>              |Sz'= 0.50>
 <Sz=-1.50|   -0.000000   -0.266621i     0.000000    0.000000i
 <Sz=-0.50|    0.000000   -0.000000i    -0.000000   -0.153934i
 <Sz= 0.50|   -0.000000    0.153934i    -0.000000   -0.000000i
 <Sz= 1.50|    0.000000    0.000000i    -0.000000    0.266621i
1-elec SOCC =     0.435390435 cm-1
 2e-SOMF Reduced matrix elements (cm-1)
<S|| Hso(L-) ||S'> =     0.0000000000    -0.2251570172
<S|| Hso(L0) ||S'> =     0.0000000000     0.0000000000
<S|| Hso(L+) ||S'> =     0.0000000000     0.2251570172
 2-elec mean-field SOC matrix (cm-1): < B(S,Sz) | Hso(2e-mf) | A(S',Sz') >
                     |Sz'=-0.50>              |Sz'= 0.50>
 <Sz=-1.50|    0.000000    0.225157i     0.000000    0.000000i
 <Sz=-0.50|   -0.000000    0.000000i     0.000000    0.129994i
 <Sz= 0.50|    0.000000   -0.129994i     0.000000    0.000000i
 <Sz= 1.50|    0.000000    0.000000i     0.000000   -0.225157i
 Total mean-field SOC matrix (cm-1): < B(S,Sz) | Hsomf | A(S',Sz') >
                     |Sz'=-0.50>              |Sz'= 0.50>
 <Sz=-1.50|   -0.000000   -0.041464i     0.000000    0.000000i
 <Sz=-0.50|    0.000000   -0.000000i    -0.000000   -0.023939i
 <Sz= 0.50|   -0.000000    0.023939i    -0.000000   -0.000000i
 <Sz= 1.50|    0.000000    0.000000i    -0.000000    0.041464i
Mean-Field SOCC =     0.067710566 cm-1
   
**************************************************
RAS-CI timing summary (seconds)
  CPU time         39.26s
  System time       0.00s
  Wall time       165.06s
  
 
 --------------------------------------------------------------
             Orbital Energies (a.u.) and Symmetries
 --------------------------------------------------------------
 
 Alpha MOs, Restricted
 -- Doubly Occupied --           
-21.103  -1.844  -1.189  -1.007
  1 A1    2 A1    1 B1    1 B2                                                 
 -- Singly Occupied (Occupied) --
 -1.175
  3 A1                                                                         
 -- Virtual --                   
 -0.182  -0.117  -0.028  -0.014  -0.010  -0.014   0.068   0.071
  4 A1    2 B1    5 A1    6 A1    2 B2    3 B1    4 B1    7 A1                 
  0.325   0.365   0.768   0.843   0.853   1.083   1.097   1.235
  5 B1    8 A1    9 A1    3 B2    6 B1    1 A2   10 A1   11 A1                 
  1.323   1.460   1.827   1.951   2.350   2.477   2.896   3.030
  4 B2    7 B1    8 B1   12 A1   13 A1    9 B1    5 B2    2 A2                 
  3.100   3.613   3.746   4.997   5.242   5.628  51.011
 14 A1   15 A1   10 B1    6 B2   16 A1   11 B1   17 A1                         
 
 Beta MOs, Restricted
 -- Doubly Occupied --           
-21.065  -1.719  -1.149  -0.959
  1 A1    2 A1    1 B1    1 B2                                                 
 -- Singly Occupied (Vacant) --  
 -0.344
  3 A1                                                                         
 -- Virtual --                   
 -0.172  -0.111  -0.004  -0.008  -0.007   0.002   0.071   0.075
  4 A1    2 B1    5 A1    6 A1    2 B2    3 B1    4 B1    7 A1                 
  0.356   0.381   0.854   0.858   0.867   1.092   1.144   1.274
  5 B1    8 A1    9 A1    3 B2    6 B1    1 A2   10 A1   11 A1                 
  1.351   1.475   1.871   1.972   2.364   2.486   2.993   3.053
  4 B2    7 B1    8 B1   12 A1   13 A1    9 B1    5 B2    2 A2                 
  3.209   3.644   3.815   5.017   5.351   5.648  51.036
 14 A1   15 A1   10 B1    6 B2   16 A1   11 B1   17 A1                         
 --------------------------------------------------------------
 
          Ground-State Mulliken Net Atomic Charges

     Atom                 Charge (a.u.)
  ----------------------------------------
      1 O                     0.108669
      2 H                     0.445665
      3 H                     0.445665
  ----------------------------------------
  Sum of atomic charges =     1.000000

 -----------------------------------------------------------------
                    Cartesian Multipole Moments
 -----------------------------------------------------------------
    Charge (ESU x 10^10)
                 4.8032
    Dipole Moment (Debye)
         X       0.0000      Y      -0.0000      Z      -1.9486
       Tot       1.9486
    Quadrupole Moments (Debye-Ang)
        XX      -1.4952     XY      -0.0000     YY      -5.8621
        XZ      -0.0000     YZ      -0.0000     ZZ      -3.2162
    Octopole Moments (Debye-Ang^2)
       XXX       0.0000    XXY      -0.0000    XYY       0.0000
       YYY       0.0000    XXZ      -2.1603    XYZ       0.0000
       YYZ      -0.2684    XZZ       0.0000    YZZ      -0.0000
       ZZZ      -1.1508
    Hexadecapole Moments (Debye-Ang^3)
      XXXX      -2.2174   XXXY      -0.0000   XXYY      -1.5462
      XYYY      -0.0000   YYYY      -3.9545   XXXZ      -0.0000
      XXYZ      -0.0000   XYYZ      -0.0000   YYYZ      -0.0000
      XXZZ      -0.3911   XYZZ      -0.0000   YYZZ      -1.2453
      XZZZ      -0.0000   YZZZ      -0.0000   ZZZZ      -3.0444
 -----------------------------------------------------------------
 Total job time:  171.22s(wall), 39.90s(cpu) 
 Wed Apr 20 10:31:58 2022

        *************************************************************
        *                                                           *
        *  Thank you very much for using Q-Chem.  Have a nice day.  *
        *                                                           *
        *************************************************************


