                  Welcome to Q-Chem
     A Quantum Leap Into The Future Of Chemistry


 Q-Chem 6.0 (devel), Q-Chem, Inc., Pleasanton, CA (2022)

 E. Epifanovsky,  A. T. B. Gilbert,  Xintian Feng,  Joonho Lee,  Yuezhi Mao,  
 N. Mardirossian,  P. Pokhilko,  A. White,  M. Wormit,  M. P. Coons,  
 A. L. Dempwolff,  Zhengting Gan,  D. Hait,  P. R. Horn,  L. D. Jacobson,  
 I. Kaliman,  J. Kussmann,  A. W. Lange,  Ka Un Lao,  D. S. Levine,  Jie Liu,  
 S. C. McKenzie,  A. F. Morrison,  K. Nanda,  F. Plasser,  D. R. Rehn,  
 M. L. Vidal,  Zhi-Qiang You,  Ying Zhu,  B. Alam,  B. Albrecht,  
 A. Aldossary,  E. Alguire,  J. H. Andersen,  V. Athavale,  D. Barton,  
 K. Begam,  A. Behn,  N. Bellonzi,  Y. A. Bernard,  E. J. Berquist,  
 H. Burton,  A. Carreras,  K. Carter-Fenk,  Romit Chakraborty,  
 Chandrima Chakravarty,  Junhan Chen,  A. D. Chien,  K. D. Closser,  
 V. Cofer-Shabica,  L. Cunha,  S. Dasgupta,  Jia Deng,  M. de Wergifosse,  
 M. Diedenhofen,  Hainam Do,  S. Ehlert,  Po-Tung Fang,  S. Fatehi,  
 Qingguo Feng,  T. Friedhoff,  B. Ganoe,  J. Gayvert,  Qinghui Ge,  
 G. Gidofalvi,  M. Goldey,  J. Gomes,  C. Gonzalez-Espinoza,  S. Gulania,  
 A. Gunina,  J. A. Gyamfi,  M. W. D. Hanson-Heine,  P. H. P. Harbach,  
 A. W. Hauser,  M. F. Herbst,  M. Hernandez Vera,  M. Hodecker,  
 Z. C. Holden,  S. Houck,  Xunkun Huang,  Kerwin Hui,  B. C. Huynh,  
 K. Ikeda,  M. Ivanov,  Hyunjun Ji,  Zuxin Jin,  Hanjie Jiang,  B. Kaduk,  
 S. Kaehler,  R. Kang,  K. Khistyaev,  Jaehoon Kim,  Yongbin Kim,  
 P. Klunzinger,  Z. Koczor-Benda,  Joong Hoon Koh,  D. Kosenkov,  
 Saikiran Kotaru,  L. Koulias,  T. Kowalczyk,  C. M. Krauter,  K. Kue,  
 A. Kunitsa,  T. Kus,  A. Landau,  K. V. Lawler,  D. Lefrancois,  S. Lehtola,  
 Rain Li,  Shaozhi Li,  Yi-Pei Li,  Jiashu Liang,  M. Liebenthal,  
 Hung-Hsuan Lin,  You-Sheng Lin,  Fenglai Liu,  Kuan-Yu Liu,  
 M. Loipersberger,  A. Luenser,  C. Malbon,  A. Manjanath,  P. Manohar,  
 E. Mansoor,  S. F. Manzer,  Shan-Ping Mao,  A. V. Marenich,  T. Markovich,  
 S. Mason,  F. Matz,  S. A. Maurer,  P. F. McLaughlin,  M. F. S. J. Menger,  
 J.-M. Mewes,  S. A. Mewes,  P. Morgante,  Mohammad Mostafanejad,  
 J. W. Mullinax,  K. J. Oosterbaan,  G. Paran,  V. Parravicini,  
 Alexander C. Paul,  Suranjan K. Paul,  F. Pavosevic,  Zheng Pei,  S. Prager,  
 E. I. Proynov,  E. Ramos,  B. Rana,  A. E. Rask,  A. Rettig,  R. M. Richard,  
 F. Rob,  E. Rossomme,  T. Scheele,  M. Scheurer,  M. Schneider,  
 P. E. Schneider,  N. Sergueev,  S. M. Sharada,  Hengyuan Shen,  
 W. Skomorowski,  D. W. Small,  C. J. Stein,  Yingli Su,  Yu-Chuan Su,  
 E. J. Sundstrom,  Zhen Tao,  J. Thirman,  Hung-Yi Tsai,  T. Tsuchimochi,  
 N. M. Tubman,  C. Utku,  S. P. Veccham,  O. Vydrov,  J. Wenzel,  
 Jonathan Wong,  J. Witte,  A. Yamada,  Chou-Hsun Yang,  Kun Yao,  
 S. Yeganeh,  S. R. Yost,  A. Zech,  F. Zeller,  Igor Ying Zhang,  
 Xing Zhang,  Yu Zhang,  D. Zuev,  A. Aspuru-Guzik,  A. T. Bell,  
 N. A. Besley,  K. B. Bravaya,  B. R. Brooks,  D. Casanova,  Jeng-Da Chai,  
 Hsing-Ta Chen,  S. Coriani,  C. J. Cramer,  A. E. DePrince, III,  
 R. A. DiStasio Jr.,  A. Dreuw,  B. D. Dunietz,  T. R. Furlani,  
 W. A. Goddard III,  S. Grimme,  S. Hammes-Schiffer,  T. Head-Gordon,  
 W. J. Hehre,  Chao-Ping Hsu,  T.-C. Jagau,  Yousung Jung,  A. Klamt,  
 Jing Kong,  D. S. Lambrecht,  Xiangyuan Li,  WanZhen Liang,  N. J. Mayhall,  
 C. W. McCurdy,  J. B. Neaton,  T. Neudecker,  C. Ochsenfeld,  
 J. A. Parkhill,  R. Peverati,  V. A. Rassolov,  Haisheng Ren,  Yihan Shao,  
 L. V. Slipchenko,  R. P. Steele,  J. E. Subotnik,  A. J. W. Thom,  
 A. Tkatchenko,  D. G. Truhlar,  T. Van Voorhis,  Fan Wang,  
 T. A. Wesolowski,  K. B. Whaley,  H. L. Woodcock III,  P. M. Zimmerman,  
 S. Faraji,  P. M. W. Gill,  M. Head-Gordon,  J. M. Herbert,  A. I. Krylov

 Contributors to earlier versions of Q-Chem not listed above: 
 R. D. Adamson,  B. Austin,  R. Baer,  J. Baker,  G. J. O. Beran,  
 K. Brandhorst,  S. T. Brown,  E. F. C. Byrd,  Arup K. Chakraborty,  
 G. K. L. Chan,  Chun-Min Chang,  Yunqing Chen,  C.-L. Cheng,  
 Siu Hung Chien,  D. M. Chipman,  D. L. Crittenden,  H. Dachsel,  
 R. J. Doerksen,  A. D. Dutoi,  R. G. Edgar,  J. Fosso-Tande,  
 L. Fusti-Molnar,  D. Ghosh,  A. Ghysels,  A. Golubeva-Zadorozhnaya,  
 J. Gonthier,  M. S. Gordon,  S. R. Gwaltney,  G. Hawkins,  J. E. Herr,  
 A. Heyden,  S. Hirata,  E. G. Hohenstein,  G. Kedziora,  F. J. Keil,  
 C. Kelley,  Jihan Kim,  R. A. King,  R. Z. Khaliullin,  P. P. Korambath,  
 W. Kurlancheek,  A. Laurent,  A. M. Lee,  M. S. Lee,  S. V. Levchenko,  
 Ching Yeh Lin,  D. Liotard,  E. Livshits,  R. C. Lochan,  I. Lotan,  
 L. A. Martinez-Martinez,  P. E. Maslen,  N. Nair,  D. P. O'Neill,  
 D. Neuhauser,  E. Neuscamman,  C. M. Oana,  R. Olivares-Amaya,  R. Olson,  
 T. M. Perrine,  B. Peters,  P. A. Pieniazek,  A. Prociuk,  Y. M. Rhee,  
 J. Ritchie,  M. A. Rohrdanz,  E. Rosta,  N. J. Russ,  H. F. Schaefer III,  
 M. W. Schmidt,  N. E. Schultz,  S. Sharma,  N. Shenvi,  C. D. Sherrill,  
 A. C. Simmonett,  A. Sodt,  T. Stein,  D. Stuck,  K. S. Thanthiriwatte,  
 V. Vanovschi,  L. Vogt,  Tao Wang,  A. Warshel,  M. A. Watson,  
 C. F. Williams,  Q. Wu,  X. Xu,  Jun Yang,  W. Zhang,  Yan Zhao

   Please cite Q-Chem as follows:
  "Software for the frontiers of quantum chemistry:
   An overview of developments in the Q-Chem 5 package"
   J. Chem. Phys. 155, 084801 (2021)
   https://doi.org/10.1063/5.0055522 (open access)

 Q-Chem 6.0.1 for Intel X86 EM64T Linux

 Parts of Q-Chem use Armadillo 9.900.5 (Nocturnal Misbehaviour).
 http://arma.sourceforge.net/

 Q-Chem begins on Mon Sep 16 12:44:37 2024  

 Host: hyperion-212
0

     Scratch files written to ./qchem3754207//
 Processing $rem in /scratch/abel/SOFTWARE/qchem/config/preferences:
 Processing $rem in /home/acebg/.qchemrc:

 Checking the input file for inconsistencies... 	...done.

--------------------------------------------------------------
User input:
--------------------------------------------------------------
$comment
 RAS-SF CALCULATION
$end

$molecule
READ anthracene_opt.molecule
$end

$rem
!**CALCULATION TYPE***     
JOBTYPE            sp    
EXCHANGE           HF
CORRELATION        RASCI    !RASCI=Casanova; RASCI2=Zimmerman
BASIS              def2-TZVP
!BASIS2             STO-3G

!***SCF REFERENCE***
!SKIP_SCFMAN        FALSE
UNRESTRICTED       FALSE
!SCF_GUESS          core
!SCF_GUESS_MIX      FALSE
!SCF_GUESS_ALWAYS   FALSE
MAX_SCF_CYCLES     500
!SCF_CONVERGENCE    10
SCF_ALGORITHM      DIIS_GDM !DIIS,DM,DIIS_DM,GDM,DIIS_GDM,GD

!SYMMETRY           TRUE   !use of symmetry for calculating integrals
!SYM_IGNORE         FALSE  !turn off using symmetry
!SYM_TOL            5      !tolerance for determining point group
!USE_ABELIAN_SUBGROUP      !define to use abelian group

!THRESH             14
!SCF_FINAL_PRINT     1 !0,1,2,3

!****RAS-SF****
RAS_ROOTS          30       !number of RAS-CI roots to be computed
SET_ITER           100     !number of iterations in RASCI
RAS_ELEC 6
RAS_ELEC_ALPHA 4
RAS_ELEC_BETA 2

RAS_ACT 5
RAS_ACT_ORB [41, 42, 47, 48, 49]
RAS_OCC 44
N_FROZEN_CORE      FC     !Number of frozen core orbitals
!N_FROZEN_VIRTUAL   0      !Number of frozen virtual orbitals

RAS_DO_HOLE        FALSE   !presence of hole excitations in RAS-CI wave function
RAS_DO_PART        FALSE   !presence of particle excitations
!RAS_AMPL_PRINT     10     !threshold (×10 2 ) for the CI amplitudes

!RAS_GUESS_CS       0      !number of closed shell guess conﬁgurations
!RAS_SPIN_MULT      0      !spin multiplicity. Only for Ms = 0 
!RAS_SRDFT          FALSE  !short-range density functional RAS-CI
!RAS_NFRAG          0     !fragments of excitation analysis in RASCI

RAS_PRINT          2      !level of information
!RAS_NATORB         TRUE   !computation of the natural orbital occupancies
!RAS_NATORB_STATE  0      !Saves NO of i RAS computed state in .fchk ﬁle
!RAS_FOD            TRUE

!****RAS-SOC****
CALC_SOC           TRUE   !calculate SOC for EOM-CC, RAS-CI, ADC, TDDFT/TDA and TDDFT
!RAS_SOC_2E        TRUE   !two-electron mean-ﬁeld contribution, default=true
RAS_SOC_SYM_DENS   TRUE   !averaging of α and β densities

!****MEMORY****
MEM_TOTAL          90000 !Default 2000 MB
MEM_STATIC         20000  !Default 64 MB

!**Molecular Properties and Analysis **                                                                                          
GUI                0       !Checkpoints generation
STATE_ANALYSIS     TRUE
$end
--------------------------------------------------------------
 ----------------------------------------------------------------
             Standard Nuclear Orientation (Angstroms)
    I     Atom           X                Y                Z
 ----------------------------------------------------------------
    1      C       1.2528696110    -0.7144616643     0.0000611748
    2      C       2.4661185256    -1.3873929098     0.0000888763
    3      H       2.4670317640    -2.4712684532    -0.0003057438
    4      C       3.6841006918    -0.6876643530     0.0000015246
    5      H       4.6172560521    -1.2351253405    -0.0000635121
    6      C       3.6841005673     0.6876646405     0.0001354170
    7      H       4.6172557863     1.2351258725     0.0001490616
    8      C       2.4661182998     1.3873930201     0.0000396542
    9      H       2.4670309197     2.4712685933     0.0003432278
   10      C       1.2528695387     0.7144615088    -0.0000846763
   11      C       0.0000005393    -1.4023074043    -0.0001838106
   12      H       0.0000006531    -2.4857083698    -0.0004570569
   13      C      -0.0000005712     1.4023074721    -0.0001838566
   14      H      -0.0000006933     2.4857084373    -0.0004585605
   15      C      -1.2528696259     0.7144617005     0.0000593180
   16      C      -2.4661185573     1.3873929157     0.0000876230
   17      H      -2.4670314450     2.4712684589    -0.0003085620
   18      C      -3.6841006695     0.6876642646     0.0000023815
   19      H      -4.6172559004     1.2351254729    -0.0000599772
   20      C      -3.6841005823    -0.6876647288     0.0001370081
   21      H      -4.6172558928    -1.2351258048     0.0001546533
   22      C      -2.4661182611    -1.3873930144     0.0000375438
   23      H      -2.4670312506    -2.4712685875     0.0003405012
   24      C      -1.2528695051    -0.7144614941    -0.0000871830
 ----------------------------------------------------------------
 Molecular Point Group                 C1    NOp =  1
 Largest Abelian Subgroup              C1    NOp =  1
 Nuclear Repulsion Energy =         766.54296530 hartrees
 There are       48 alpha and       46 beta electrons
 Requested basis set is def2-TZVP
 There are 194 shells and 494 basis functions

 Q-Chem warning in module libmdc/get_mega.C, line 167:

 Allowed MEM_STATIC has been capped at MEM_STATIC=8191.
 Reduce the value of MEM_STATIC to silence this warning.


 Total QAlloc Memory Limit  90000 MB
 Mega-Array Size      8007 MB
 MEM_STATIC part      8191 MB

 A cutoff of  1.0D-09 yielded  14219 shell pairs
 There are     91679 function pairs (    118438 Cartesian)
 Smallest overlap matrix eigenvalue = 5.53E-06

 Q-Chem warning in module stvman/mkSTV.C, line 313:

 Overlap eigenvalue is smaller than square root of threshold
 Use THRESH >= 12 to get rid of this warning


 Scale SEOQF with 1.000000e-01/1.000000e-01/1.000000e+00

 Standard Electronic Orientation quadrupole field applied
 Nucleus-field energy     =     0.0000000318 hartrees
 Guess from superposition of atomic densities
 Warning:  Energy on first SCF cycle will be non-variational
 SAD guess density has 94.000000 electrons

 -----------------------------------------------------------------------
  General SCF calculation program by
  Eric Jon Sundstrom, Paul Horn, Yuezhi Mao, Dmitri Zuev, Alec White,
  David Stuck, Shaama M.S., Shane Yost, Joonho Lee, David Small,
  Daniel Levine, Susi Lehtola, Hugh Burton, Evgeny Epifanovsky,
  Bang C. Huynh
 -----------------------------------------------------------------------
 Hartree-Fock
 Orthonormalizing orbitals
 A restricted open-shell SCF calculation will be
 performed using DIIS, GDM
 SCF converges when RMS gradient is below 1.0e-05
 ---------------------------------------
  Cycle       Energy         DIIS error
 ---------------------------------------
    1    -533.7368321779      2.15e-02  
    2    -533.8331856131      1.98e-02  
    3    -535.6469252504      5.37e-03  Done DIIS. Switching to GDM
 ---------------------------------------
  Cycle       Energy        RMS Gradient
 ---------------------------------------
    1    -535.6469252504      1.54e-01   Descent step
    2    -535.8209898743      4.06e-02   Normal BFGS step
    3    -535.8483851650      3.21e-02   Normal BFGS step
    4    -535.8511201391      2.89e-02   Normal BFGS step
    5    -535.8527255869      3.84e-02   Normal BFGS step
    6    -535.8597382984      2.32e-01   Normal BFGS step
    7    -535.8823033708      4.35e-01   Normal BFGS step
    8    -535.9607430236      3.81e-01   Descent step
    9    -536.0783357611      1.40e-01   Dog-leg BFGS step
   10    -536.1047155537      5.03e-02   Normal BFGS step
   11    -536.1098231833      2.10e-02   Normal BFGS step
   12    -536.1116002740      5.87e-03   Normal BFGS step
   13    -536.1118328855      3.66e-03   Normal BFGS step
   14    -536.1119107576      1.84e-03   Normal BFGS step
   15    -536.1119281535      9.96e-04   Normal BFGS step
   16    -536.1119328674      2.76e-04   Normal BFGS step
   17    -536.1119335179      9.76e-05   Normal BFGS step
   18    -536.1119342535      2.26e-05   Normal BFGS step
   19    -536.1119343271      9.72e-06  Convergence criterion met
The disked orbital energies are calculated using alpha and beta Focks
 ---------------------------------------
 SCF time:   CPU 1241.08s  wall 1246.00s 
<S^2> =          2.000000000
 SCF   energy in the final basis set =     -536.1119343271
 Total energy in the final basis set =     -536.1119343271
  
     ##========================================##
     ||                                        ||
     ||              R A S M A N 2             ||
     ||________________________________________||
     ||                                        ||
     ||  Author:                               ||
     ||                                        ||
     ||        David Casanova (2010)           ||
     ||                                        ||
     ##========================================##
  
Setting single-point xc-functionals (if necessary)

  ***************************************************
  *  RAS-CI Dimensions:                             *
  *                                                 *
  *  Active Elec.:   6 ( 4, 2)   Active Orb.:   5   *
  *  Doubly Occ. :  44           Doubly Vir.: 445   *
  *  Frozen Occ. :  14           Frozen Vir.:   0   *
  *                                                 *
  *  Total CI configurations:        50             * 
  *    Active configurations:        50             * 
  *      Hole configurations:         0             * 
  *  Particle configurations:         0             * 
  *                                                 *
  *   Requested states:       30                    *
  *  Spin multiplicity: Any multiplicity            *
  *                                                 *
  ***************************************************
-----------------------------------------
    Memory requirements of RASCI

 Each CI-vector requires      0.00 MiB 
 Max. subspace vectors             50      

 Reduced Lists                0.00 MiB 
 Excitation Lists             0.00 MiB 
 Excitation Lists Sign        0.00 MiB 
 CI-space (Max)               0.05 MiB 
 Integrals                  101.72 MiB 
 Memory required (Max)      101.72 MiB 
 Memory available          7811.55 MiB 

    Disk requirements of RASCI

 Fock matrix                  3.72 MiB 
 2-electron integrals         0.01 MiB 
 CI-space                     0.04 MiB 
 Disk required                3.77 MiB 
-----------------------------------------
  
RAS1 HF-like energy:           -530.4901790799
 Computing integrals
 Computing J and K matrices
 Computing addressing
 Making amplitude guesses
 
Direct CI diagonalization
 ---------------------------------------------------
 Iter    Rts Conv    Rts Left    Ttl Dev     Max Dev
 ---------------------------------------------------
   1        11          19      0.016807    0.002278
   2        30           0      0.000001    0.000001    Roots Converged
 ---------------------------------------------------
   
**************************************************
 RAS-CI total energy for state   1:   -536.111951432363
  Excitation energy (eV) =  0.000000000000
  State symmetry: A1  (C1       )
  <S^2>      :  2.0000
  Dipole Moment:   -0.0000 X    -0.0000 Y     0.0002 Z
 NATURAL OCCUPATION NUMBERS (higher than 1.0E-05)
            1           2           3           4           5           6
    1   2.0000000   2.0000000   2.0000000   2.0000000   2.0000000   2.0000000
            7           8           9          10          11          12
    1   2.0000000   2.0000000   2.0000000   2.0000000   2.0000000   2.0000000
           13          14          15          16          17          18
    1   2.0000000   2.0000000   2.0000000   2.0000000   2.0000000   2.0000000
           19          20          21          22          23          24
    1   2.0000000   2.0000000   2.0000000   2.0000000   2.0000000   2.0000000
           25          26          27          28          29          30
    1   2.0000000   2.0000000   2.0000000   2.0000000   2.0000000   2.0000000
           31          32          33          34          35          36
    1   2.0000000   2.0000000   2.0000000   2.0000000   2.0000000   2.0000000
           37          38          39          40          41          42
    1   2.0000000   2.0000000   2.0000000   2.0000000   2.0000000   2.0000000
           43          44          45          46          47          48
    1   2.0000000   2.0000000   1.9999896   1.9999695   1.0000030   1.0000000
           49
    1   0.0000379

 Head-Gordon Nu:    2.00
 Head-Gordon Nu_nl: 2.00
 Created directory ./qchem3754207/plots

  Amplitudes : 
  
 | HOLE  | ALPHA | BETA  | PART  |    AMPLITUDE 
--------------------------------------------------
 |       | 11110 | 11000 |       |     9.9998976539513E-01
--------------------------------------------------
*** Contributions RASCI wfn    Active: 100.00
                                 Hole:   0.00
                                 Part:   0.00

      Mulliken population analysis 
 ---------------------------------------------------
   Atom    Charge (a.u.)   Spin (a.u.)  
 ---------------------------------------------------
   1  C    0.186187        0.032621 
   2  C   -0.201457        0.074776 
   3  H    0.123863        0.000414 
   4  C   -0.124297        0.037577 
   5  H    0.123061        0.000274 
   6  C   -0.124203        0.037577 
   7  H    0.123072        0.000274 
   8  C   -0.201523        0.074776 
   9  H    0.123867        0.000414 
  10  C    0.185733        0.032621 
  11  C   -0.340961        0.704648 
  12  H    0.126467        0.004029 
  13  C   -0.340462        0.704648 
  14  H    0.126496        0.004029 
  15  C    0.185642        0.032620 
  16  C   -0.201438        0.074778 
  17  H    0.123873        0.000414 
  18  C   -0.124335        0.037576 
  19  H    0.123098        0.000274 
  20  C   -0.124222        0.037576 
  21  H    0.123107        0.000274 
  22  C   -0.201578        0.074778 
  23  H    0.123864        0.000414 
  24  C    0.186148        0.032620 
 ---------------------------------------------------
   Sum:    0.000000        2.000000 
 ---------------------------------------------------
 
      Analysis of the transition density matrix (wrt ground state)
 -------------------------------------
   Atom      e-      h+     Total     
 -------------------------------------
      1  -5.8464   5.8464   0.0000
      2  -6.2762   6.2762   0.0000
      3  -0.8766   0.8766   0.0000
      4  -6.1619   6.1619   0.0000
      5  -0.8772   0.8772   0.0000
      6  -6.1618   6.1618   0.0000
      7  -0.8772   0.8772   0.0000
      8  -6.2763   6.2763   0.0000
      9  -0.8765   0.8765   0.0000
     10  -5.8469   5.8469   0.0000
     11  -7.0456   7.0456   0.0000
     12  -0.8776   0.8776  -0.0000
     13  -7.0451   7.0451   0.0000
     14  -0.8775   0.8775   0.0000
     15  -5.8470   5.8470   0.0000
     16  -6.2762   6.2762   0.0000
     17  -0.8765   0.8765  -0.0000
     18  -6.1619   6.1619   0.0000
     19  -0.8772   0.8772   0.0000
     20  -6.1618   6.1618   0.0000
     21  -0.8772   0.8772   0.0000
     22  -6.2764   6.2764   0.0000
     23  -0.8765   0.8765   0.0000
     24  -5.8465   5.8465   0.0000
  Sum:  -95.9999  95.9999  -0.0000
 -------------------------------------
 
      Analysis of the difference density matrix (wrt ground state)
 -------------------------------------
   Atom   Attach   Detach   Total     
 -------------------------------------
      1   0.0000   0.0000   0.0000
      2   0.0000   0.0000   0.0000
      3   0.0000   0.0000   0.0000
      4   0.0000   0.0000   0.0000
      5   0.0000   0.0000   0.0000
      6   0.0000   0.0000   0.0000
      7   0.0000   0.0000   0.0000
      8   0.0000   0.0000   0.0000
      9   0.0000   0.0000   0.0000
     10   0.0000   0.0000   0.0000
     11   0.0000   0.0000   0.0000
     12   0.0000   0.0000   0.0000
     13   0.0000   0.0000   0.0000
     14   0.0000   0.0000   0.0000
     15   0.0000   0.0000   0.0000
     16   0.0000   0.0000   0.0000
     17   0.0000   0.0000   0.0000
     18   0.0000   0.0000   0.0000
     19   0.0000   0.0000   0.0000
     20   0.0000   0.0000   0.0000
     21   0.0000   0.0000   0.0000
     22   0.0000   0.0000   0.0000
     23   0.0000   0.0000   0.0000
     24   0.0000   0.0000   0.0000
  Sum:    0.0000   0.0000   0.0000
 -------------------------------------
 
*** Unpaired Electrons
 Yamaguchi Nd:         2.00
  
**************************************************
 RAS-CI total energy for state   2:   -535.943436934839
  Excitation energy (eV) =  4.585512781235
  State symmetry: A1  (C1       )
  <S^2>      :  2.0000
  Dipole Moment:    0.0002 X     0.0000 Y     0.0005 Z
  Trans. Moment:   -0.0000 X    -0.0000 Y    -0.0000 Z
  Strength   :  0.000000
  Natural transition orbitals ( 1 -> 2 ):
   e-/hole pair  1 alpha:  ampl =  0.999966 (100.0%)   [5 : 6]
   e-/hole pair  2 alpha:  ampl =  0.000010 (  0.0%)   [4 : 7]
   e-/hole pair  1 beta :  ampl =  0.000026 (  0.0%)   [5 : 6]
   e-/hole pair  2 beta :  ampl =  0.000012 (  0.0%)   [4 : 7]
   Sum of square amplitudes: 1.00

 NATURAL OCCUPATION NUMBERS (higher than 1.0E-05)
            1           2           3           4           5           6
    1   2.0000000   2.0000000   2.0000000   2.0000000   2.0000000   2.0000000
            7           8           9          10          11          12
    1   2.0000000   2.0000000   2.0000000   2.0000000   2.0000000   2.0000000
           13          14          15          16          17          18
    1   2.0000000   2.0000000   2.0000000   2.0000000   2.0000000   2.0000000
           19          20          21          22          23          24
    1   2.0000000   2.0000000   2.0000000   2.0000000   2.0000000   2.0000000
           25          26          27          28          29          30
    1   2.0000000   2.0000000   2.0000000   2.0000000   2.0000000   2.0000000
           31          32          33          34          35          36
    1   2.0000000   2.0000000   2.0000000   2.0000000   2.0000000   2.0000000
           37          38          39          40          41          42
    1   2.0000000   2.0000000   2.0000000   2.0000000   2.0000000   2.0000000
           43          44          45          46          47          48
    1   2.0000000   2.0000000   1.9999555   1.9999512   1.0000042   1.0000000
           49
    1   0.0000891

 Head-Gordon Nu:    2.00
 Head-Gordon Nu_nl: 2.00

  Amplitudes : 
  
 | HOLE  | ALPHA | BETA  | PART  |    AMPLITUDE 
--------------------------------------------------
 |       | 11101 | 11000 |       |     9.9997668546324E-01
--------------------------------------------------
*** Contributions RASCI wfn    Active: 100.00
                                 Hole:   0.00
                                 Part:   0.00

      Mulliken population analysis 
 ---------------------------------------------------
   Atom    Charge (a.u.)   Spin (a.u.)  
 ---------------------------------------------------
   1  C    0.100949        0.117864 
   2  C   -0.174732        0.048052 
   3  H    0.124059        0.000219 
   4  C   -0.234491        0.147774 
   5  H    0.121875        0.001460 
   6  C   -0.234396        0.147774 
   7  H    0.121886        0.001460 
   8  C   -0.174799        0.048052 
   9  H    0.124063        0.000219 
  10  C    0.100495        0.117865 
  11  C   -0.003779        0.367442 
  12  H    0.128661        0.001836 
  13  C   -0.003280        0.367442 
  14  H    0.128690        0.001836 
  15  C    0.100412        0.117856 
  16  C   -0.174712        0.048052 
  17  H    0.124069        0.000219 
  18  C   -0.234521        0.147765 
  19  H    0.121912        0.001460 
  20  C   -0.234408        0.147765 
  21  H    0.121921        0.001460 
  22  C   -0.174852        0.048052 
  23  H    0.124060        0.000219 
  24  C    0.100917        0.117857 
 ---------------------------------------------------
   Sum:    0.000000        2.000000 
 ---------------------------------------------------
 
      Analysis of the transition density matrix (wrt ground state)
 -------------------------------------
   Atom      e-      h+     Total     
 -------------------------------------
      1  -0.2012   0.0307  -0.1705
      2  -0.0238   0.0772   0.0534
      3  -0.0000   0.0004   0.0004
      4  -0.2601   0.0397  -0.2204
      5  -0.0027   0.0004  -0.0024
      6  -0.2601   0.0397  -0.2204
      7  -0.0027   0.0004  -0.0024
      8  -0.0238   0.0772   0.0534
      9  -0.0000   0.0004   0.0004
     10  -0.2012   0.0307  -0.1705
     11  -0.0243   0.6987   0.6744
     12  -0.0000   0.0044   0.0044
     13  -0.0243   0.6987   0.6744
     14  -0.0000   0.0044   0.0044
     15  -0.2012   0.0307  -0.1705
     16  -0.0238   0.0772   0.0534
     17  -0.0000   0.0004   0.0004
     18  -0.2601   0.0397  -0.2204
     19  -0.0027   0.0004  -0.0024
     20  -0.2601   0.0397  -0.2204
     21  -0.0027   0.0004  -0.0024
     22  -0.0238   0.0772   0.0534
     23  -0.0000   0.0004   0.0004
     24  -0.2012   0.0307  -0.1705
  Sum:   -1.9999   1.9999   0.0000
 -------------------------------------
 
      Analysis of the difference density matrix (wrt ground state)
 -------------------------------------
   Atom   Attach   Detach   Total     
 -------------------------------------
      1   0.1006  -0.0154   0.0852
      2   0.0119  -0.0386  -0.0267
      3   0.0000  -0.0002  -0.0002
      4   0.1301  -0.0199   0.1102
      5   0.0014  -0.0002   0.0012
      6   0.1301  -0.0199   0.1102
      7   0.0014  -0.0002   0.0012
      8   0.0119  -0.0386  -0.0267
      9   0.0000  -0.0002  -0.0002
     10   0.1006  -0.0154   0.0852
     11   0.0122  -0.3493  -0.3372
     12   0.0000  -0.0022  -0.0022
     13   0.0122  -0.3493  -0.3372
     14   0.0000  -0.0022  -0.0022
     15   0.1006  -0.0154   0.0852
     16   0.0119  -0.0386  -0.0267
     17   0.0000  -0.0002  -0.0002
     18   0.1300  -0.0199   0.1102
     19   0.0014  -0.0002   0.0012
     20   0.1300  -0.0199   0.1102
     21   0.0014  -0.0002   0.0012
     22   0.0119  -0.0386  -0.0267
     23   0.0000  -0.0002  -0.0002
     24   0.1006  -0.0154   0.0852
  Sum:    1.0000  -1.0000  -0.0000
 -------------------------------------
 
*** Unpaired Electrons
 Yamaguchi Nd:         2.00
  
**************************************************
 RAS-CI total energy for state   3:   -535.823831550748
  Excitation energy (eV) =  7.840140872656
  State symmetry: A1  (C1       )
  <S^2>      :  2.0000
  Dipole Moment:    0.0001 X    -0.0000 Y     0.0005 Z
  Trans. Moment:   -1.9559 X    -0.0000 Y     0.0000 Z
  Strength   :  0.734783
  Natural transition orbitals ( 1 -> 3 ):
   e-/hole pair  1 alpha:  ampl =  0.999937 (100.0%)   [5 : 6]
   e-/hole pair  2 alpha:  ampl =  0.000000 (  0.0%)   [4 : 7]
   e-/hole pair  1 beta :  ampl =  0.000167 (  0.0%)   [5 : 6]
   e-/hole pair  2 beta :  ampl =  0.000003 (  0.0%)   [4 : 7]
   Sum of square amplitudes: 1.00

 NATURAL OCCUPATION NUMBERS (higher than 1.0E-05)
            1           2           3           4           5           6
    1   2.0000000   2.0000000   2.0000000   2.0000000   2.0000000   2.0000000
            7           8           9          10          11          12
    1   2.0000000   2.0000000   2.0000000   2.0000000   2.0000000   2.0000000
           13          14          15          16          17          18
    1   2.0000000   2.0000000   2.0000000   2.0000000   2.0000000   2.0000000
           19          20          21          22          23          24
    1   2.0000000   2.0000000   2.0000000   2.0000000   2.0000000   2.0000000
           25          26          27          28          29          30
    1   2.0000000   2.0000000   2.0000000   2.0000000   2.0000000   2.0000000
           31          32          33          34          35          36
    1   2.0000000   2.0000000   2.0000000   2.0000000   2.0000000   2.0000000
           37          38          39          40          41          42
    1   2.0000000   2.0000000   2.0000000   2.0000000   2.0000000   2.0000000
           43          44          45          46          47          48
    1   2.0000000   2.0000000   1.9999247   1.9998658   1.0000000   1.0000000
           49
    1   0.0002094

 Head-Gordon Nu:    2.00
 Head-Gordon Nu_nl: 2.00

  Amplitudes : 
  
 | HOLE  | ALPHA | BETA  | PART  |    AMPLITUDE 
--------------------------------------------------
 |       | 11011 | 11000 |       |     9.9994761425447E-01
--------------------------------------------------
*** Contributions RASCI wfn    Active: 100.00
                                 Hole:   0.00
                                 Part:   0.00

      Mulliken population analysis 
 ---------------------------------------------------
   Atom    Charge (a.u.)   Spin (a.u.)  
 ---------------------------------------------------
   1  C    0.102852        0.115968 
   2  C   -0.177200        0.050521 
   3  H    0.124075        0.000204 
   4  C   -0.236630        0.149918 
   5  H    0.121801        0.001537 
   6  C   -0.236535        0.149918 
   7  H    0.121812        0.001537 
   8  C   -0.177266        0.050521 
   9  H    0.124079        0.000204 
  10  C    0.102397        0.115969 
  11  C    0.002100        0.361526 
  12  H    0.128306        0.002192 
  13  C    0.002599        0.361526 
  14  H    0.128336        0.002192 
  15  C    0.102316        0.115959 
  16  C   -0.177180        0.050522 
  17  H    0.124085        0.000204 
  18  C   -0.236662        0.149911 
  19  H    0.121838        0.001537 
  20  C   -0.236548        0.149910 
  21  H    0.121847        0.001537 
  22  C   -0.177320        0.050522 
  23  H    0.124076        0.000204 
  24  C    0.102821        0.115959 
 ---------------------------------------------------
   Sum:    0.000000        2.000000 
 ---------------------------------------------------
 
      Analysis of the transition density matrix (wrt ground state)
 -------------------------------------
   Atom      e-      h+     Total     
 -------------------------------------
      1  -0.2012   0.0345  -0.1667
      2  -0.0238   0.0723   0.0485
      3  -0.0000   0.0004   0.0004
      4  -0.2601   0.0354  -0.2247
      5  -0.0027   0.0002  -0.0025
      6  -0.2601   0.0354  -0.2247
      7  -0.0027   0.0002  -0.0025
      8  -0.0238   0.0723   0.0485
      9  -0.0000   0.0004   0.0004
     10  -0.2012   0.0345  -0.1667
     11  -0.0243   0.7105   0.6862
     12  -0.0000   0.0037   0.0037
     13  -0.0243   0.7105   0.6862
     14  -0.0000   0.0037   0.0037
     15  -0.2012   0.0345  -0.1667
     16  -0.0238   0.0723   0.0485
     17  -0.0000   0.0004   0.0004
     18  -0.2601   0.0354  -0.2246
     19  -0.0027   0.0002  -0.0025
     20  -0.2601   0.0354  -0.2246
     21  -0.0027   0.0002  -0.0025
     22  -0.0238   0.0723   0.0485
     23  -0.0000   0.0004   0.0004
     24  -0.2012   0.0345  -0.1667
  Sum:   -1.9997   1.9997   0.0000
 -------------------------------------
 
      Analysis of the difference density matrix (wrt ground state)
 -------------------------------------
   Atom   Attach   Detach   Total     
 -------------------------------------
      1   0.1006  -0.0173   0.0833
      2   0.0119  -0.0362  -0.0243
      3   0.0000  -0.0002  -0.0002
      4   0.1301  -0.0177   0.1123
      5   0.0014  -0.0001   0.0013
      6   0.1301  -0.0177   0.1123
      7   0.0014  -0.0001   0.0013
      8   0.0119  -0.0362  -0.0243
      9   0.0000  -0.0002  -0.0002
     10   0.1006  -0.0173   0.0833
     11   0.0122  -0.3552  -0.3431
     12   0.0000  -0.0018  -0.0018
     13   0.0122  -0.3552  -0.3431
     14   0.0000  -0.0018  -0.0018
     15   0.1006  -0.0173   0.0833
     16   0.0119  -0.0362  -0.0243
     17   0.0000  -0.0002  -0.0002
     18   0.1300  -0.0177   0.1123
     19   0.0014  -0.0001   0.0013
     20   0.1300  -0.0177   0.1123
     21   0.0014  -0.0001   0.0013
     22   0.0119  -0.0362  -0.0243
     23   0.0000  -0.0002  -0.0002
     24   0.1006  -0.0173   0.0833
  Sum:    1.0000  -1.0000  -0.0000
 -------------------------------------
 
*** Unpaired Electrons
 Yamaguchi Nd:         2.00
  
**************************************************
 RAS-CI total energy for state   4:   -535.815582698242
  Excitation energy (eV) =  8.064603569650
  State symmetry: A1  (C1       )
  <S^2>      :  2.0000
  Dipole Moment:    0.0005 X    -0.0000 Y     0.0001 Z
  Trans. Moment:    0.0006 X     0.0002 Y     0.0000 Z
  Strength   :  0.000000
  Natural transition orbitals ( 1 -> 4 ):
   e-/hole pair  1 alpha:  ampl =  0.000171 (  0.0%)   [5 : 6]
   e-/hole pair  2 alpha:  ampl =  0.000003 (  0.0%)   [4 : 7]
   e-/hole pair  1 beta :  ampl =  0.999132 ( 99.8%)   [5 : 6]
   e-/hole pair  2 beta :  ampl =  0.000012 (  0.0%)   [4 : 7]
   Sum of square amplitudes: 1.00

 NATURAL OCCUPATION NUMBERS (higher than 1.0E-05)
            1           2           3           4           5           6
    1   2.0000000   2.0000000   2.0000000   2.0000000   2.0000000   2.0000000
            7           8           9          10          11          12
    1   2.0000000   2.0000000   2.0000000   2.0000000   2.0000000   2.0000000
           13          14          15          16          17          18
    1   2.0000000   2.0000000   2.0000000   2.0000000   2.0000000   2.0000000
           19          20          21          22          23          24
    1   2.0000000   2.0000000   2.0000000   2.0000000   2.0000000   2.0000000
           25          26          27          28          29          30
    1   2.0000000   2.0000000   2.0000000   2.0000000   2.0000000   2.0000000
           31          32          33          34          35          36
    1   2.0000000   2.0000000   2.0000000   2.0000000   2.0000000   2.0000000
           37          38          39          40          41          42
    1   2.0000000   2.0000000   2.0000000   2.0000000   2.0000000   2.0000000
           43          44          45          46          47          48
    1   2.0000000   2.0000000   1.9994381   1.9975106   1.0005304   0.9995635
           49
    1   0.0029575

 Head-Gordon Nu:    2.01
 Head-Gordon Nu_nl: 2.00

  Amplitudes : 
  
 | HOLE  | ALPHA | BETA  | PART  |    AMPLITUDE 
--------------------------------------------------
 |       | 11110 | 10100 |       |     9.9912657981472E-01
--------------------------------------------------
*** Contributions RASCI wfn    Active: 100.00
                                 Hole:   0.00
                                 Part:   0.00

      Mulliken population analysis 
 ---------------------------------------------------
   Atom    Charge (a.u.)   Spin (a.u.)  
 ---------------------------------------------------
   1  C    0.259745        0.106465 
   2  C   -0.199327        0.076820 
   3  H    0.157681        0.034231 
   4  C   -0.119735        0.042522 
   5  H    0.128669        0.005886 
   6  C   -0.119643        0.042520 
   7  H    0.128681        0.005887 
   8  C   -0.199391        0.076822 
   9  H    0.157690        0.034236 
  10  C    0.259288        0.106462 
  11  C   -0.634359        0.410070 
  12  H    0.180458        0.058014 
  13  C   -0.633862        0.410068 
  14  H    0.180481        0.058007 
  15  C    0.259224        0.106495 
  16  C   -0.199293        0.076838 
  17  H    0.157707        0.034247 
  18  C   -0.119769        0.042531 
  19  H    0.128708        0.005889 
  20  C   -0.119656        0.042531 
  21  H    0.128718        0.005889 
  22  C   -0.199434        0.076837 
  23  H    0.157698        0.034247 
  24  C    0.259722        0.106488 
 ---------------------------------------------------
   Sum:    0.000000        2.000000 
 ---------------------------------------------------
 
      Analysis of the transition density matrix (wrt ground state)
 -------------------------------------
   Atom      e-      h+     Total     
 -------------------------------------
      1  -0.0000   0.0000  -0.0000
      2  -0.0000   0.0000   0.0000
      3  -0.0000   0.0000  -0.0000
      4  -0.0000   0.0000  -0.0000
      5  -0.0000   0.0000  -0.0000
      6  -0.0000   0.0000  -0.0000
      7  -0.0000   0.0000  -0.0000
      8  -0.0000   0.0000   0.0000
      9  -0.0000   0.0000  -0.0000
     10  -0.0000   0.0000  -0.0000
     11  -0.0000   0.0000   0.0000
     12  -0.0000   0.0000  -0.0000
     13  -0.0000   0.0000   0.0000
     14  -0.0000   0.0000  -0.0000
     15  -0.0000   0.0000  -0.0000
     16  -0.0000   0.0000   0.0000
     17  -0.0000   0.0000  -0.0000
     18  -0.0000   0.0000  -0.0000
     19  -0.0000   0.0000  -0.0000
     20  -0.0000   0.0000  -0.0000
     21  -0.0000   0.0000  -0.0000
     22  -0.0000   0.0000   0.0000
     23  -0.0000   0.0000  -0.0000
     24  -0.0000   0.0000  -0.0000
  Sum:   -0.0000   0.0000   0.0000
 -------------------------------------
 
      Analysis of the difference density matrix (wrt ground state)
 -------------------------------------
   Atom   Attach   Detach   Total     
 -------------------------------------
      1   0.0175  -0.0911  -0.0736
      2   0.0361  -0.0382  -0.0021
      3   0.0002  -0.0340  -0.0338
      4   0.0180  -0.0226  -0.0046
      5   0.0001  -0.0057  -0.0056
      6   0.0180  -0.0226  -0.0046
      7   0.0001  -0.0057  -0.0056
      8   0.0361  -0.0382  -0.0021
      9   0.0002  -0.0340  -0.0338
     10   0.0175  -0.0911  -0.0736
     11   0.3544  -0.0610   0.2934
     12   0.0018  -0.0558  -0.0540
     13   0.3544  -0.0610   0.2934
     14   0.0018  -0.0558  -0.0540
     15   0.0175  -0.0911  -0.0736
     16   0.0361  -0.0382  -0.0021
     17   0.0002  -0.0340  -0.0338
     18   0.0181  -0.0226  -0.0046
     19   0.0001  -0.0057  -0.0056
     20   0.0181  -0.0226  -0.0046
     21   0.0001  -0.0057  -0.0056
     22   0.0361  -0.0382  -0.0021
     23   0.0002  -0.0340  -0.0338
     24   0.0175  -0.0911  -0.0736
  Sum:    1.0004  -1.0004   0.0000
 -------------------------------------
 
*** Unpaired Electrons
 Yamaguchi Nd:         2.01
  
**************************************************
 RAS-CI total energy for state   5:   -535.796499806921
  Excitation energy (eV) =  8.583875462227
  State symmetry: A1  (C1       )
  <S^2>      :  2.0000
  Dipole Moment:    0.0003 X    -0.0000 Y    -0.0000 Z
  Trans. Moment:    0.0002 X     0.0000 Y    -0.0000 Z
  Strength   :  0.000000
  Natural transition orbitals ( 1 -> 5 ):
   e-/hole pair  1 alpha:  ampl =  0.000127 (  0.0%)   [5 : 6]
   e-/hole pair  2 alpha:  ampl =  0.000001 (  0.0%)   [4 : 7]
   e-/hole pair  1 beta :  ampl =  0.998756 ( 99.8%)   [5 : 6]
   e-/hole pair  2 beta :  ampl =  0.000018 (  0.0%)   [4 : 7]
   Sum of square amplitudes: 1.00

 NATURAL OCCUPATION NUMBERS (higher than 1.0E-05)
            1           2           3           4           5           6
    1   2.0000000   2.0000000   2.0000000   2.0000000   2.0000000   2.0000000
            7           8           9          10          11          12
    1   2.0000000   2.0000000   2.0000000   2.0000000   2.0000000   2.0000000
           13          14          15          16          17          18
    1   2.0000000   2.0000000   2.0000000   2.0000000   2.0000000   2.0000000
           19          20          21          22          23          24
    1   2.0000000   2.0000000   2.0000000   2.0000000   2.0000000   2.0000000
           25          26          27          28          29          30
    1   2.0000000   2.0000000   2.0000000   2.0000000   2.0000000   2.0000000
           31          32          33          34          35          36
    1   2.0000000   2.0000000   2.0000000   2.0000000   2.0000000   2.0000000
           37          38          39          40          41          42
    1   2.0000000   2.0000000   2.0000000   2.0000000   2.0000000   2.0000000
           43          44          45          46          47          48
    1   2.0000000   2.0000000   1.9989029   1.9970169   1.0010861   0.9991309
           49
    1   0.0038631

 Head-Gordon Nu:    2.01
 Head-Gordon Nu_nl: 2.00

  Amplitudes : 
  
 | HOLE  | ALPHA | BETA  | PART  |    AMPLITUDE 
--------------------------------------------------
 |       | 11110 | 01100 |       |     9.9876112719968E-01
--------------------------------------------------
*** Contributions RASCI wfn    Active: 100.00
                                 Hole:   0.00
                                 Part:   0.00

      Mulliken population analysis 
 ---------------------------------------------------
   Atom    Charge (a.u.)   Spin (a.u.)  
 ---------------------------------------------------
   1  C    0.229737        0.076584 
   2  C   -0.175663        0.100447 
   3  H    0.123941        0.000491 
   4  C   -0.087291        0.075132 
   5  H    0.157222        0.034441 
   6  C   -0.087196        0.075132 
   7  H    0.157233        0.034442 
   8  C   -0.175730        0.100446 
   9  H    0.123945        0.000491 
  10  C    0.229284        0.076586 
  11  C   -0.620618        0.423310 
  12  H    0.124919        0.002471 
  13  C   -0.620119        0.423310 
  14  H    0.124948        0.002471 
  15  C    0.229194        0.076587 
  16  C   -0.175635        0.100458 
  17  H    0.123951        0.000491 
  18  C   -0.087317        0.075143 
  19  H    0.157262        0.034445 
  20  C   -0.087204        0.075144 
  21  H    0.157271        0.034445 
  22  C   -0.175775        0.100458 
  23  H    0.123942        0.000491 
  24  C    0.229700        0.076587 
 ---------------------------------------------------
   Sum:   -0.000000        2.000000 
 ---------------------------------------------------
 
      Analysis of the transition density matrix (wrt ground state)
 -------------------------------------
   Atom      e-      h+     Total     
 -------------------------------------
      1  -0.0000   0.0000  -0.0000
      2  -0.0000   0.0000  -0.0000
      3  -0.0000   0.0000  -0.0000
      4  -0.0000   0.0000  -0.0000
      5  -0.0000   0.0000  -0.0000
      6  -0.0000   0.0000  -0.0000
      7  -0.0000   0.0000  -0.0000
      8  -0.0000   0.0000  -0.0000
      9  -0.0000   0.0000  -0.0000
     10  -0.0000   0.0000  -0.0000
     11  -0.0000   0.0000   0.0000
     12  -0.0000   0.0000   0.0000
     13  -0.0000   0.0000   0.0000
     14  -0.0000   0.0000   0.0000
     15  -0.0000   0.0000  -0.0000
     16  -0.0000   0.0000  -0.0000
     17  -0.0000   0.0000  -0.0000
     18  -0.0000   0.0000  -0.0000
     19  -0.0000   0.0000  -0.0000
     20  -0.0000   0.0000  -0.0000
     21  -0.0000   0.0000  -0.0000
     22  -0.0000   0.0000  -0.0000
     23  -0.0000   0.0000  -0.0000
     24  -0.0000   0.0000  -0.0000
  Sum:   -0.0000   0.0000   0.0000
 -------------------------------------
 
      Analysis of the difference density matrix (wrt ground state)
 -------------------------------------
   Atom   Attach   Detach   Total     
 -------------------------------------
      1   0.0176  -0.0611  -0.0435
      2   0.0361  -0.0619  -0.0258
      3   0.0002  -0.0003  -0.0001
      4   0.0182  -0.0552  -0.0370
      5   0.0001  -0.0343  -0.0342
      6   0.0182  -0.0552  -0.0370
      7   0.0001  -0.0343  -0.0342
      8   0.0361  -0.0619  -0.0258
      9   0.0002  -0.0003  -0.0001
     10   0.0176  -0.0611  -0.0436
     11   0.3543  -0.0746   0.2797
     12   0.0018  -0.0003   0.0015
     13   0.3543  -0.0746   0.2797
     14   0.0018  -0.0003   0.0015
     15   0.0176  -0.0611  -0.0436
     16   0.0361  -0.0619  -0.0258
     17   0.0002  -0.0003  -0.0001
     18   0.0182  -0.0552  -0.0370
     19   0.0001  -0.0343  -0.0342
     20   0.0182  -0.0552  -0.0370
     21   0.0001  -0.0343  -0.0342
     22   0.0361  -0.0619  -0.0258
     23   0.0002  -0.0003  -0.0001
     24   0.0176  -0.0611  -0.0436
  Sum:    1.0008  -1.0008   0.0000
 -------------------------------------
 
*** Unpaired Electrons
 Yamaguchi Nd:         2.02
  
**************************************************
 RAS-CI total energy for state   6:   -535.745471520838
  Excitation energy (eV) =  9.972425773773
  State symmetry: A1  (C1       )
  <S^2>      :  2.0000
  Dipole Moment:    0.0007 X    -0.0000 Y     0.0004 Z
  Trans. Moment:   -0.0001 X     0.0000 Y    -0.0000 Z
  Strength   :  0.000000
  Natural transition orbitals ( 1 -> 6 ):
   e-/hole pair  1 alpha:  ampl =  0.000425 (  0.0%)   [5 : 6]
   e-/hole pair  2 alpha:  ampl =  0.000006 (  0.0%)   [4 : 7]
   e-/hole pair  1 beta :  ampl =  0.032851 (  0.1%)   [5 : 6]
   e-/hole pair  2 beta :  ampl =  0.000007 (  0.0%)   [4 : 7]
   Sum of square amplitudes: 0.00

 NATURAL OCCUPATION NUMBERS (higher than 1.0E-05)
            1           2           3           4           5           6
    1   2.0000000   2.0000000   2.0000000   2.0000000   2.0000000   2.0000000
            7           8           9          10          11          12
    1   2.0000000   2.0000000   2.0000000   2.0000000   2.0000000   2.0000000
           13          14          15          16          17          18
    1   2.0000000   2.0000000   2.0000000   2.0000000   2.0000000   2.0000000
           19          20          21          22          23          24
    1   2.0000000   2.0000000   2.0000000   2.0000000   2.0000000   2.0000000
           25          26          27          28          29          30
    1   2.0000000   2.0000000   2.0000000   2.0000000   2.0000000   2.0000000
           31          32          33          34          35          36
    1   2.0000000   2.0000000   2.0000000   2.0000000   2.0000000   2.0000000
           37          38          39          40          41          42
    1   2.0000000   2.0000000   2.0000000   2.0000000   2.0000000   2.0000000
           43          44          45          46          47          48
    1   2.0000000   2.0000000   1.9989048   1.7197841   1.0010840   0.9989271
           49
    1   0.2812999

 Head-Gordon Nu:    2.56
 Head-Gordon Nu_nl: 2.47

  Amplitudes : 
  
 | HOLE  | ALPHA | BETA  | PART  |    AMPLITUDE 
--------------------------------------------------
 |       | 11101 | 10100 |       |     9.2671839660291E-01
 |       | 11011 | 10010 |       |    -3.7430253314581E-01
--------------------------------------------------
*** Contributions RASCI wfn    Active: 100.00
                                 Hole:   0.00
                                 Part:   0.00

      Mulliken population analysis 
 ---------------------------------------------------
   Atom    Charge (a.u.)   Spin (a.u.)  
 ---------------------------------------------------
   1  C    0.175352        0.191556 
   2  C   -0.173383        0.050152 
   3  H    0.157860        0.034018 
   4  C   -0.230068        0.152560 
   5  H    0.127481        0.007087 
   6  C   -0.229975        0.152558 
   7  H    0.127492        0.007087 
   8  C   -0.173448        0.050153 
   9  H    0.157870        0.034023 
  10  C    0.174895        0.191554 
  11  C   -0.296853        0.073416 
  12  H    0.182512        0.055794 
  13  C   -0.296357        0.073412 
  14  H    0.182535        0.055788 
  15  C    0.174841        0.191575 
  16  C   -0.173347        0.050168 
  17  H    0.157887        0.034034 
  18  C   -0.230092        0.152559 
  19  H    0.127521        0.007090 
  20  C   -0.229979        0.152559 
  21  H    0.127529        0.007089 
  22  C   -0.173489        0.050166 
  23  H    0.157878        0.034034 
  24  C    0.175339        0.191569 
 ---------------------------------------------------
   Sum:    0.000000        2.000000 
 ---------------------------------------------------
 
      Analysis of the transition density matrix (wrt ground state)
 -------------------------------------
   Atom      e-      h+     Total     
 -------------------------------------
      1  -0.0000   0.0000  -0.0000
      2  -0.0000   0.0000  -0.0000
      3  -0.0000   0.0000  -0.0000
      4  -0.0000   0.0000  -0.0000
      5  -0.0000   0.0000  -0.0000
      6  -0.0000   0.0000  -0.0000
      7  -0.0000   0.0000  -0.0000
      8  -0.0000   0.0000  -0.0000
      9  -0.0000   0.0000  -0.0000
     10  -0.0000   0.0000  -0.0000
     11  -0.0000   0.0000   0.0000
     12  -0.0000   0.0000   0.0000
     13  -0.0000   0.0000   0.0000
     14  -0.0000   0.0000   0.0000
     15  -0.0000   0.0000  -0.0000
     16  -0.0000   0.0000  -0.0000
     17  -0.0000   0.0000  -0.0000
     18  -0.0000   0.0000  -0.0000
     19  -0.0000   0.0000  -0.0000
     20  -0.0000   0.0000  -0.0000
     21  -0.0000   0.0000  -0.0000
     22  -0.0000   0.0000  -0.0000
     23  -0.0000   0.0000  -0.0000
     24  -0.0000   0.0000  -0.0000
  Sum:   -0.0000   0.0000   0.0000
 -------------------------------------
 
      Analysis of the difference density matrix (wrt ground state)
 -------------------------------------
   Atom   Attach   Detach   Total     
 -------------------------------------
      1   0.1129  -0.1021   0.0108
      2   0.0379  -0.0660  -0.0281
      3   0.0002  -0.0342  -0.0340
      4   0.1427  -0.0369   0.1058
      5   0.0014  -0.0059  -0.0044
      6   0.1427  -0.0369   0.1058
      7   0.0014  -0.0059  -0.0044
      8   0.0379  -0.0660  -0.0281
      9   0.0002  -0.0342  -0.0340
     10   0.1129  -0.1021   0.0108
     11   0.2679  -0.3120  -0.0441
     12   0.0013  -0.0574  -0.0560
     13   0.2679  -0.3120  -0.0441
     14   0.0013  -0.0574  -0.0560
     15   0.1129  -0.1021   0.0108
     16   0.0379  -0.0660  -0.0281
     17   0.0002  -0.0342  -0.0340
     18   0.1427  -0.0369   0.1058
     19   0.0014  -0.0059  -0.0044
     20   0.1427  -0.0369   0.1058
     21   0.0014  -0.0059  -0.0044
     22   0.0379  -0.0660  -0.0281
     23   0.0002  -0.0342  -0.0340
     24   0.1129  -0.1021   0.0108
  Sum:    1.7187  -1.7187   0.0000
 -------------------------------------
 
*** Unpaired Electrons
 Yamaguchi Nd:         2.97
  
**************************************************
 RAS-CI total energy for state   7:   -535.742337255308
  Excitation energy (eV) = 10.057713478142
  State symmetry: A1  (C1       )
  <S^2>      :  2.0000
  Dipole Moment:    0.0005 X    -0.0000 Y     0.0003 Z
  Trans. Moment:   -0.0000 X    -0.0000 Y     0.0000 Z
  Strength   :  0.000000
  Natural transition orbitals ( 1 -> 7 ):
   e-/hole pair  1 alpha:  ampl =  0.000500 (  0.0%)   [5 : 6]
   e-/hole pair  2 alpha:  ampl =  0.000007 (  0.0%)   [4 : 7]
   e-/hole pair  1 beta :  ampl =  0.022949 (  0.1%)   [5 : 6]
   e-/hole pair  2 beta :  ampl =  0.000020 (  0.0%)   [4 : 7]
   Sum of square amplitudes: 0.00

 NATURAL OCCUPATION NUMBERS (higher than 1.0E-05)
            1           2           3           4           5           6
    1   2.0000000   2.0000000   2.0000000   2.0000000   2.0000000   2.0000000
            7           8           9          10          11          12
    1   2.0000000   2.0000000   2.0000000   2.0000000   2.0000000   2.0000000
           13          14          15          16          17          18
    1   2.0000000   2.0000000   2.0000000   2.0000000   2.0000000   2.0000000
           19          20          21          22          23          24
    1   2.0000000   2.0000000   2.0000000   2.0000000   2.0000000   2.0000000
           25          26          27          28          29          30
    1   2.0000000   2.0000000   2.0000000   2.0000000   2.0000000   2.0000000
           31          32          33          34          35          36
    1   2.0000000   2.0000000   2.0000000   2.0000000   2.0000000   2.0000000
           37          38          39          40          41          42
    1   2.0000000   2.0000000   2.0000000   2.0000000   2.0000000   2.0000000
           43          44          45          46          47          48
    1   2.0000000   2.0000000   1.9994567   1.7183286   1.0005286   0.9994774
           49
    1   0.2822088

 Head-Gordon Nu:    2.56
 Head-Gordon Nu_nl: 2.47

  Amplitudes : 
  
 | HOLE  | ALPHA | BETA  | PART  |    AMPLITUDE 
--------------------------------------------------
 |       | 11101 | 01100 |       |     9.2662284463257E-01
 |       | 11011 | 01010 |       |    -3.7527686095482E-01
--------------------------------------------------
*** Contributions RASCI wfn    Active: 100.00
                                 Hole:   0.00
                                 Part:   0.00

      Mulliken population analysis 
 ---------------------------------------------------
   Atom    Charge (a.u.)   Spin (a.u.)  
 ---------------------------------------------------
   1  C    0.145379        0.161676 
   2  C   -0.149731        0.073778 
   3  H    0.124121        0.000277 
   4  C   -0.197584        0.185171 
   5  H    0.156034        0.035642 
   6  C   -0.197489        0.185171 
   7  H    0.156047        0.035643 
   8  C   -0.149797        0.073778 
   9  H    0.124124        0.000277 
  10  C    0.144925        0.161677 
  11  C   -0.283233        0.086655 
  12  H    0.126971        0.000251 
  13  C   -0.282734        0.086655 
  14  H    0.127001        0.000251 
  15  C    0.144843        0.161667 
  16  C   -0.149701        0.073787 
  17  H    0.124130        0.000277 
  18  C   -0.197604        0.185171 
  19  H    0.156074        0.035645 
  20  C   -0.197490        0.185171 
  21  H    0.156085        0.035646 
  22  C   -0.149841        0.073788 
  23  H    0.124121        0.000277 
  24  C    0.145348        0.161667 
 ---------------------------------------------------
   Sum:   -0.000000        2.000000 
 ---------------------------------------------------
 
      Analysis of the transition density matrix (wrt ground state)
 -------------------------------------
   Atom      e-      h+     Total     
 -------------------------------------
      1  -0.0000   0.0000  -0.0000
      2  -0.0000   0.0000  -0.0000
      3  -0.0000   0.0000  -0.0000
      4  -0.0000   0.0000  -0.0000
      5  -0.0000   0.0000  -0.0000
      6  -0.0000   0.0000  -0.0000
      7  -0.0000   0.0000  -0.0000
      8  -0.0000   0.0000  -0.0000
      9  -0.0000   0.0000  -0.0000
     10  -0.0000   0.0000  -0.0000
     11  -0.0000   0.0000   0.0000
     12  -0.0000   0.0000  -0.0000
     13  -0.0000   0.0000   0.0000
     14  -0.0000   0.0000  -0.0000
     15  -0.0000   0.0000  -0.0000
     16  -0.0000   0.0000  -0.0000
     17  -0.0000   0.0000  -0.0000
     18  -0.0000   0.0000  -0.0000
     19  -0.0000   0.0000  -0.0000
     20  -0.0000   0.0000  -0.0000
     21  -0.0000   0.0000  -0.0000
     22  -0.0000   0.0000  -0.0000
     23  -0.0000   0.0000  -0.0000
     24  -0.0000   0.0000  -0.0000
  Sum:   -0.0000   0.0000   0.0000
 -------------------------------------
 
      Analysis of the difference density matrix (wrt ground state)
 -------------------------------------
   Atom   Attach   Detach   Total     
 -------------------------------------
      1   0.1129  -0.0721   0.0408
      2   0.0379  -0.0896  -0.0517
      3   0.0002  -0.0004  -0.0003
      4   0.1427  -0.0694   0.0733
      5   0.0014  -0.0344  -0.0330
      6   0.1427  -0.0694   0.0733
      7   0.0014  -0.0344  -0.0330
      8   0.0379  -0.0896  -0.0517
      9   0.0002  -0.0004  -0.0003
     10   0.1129  -0.0721   0.0408
     11   0.2674  -0.3251  -0.0577
     12   0.0013  -0.0018  -0.0005
     13   0.2674  -0.3251  -0.0577
     14   0.0013  -0.0018  -0.0005
     15   0.1129  -0.0721   0.0408
     16   0.0379  -0.0896  -0.0517
     17   0.0002  -0.0004  -0.0003
     18   0.1427  -0.0694   0.0733
     19   0.0014  -0.0344  -0.0330
     20   0.1427  -0.0694   0.0733
     21   0.0014  -0.0344  -0.0330
     22   0.0379  -0.0896  -0.0517
     23   0.0002  -0.0004  -0.0003
     24   0.1129  -0.0721   0.0408
  Sum:    1.7178  -1.7178   0.0000
 -------------------------------------
 
*** Unpaired Electrons
 Yamaguchi Nd:         2.97
  
**************************************************
 RAS-CI total energy for state   8:   -535.720984684315
  Excitation energy (eV) = 10.638746496895
  State symmetry: A1  (C1       )
  <S^2>      :  2.0000
  Dipole Moment:    0.0005 X     0.0000 Y     0.0001 Z
  Trans. Moment:   -0.0000 X     0.0000 Y     0.0165 Z
  Strength   :  0.000071
  Natural transition orbitals ( 1 -> 8 ):
   e-/hole pair  1 alpha:  ampl =  0.039445 (  0.2%)   [5 : 6]
   e-/hole pair  2 alpha:  ampl =  0.001168 (  0.0%)   [4 : 7]
   e-/hole pair  1 beta :  ampl =  0.998113 ( 99.6%)   [5 : 6]
   e-/hole pair  2 beta :  ampl =  0.016783 (  0.0%)   [4 : 7]
   Sum of square amplitudes: 1.00

 NATURAL OCCUPATION NUMBERS (higher than 1.0E-05)
            1           2           3           4           5           6
    1   2.0000000   2.0000000   2.0000000   2.0000000   2.0000000   2.0000000
            7           8           9          10          11          12
    1   2.0000000   2.0000000   2.0000000   2.0000000   2.0000000   2.0000000
           13          14          15          16          17          18
    1   2.0000000   2.0000000   2.0000000   2.0000000   2.0000000   2.0000000
           19          20          21          22          23          24
    1   2.0000000   2.0000000   2.0000000   2.0000000   2.0000000   2.0000000
           25          26          27          28          29          30
    1   2.0000000   2.0000000   2.0000000   2.0000000   2.0000000   2.0000000
           31          32          33          34          35          36
    1   2.0000000   2.0000000   2.0000000   2.0000000   2.0000000   2.0000000
           37          38          39          40          41          42
    1   2.0000000   2.0000000   2.0000000   2.0000000   2.0000000   2.0000000
           43          44          45          46          47          48
    1   2.0000000   2.0000000   1.9965011   1.9959449   1.0034707   1.0000000
           49
    1   0.0040833

 Head-Gordon Nu:    2.01
 Head-Gordon Nu_nl: 2.00

  Amplitudes : 
  
 | HOLE  | ALPHA | BETA  | PART  |    AMPLITUDE 
--------------------------------------------------
 |       | 11110 | 10010 |       |     9.9810971217496E-01
--------------------------------------------------
*** Contributions RASCI wfn    Active: 100.00
                                 Hole:   0.00
                                 Part:   0.00

      Mulliken population analysis 
 ---------------------------------------------------
   Atom    Charge (a.u.)   Spin (a.u.)  
 ---------------------------------------------------
   1  C    0.261450        0.108331 
   2  C   -0.201692        0.074286 
   3  H    0.157597        0.034146 
   4  C   -0.121904        0.040627 
   5  H    0.128675        0.005789 
   6  C   -0.121811        0.040625 
   7  H    0.128686        0.005791 
   8  C   -0.201756        0.074288 
   9  H    0.157606        0.034151 
  10  C    0.260993        0.108328 
  11  C   -0.628039        0.416073 
  12  H    0.179941        0.057495 
  13  C   -0.627543        0.416070 
  14  H    0.179964        0.057489 
  15  C    0.260934        0.108363 
  16  C   -0.201657        0.074304 
  17  H    0.157623        0.034163 
  18  C   -0.121934        0.040637 
  19  H    0.128714        0.005792 
  20  C   -0.121821        0.040637 
  21  H    0.128723        0.005792 
  22  C   -0.201798        0.074303 
  23  H    0.157614        0.034163 
  24  C    0.261433        0.108356 
 ---------------------------------------------------
   Sum:    0.000000        2.000000 
 ---------------------------------------------------
 
      Analysis of the transition density matrix (wrt ground state)
 -------------------------------------
   Atom      e-      h+     Total     
 -------------------------------------
      1  -0.0003   0.0002  -0.0001
      2  -0.0000   0.0002   0.0002
      3  -0.0000   0.0000   0.0000
      4  -0.0004   0.0002  -0.0002
      5  -0.0000   0.0001   0.0001
      6  -0.0004   0.0002  -0.0002
      7  -0.0000   0.0001   0.0001
      8  -0.0000   0.0002   0.0002
      9  -0.0000   0.0000   0.0000
     10  -0.0003   0.0002  -0.0001
     11  -0.0000   0.0002   0.0002
     12  -0.0000   0.0000   0.0000
     13  -0.0000   0.0002   0.0002
     14  -0.0000   0.0000   0.0000
     15  -0.0003   0.0002  -0.0001
     16  -0.0000   0.0002   0.0002
     17  -0.0000   0.0000   0.0000
     18  -0.0004   0.0002  -0.0002
     19  -0.0000   0.0001   0.0001
     20  -0.0004   0.0002  -0.0002
     21  -0.0000   0.0001   0.0001
     22  -0.0000   0.0002   0.0002
     23  -0.0000   0.0000   0.0000
     24  -0.0003   0.0002  -0.0001
  Sum:   -0.0031   0.0031  -0.0000
 -------------------------------------
 
      Analysis of the difference density matrix (wrt ground state)
 -------------------------------------
   Atom   Attach   Detach   Total     
 -------------------------------------
      1   0.0157  -0.0910  -0.0753
      2   0.0385  -0.0383   0.0002
      3   0.0002  -0.0339  -0.0337
      4   0.0203  -0.0227  -0.0024
      5   0.0002  -0.0058  -0.0056
      6   0.0203  -0.0227  -0.0024
      7   0.0002  -0.0058  -0.0056
      8   0.0385  -0.0383   0.0002
      9   0.0002  -0.0339  -0.0337
     10   0.0157  -0.0910  -0.0753
     11   0.3480  -0.0609   0.2871
     12   0.0022  -0.0557  -0.0535
     13   0.3480  -0.0609   0.2871
     14   0.0022  -0.0557  -0.0535
     15   0.0157  -0.0910  -0.0753
     16   0.0385  -0.0383   0.0002
     17   0.0002  -0.0339  -0.0337
     18   0.0203  -0.0227  -0.0024
     19   0.0002  -0.0058  -0.0056
     20   0.0203  -0.0227  -0.0024
     21   0.0002  -0.0058  -0.0056
     22   0.0385  -0.0383   0.0002
     23   0.0002  -0.0339  -0.0337
     24   0.0157  -0.0910  -0.0753
  Sum:    1.0000  -1.0000   0.0000
 -------------------------------------
 
*** Unpaired Electrons
 Yamaguchi Nd:         2.02
  
**************************************************
 RAS-CI total energy for state   9:   -535.713726850522
  Excitation energy (eV) = 10.836242202689
  State symmetry: A1  (C1       )
  <S^2>      :  6.0000
  Dipole Moment:    0.0007 X    -0.0000 Y     0.0004 Z
  Trans. Moment:    0.0000 X     0.0000 Y     0.0000 Z
  Strength   :  0.000000
  Natural transition orbitals ( 1 -> 9 ):
   e-/hole pair  1 alpha:  ampl =  0.499995 ( 25.0%)   [5 : 6]
   e-/hole pair  2 alpha:  ampl =  0.000959 (  0.0%)   [4 : 7]
   e-/hole pair  1 beta :  ampl =  0.499995 ( 25.0%)   [5 : 6]
   e-/hole pair  2 beta :  ampl =  0.000959 (  0.0%)   [4 : 7]
   Sum of square amplitudes: 0.50

 NATURAL OCCUPATION NUMBERS (higher than 1.0E-05)
            1           2           3           4           5           6
    1   2.0000000   2.0000000   2.0000000   2.0000000   2.0000000   2.0000000
            7           8           9          10          11          12
    1   2.0000000   2.0000000   2.0000000   2.0000000   2.0000000   2.0000000
           13          14          15          16          17          18
    1   2.0000000   2.0000000   2.0000000   2.0000000   2.0000000   2.0000000
           19          20          21          22          23          24
    1   2.0000000   2.0000000   2.0000000   2.0000000   2.0000000   2.0000000
           25          26          27          28          29          30
    1   2.0000000   2.0000000   2.0000000   2.0000000   2.0000000   2.0000000
           31          32          33          34          35          36
    1   2.0000000   2.0000000   2.0000000   2.0000000   2.0000000   2.0000000
           37          38          39          40          41          42
    1   2.0000000   2.0000000   2.0000000   2.0000000   2.0000000   2.0000000
           43          44          45          46          47          48
    1   2.0000000   2.0000000   2.0000000   1.0000000   1.0000000   1.0000000
           49
    1   1.0000000

 Head-Gordon Nu:    4.00
 Head-Gordon Nu_nl: 4.00

  Amplitudes : 
  
 | HOLE  | ALPHA | BETA  | PART  |    AMPLITUDE 
--------------------------------------------------
 |       | 11110 | 10001 |       |     4.9999999961079E-01
 |       | 11101 | 10010 |       |    -4.9999999961067E-01
 |       | 11011 | 10100 |       |     4.9999999961068E-01
 |       | 10111 | 11000 |       |    -4.9999999961061E-01
--------------------------------------------------
*** Contributions RASCI wfn    Active: 100.00
                                 Hole:   0.00
                                 Part:   0.00

      Mulliken population analysis 
 ---------------------------------------------------
   Atom    Charge (a.u.)   Spin (a.u.)  
 ---------------------------------------------------
   1  C    0.176656        0.112150 
   2  C   -0.175158        0.062437 
   3  H    0.157908        0.017234 
   4  C   -0.231767        0.095110 
   5  H    0.127393        0.003665 
   6  C   -0.231674        0.095109 
   7  H    0.127403        0.003665 
   8  C   -0.175224        0.062437 
   9  H    0.157917        0.017237 
  10  C    0.176199        0.112149 
  11  C   -0.292246        0.388842 
  12  H    0.182318        0.029940 
  13  C   -0.291750        0.388841 
  14  H    0.182341        0.029937 
  15  C    0.176150        0.112161 
  16  C   -0.175121        0.062446 
  17  H    0.157934        0.017242 
  18  C   -0.231788        0.095110 
  19  H    0.127433        0.003667 
  20  C   -0.231674        0.095110 
  21  H    0.127440        0.003666 
  22  C   -0.175264        0.062445 
  23  H    0.157926        0.017242 
  24  C    0.176648        0.112158 
 ---------------------------------------------------
   Sum:    0.000000        2.000000 
 ---------------------------------------------------
 
      Analysis of the transition density matrix (wrt ground state)
 -------------------------------------
   Atom      e-      h+     Total     
 -------------------------------------
      1  -0.0503   0.0455  -0.0048
      2  -0.0059   0.0191   0.0131
      3  -0.0000   0.0170   0.0170
      4  -0.0650   0.0113  -0.0537
      5  -0.0007   0.0028   0.0022
      6  -0.0650   0.0113  -0.0537
      7  -0.0007   0.0028   0.0022
      8  -0.0059   0.0191   0.0132
      9  -0.0000   0.0170   0.0170
     10  -0.0503   0.0455  -0.0048
     11  -0.0061   0.0304   0.0244
     12  -0.0000   0.0279   0.0279
     13  -0.0061   0.0304   0.0244
     14  -0.0000   0.0279   0.0279
     15  -0.0503   0.0456  -0.0047
     16  -0.0059   0.0191   0.0132
     17  -0.0000   0.0170   0.0170
     18  -0.0650   0.0113  -0.0537
     19  -0.0007   0.0028   0.0022
     20  -0.0650   0.0113  -0.0537
     21  -0.0007   0.0028   0.0022
     22  -0.0059   0.0191   0.0132
     23  -0.0000   0.0170   0.0170
     24  -0.0503   0.0455  -0.0048
  Sum:   -0.5000   0.5000  -0.0000
 -------------------------------------
 
      Analysis of the difference density matrix (wrt ground state)
 -------------------------------------
   Atom   Attach   Detach   Total     
 -------------------------------------
      1   0.1006  -0.0911   0.0095
      2   0.0119  -0.0382  -0.0263
      3   0.0000  -0.0340  -0.0340
      4   0.1301  -0.0226   0.1075
      5   0.0014  -0.0057  -0.0043
      6   0.1301  -0.0226   0.1075
      7   0.0014  -0.0057  -0.0043
      8   0.0119  -0.0382  -0.0263
      9   0.0000  -0.0341  -0.0341
     10   0.1006  -0.0911   0.0095
     11   0.0122  -0.0609  -0.0487
     12   0.0000  -0.0559  -0.0559
     13   0.0122  -0.0609  -0.0487
     14   0.0000  -0.0558  -0.0558
     15   0.1006  -0.0911   0.0095
     16   0.0119  -0.0382  -0.0263
     17   0.0000  -0.0341  -0.0341
     18   0.1300  -0.0226   0.1075
     19   0.0014  -0.0057  -0.0043
     20   0.1300  -0.0226   0.1075
     21   0.0014  -0.0057  -0.0043
     22   0.0119  -0.0382  -0.0263
     23   0.0000  -0.0341  -0.0341
     24   0.1006  -0.0911   0.0095
  Sum:    1.0000  -1.0000   0.0000
 -------------------------------------
 
*** Unpaired Electrons
 Yamaguchi Nd:         4.00
  
**************************************************
 RAS-CI total energy for state  10:   -535.711500802943
  Excitation energy (eV) = 10.896816039203
  State symmetry: A1  (C1       )
  <S^2>      :  6.0000
  Dipole Moment:    0.0005 X    -0.0000 Y     0.0003 Z
  Trans. Moment:    0.0000 X    -0.0000 Y     0.0000 Z
  Strength   :  0.000000
  Natural transition orbitals ( 1 -> 10 ):
   e-/hole pair  1 alpha:  ampl =  0.499995 ( 25.0%)   [5 : 6]
   e-/hole pair  2 alpha:  ampl =  0.001855 (  0.0%)   [4 : 7]
   e-/hole pair  1 beta :  ampl =  0.499995 ( 25.0%)   [5 : 6]
   e-/hole pair  2 beta :  ampl =  0.001855 (  0.0%)   [4 : 7]
   Sum of square amplitudes: 0.50

 NATURAL OCCUPATION NUMBERS (higher than 1.0E-05)
            1           2           3           4           5           6
    1   2.0000000   2.0000000   2.0000000   2.0000000   2.0000000   2.0000000
            7           8           9          10          11          12
    1   2.0000000   2.0000000   2.0000000   2.0000000   2.0000000   2.0000000
           13          14          15          16          17          18
    1   2.0000000   2.0000000   2.0000000   2.0000000   2.0000000   2.0000000
           19          20          21          22          23          24
    1   2.0000000   2.0000000   2.0000000   2.0000000   2.0000000   2.0000000
           25          26          27          28          29          30
    1   2.0000000   2.0000000   2.0000000   2.0000000   2.0000000   2.0000000
           31          32          33          34          35          36
    1   2.0000000   2.0000000   2.0000000   2.0000000   2.0000000   2.0000000
           37          38          39          40          41          42
    1   2.0000000   2.0000000   2.0000000   2.0000000   2.0000000   2.0000000
           43          44          45          46          47          48
    1   2.0000000   2.0000000   2.0000000   1.0000000   1.0000000   1.0000000
           49
    1   1.0000000

 Head-Gordon Nu:    4.00
 Head-Gordon Nu_nl: 4.00

  Amplitudes : 
  
 | HOLE  | ALPHA | BETA  | PART  |    AMPLITUDE 
--------------------------------------------------
 |       | 11110 | 01001 |       |    -4.9999999979033E-01
 |       | 11101 | 01010 |       |     4.9999999979036E-01
 |       | 11011 | 01100 |       |    -4.9999999979034E-01
 |       | 01111 | 11000 |       |     4.9999999979038E-01
--------------------------------------------------
*** Contributions RASCI wfn    Active: 100.00
                                 Hole:   0.00
                                 Part:   0.00

      Mulliken population analysis 
 ---------------------------------------------------
   Atom    Charge (a.u.)   Spin (a.u.)  
 ---------------------------------------------------
   1  C    0.146680        0.097162 
   2  C   -0.151479        0.074276 
   3  H    0.124113        0.000337 
   4  C   -0.199164        0.111411 
   5  H    0.155993        0.017965 
   6  C   -0.199069        0.111411 
   7  H    0.156006        0.017966 
   8  C   -0.151545        0.074276 
   9  H    0.124117        0.000336 
  10  C    0.146226        0.097163 
  11  C   -0.278797        0.395566 
  12  H    0.126686        0.002124 
  13  C   -0.278298        0.395566 
  14  H    0.126716        0.002124 
  15  C    0.146145        0.097159 
  16  C   -0.151449        0.074282 
  17  H    0.124123        0.000337 
  18  C   -0.199184        0.111412 
  19  H    0.156033        0.017967 
  20  C   -0.199071        0.111412 
  21  H    0.156044        0.017968 
  22  C   -0.151588        0.074283 
  23  H    0.124114        0.000336 
  24  C    0.146650        0.097159 
 ---------------------------------------------------
   Sum:   -0.000000        2.000000 
 ---------------------------------------------------
 
      Analysis of the transition density matrix (wrt ground state)
 -------------------------------------
   Atom      e-      h+     Total     
 -------------------------------------
      1  -0.0503   0.0305  -0.0198
      2  -0.0059   0.0309   0.0250
      3  -0.0000   0.0001   0.0001
      4  -0.0650   0.0276  -0.0374
      5  -0.0007   0.0171   0.0165
      6  -0.0650   0.0276  -0.0374
      7  -0.0007   0.0171   0.0165
      8  -0.0059   0.0309   0.0250
      9  -0.0000   0.0001   0.0001
     10  -0.0503   0.0305  -0.0198
     11  -0.0061   0.0372   0.0311
     12  -0.0000   0.0001   0.0001
     13  -0.0061   0.0372   0.0311
     14  -0.0000   0.0001   0.0001
     15  -0.0503   0.0305  -0.0197
     16  -0.0059   0.0309   0.0250
     17  -0.0000   0.0001   0.0001
     18  -0.0650   0.0276  -0.0374
     19  -0.0007   0.0171   0.0165
     20  -0.0650   0.0276  -0.0374
     21  -0.0007   0.0171   0.0165
     22  -0.0059   0.0309   0.0250
     23  -0.0000   0.0001   0.0001
     24  -0.0503   0.0305  -0.0197
  Sum:   -0.5000   0.5000  -0.0000
 -------------------------------------
 
      Analysis of the difference density matrix (wrt ground state)
 -------------------------------------
   Atom   Attach   Detach   Total     
 -------------------------------------
      1   0.1006  -0.0611   0.0395
      2   0.0119  -0.0619  -0.0500
      3   0.0000  -0.0003  -0.0002
      4   0.1301  -0.0552   0.0749
      5   0.0014  -0.0343  -0.0329
      6   0.1301  -0.0552   0.0749
      7   0.0014  -0.0343  -0.0329
      8   0.0119  -0.0619  -0.0500
      9   0.0000  -0.0003  -0.0002
     10   0.1006  -0.0611   0.0395
     11   0.0122  -0.0743  -0.0622
     12   0.0000  -0.0002  -0.0002
     13   0.0122  -0.0743  -0.0622
     14   0.0000  -0.0002  -0.0002
     15   0.1006  -0.0611   0.0395
     16   0.0119  -0.0619  -0.0500
     17   0.0000  -0.0003  -0.0002
     18   0.1300  -0.0552   0.0748
     19   0.0014  -0.0343  -0.0329
     20   0.1300  -0.0552   0.0748
     21   0.0014  -0.0343  -0.0329
     22   0.0119  -0.0619  -0.0500
     23   0.0000  -0.0003  -0.0002
     24   0.1006  -0.0611   0.0395
  Sum:    1.0000  -1.0000   0.0000
 -------------------------------------
 
*** Unpaired Electrons
 Yamaguchi Nd:         4.00
  
**************************************************
 RAS-CI total energy for state  11:   -535.704808055145
  Excitation energy (eV) = 11.078934972704
  State symmetry: A1  (C1       )
  <S^2>      :  2.0000
  Dipole Moment:    0.0006 X    -0.0000 Y     0.0003 Z
  Trans. Moment:    0.0000 X    -0.0000 Y     0.0000 Z
  Strength   :  0.000000
  Natural transition orbitals ( 1 -> 11 ):
   e-/hole pair  1 alpha:  ampl =  0.761876 ( 58.0%)   [5 : 6]
   e-/hole pair  2 alpha:  ampl =  0.000227 (  0.0%)   [4 : 7]
   e-/hole pair  1 beta :  ampl =  0.475111 ( 22.6%)   [5 : 6]
   e-/hole pair  2 beta :  ampl =  0.262835 (  6.9%)   [4 : 7]
   Sum of square amplitudes: 0.88

 NATURAL OCCUPATION NUMBERS (higher than 1.0E-05)
            1           2           3           4           5           6
    1   2.0000000   2.0000000   2.0000000   2.0000000   2.0000000   2.0000000
            7           8           9          10          11          12
    1   2.0000000   2.0000000   2.0000000   2.0000000   2.0000000   2.0000000
           13          14          15          16          17          18
    1   2.0000000   2.0000000   2.0000000   2.0000000   2.0000000   2.0000000
           19          20          21          22          23          24
    1   2.0000000   2.0000000   2.0000000   2.0000000   2.0000000   2.0000000
           25          26          27          28          29          30
    1   2.0000000   2.0000000   2.0000000   2.0000000   2.0000000   2.0000000
           31          32          33          34          35          36
    1   2.0000000   2.0000000   2.0000000   2.0000000   2.0000000   2.0000000
           37          38          39          40          41          42
    1   2.0000000   2.0000000   2.0000000   2.0000000   2.0000000   2.0000000
           43          44          45          46          47          48
    1   2.0000000   2.0000000   1.7740764   1.2259232   1.2255437   1.0000000
           49
    1   0.7744567

 Head-Gordon Nu:    3.55
 Head-Gordon Nu_nl: 3.86

  Amplitudes : 
  
 | HOLE  | ALPHA | BETA  | PART  |    AMPLITUDE 
--------------------------------------------------
 |       | 11110 | 10001 |       |     2.6283863227445E-01
 |       | 11110 | 01010 |       |    -4.7511412809709E-01
 |       | 11101 | 10010 |       |    -2.5058178349995E-01
 |       | 11011 | 10100 |       |     2.4846342400418E-01
 |       | 10111 | 11000 |       |     7.6188383977872E-01
--------------------------------------------------
*** Contributions RASCI wfn    Active: 100.00
                                 Hole:   0.00
                                 Part:   0.00

      Mulliken population analysis 
 ---------------------------------------------------
   Atom    Charge (a.u.)   Spin (a.u.)  
 ---------------------------------------------------
   1  C    0.189110        0.067637 
   2  C   -0.175836        0.063505 
   3  H    0.150229       -0.012795 
   4  C   -0.199547        0.114844 
   5  H    0.134122        0.006611 
   6  C   -0.199453        0.114845 
   7  H    0.134134        0.006611 
   8  C   -0.175901        0.063504 
   9  H    0.150237       -0.012797 
  10  C    0.188654        0.067638 
  11  C   -0.365263        0.538952 
  12  H    0.169255       -0.018526 
  13  C   -0.364766        0.538953 
  14  H    0.169280       -0.018523 
  15  C    0.188595        0.067620 
  16  C   -0.175802        0.063502 
  17  H    0.150252       -0.012801 
  18  C   -0.199570        0.114837 
  19  H    0.134162        0.006611 
  20  C   -0.199456        0.114837 
  21  H    0.134171        0.006611 
  22  C   -0.175943        0.063502 
  23  H    0.150243       -0.012801 
  24  C    0.189095        0.067623 
 ---------------------------------------------------
   Sum:    0.000000        2.000000 
 ---------------------------------------------------
 
      Analysis of the transition density matrix (wrt ground state)
 -------------------------------------
   Atom      e-      h+     Total     
 -------------------------------------
      1  -0.1168   0.1057  -0.0111
      2  -0.0138   0.0443   0.0305
      3  -0.0000   0.0395   0.0395
      4  -0.1510   0.0262  -0.1248
      5  -0.0016   0.0066   0.0050
      6  -0.1510   0.0262  -0.1248
      7  -0.0016   0.0066   0.0050
      8  -0.0138   0.0443   0.0305
      9  -0.0000   0.0395   0.0395
     10  -0.1168   0.1057  -0.0111
     11  -0.0141   0.0707   0.0566
     12  -0.0000   0.0648   0.0648
     13  -0.0141   0.0707   0.0566
     14  -0.0000   0.0648   0.0648
     15  -0.1168   0.1058  -0.0110
     16  -0.0138   0.0444   0.0306
     17  -0.0000   0.0395   0.0395
     18  -0.1510   0.0262  -0.1247
     19  -0.0016   0.0066   0.0050
[...]
 <Sz= 0.00|     -0.000000     -0.000030i      -0.000000      0.000000i       0.000000     -0.000030i
 <Sz= 1.00|      0.000000      0.000000i      -0.000000     -0.000030i      -0.000000      0.000322i
 Total mean-field SOC matrix (cm-1): < B(S,Sz) | Hsomf | A(S',Sz') >
                       |Sz'=-1.00>                |Sz'= 0.00>                |Sz'= 1.00>
 <Sz=-1.00|      0.000000      0.000267i      -0.000000      0.000031i      -0.000000     -0.000000i
 <Sz= 0.00|      0.000000      0.000031i       0.000000     -0.000000i      -0.000000      0.000031i
 <Sz= 1.00|     -0.000000     -0.000000i       0.000000      0.000031i       0.000000     -0.000267i
Mean-Field SOCC =     0.000382019 cm-1
   
**************************************************
State A: Root 30
State B: Root 28
  
Angular momentum components (a.u.)
< B | Lx | A > =     0.000001003i
< B | Ly | A > =     0.000000009i
< B | Lz | A > =    -0.000182326i
  
Norm of one-particle transition density matrix
||gamma^AB||_total       =  0.009384
||gamma^AB||_symmetrized =  0.006662
||gamma^AB||_anti-symm   =  0.006610
  
Spin-orbit couplings
 Using HF (reference) density for the 2-elec mean-field SOC contribution
KET: S',Sz' (Root  30) =  1.000 1.000
BRA: S ,Sz  (Root  28) =  1.000 1.000
Clebsh-Gordan coefficient: < 1.000, 1.000; 1.000, 0.000| 1.000, 1.000> =  0.707
 Reading 1e-SO integrals
 1e Reduced matrix elements (cm-1)
<S|| Hso(L-) ||S'> =    -0.0000001893    -0.0000262680i
<S|| Hso(L0) ||S'> =     0.0000000000     0.0067885374i
<S|| Hso(L+) ||S'> =    -0.0000001893     0.0000262680i
 1-elec SOC matrix (cm-1): < B(S,Sz) | Hso(1e) | A(S',Sz') >
                       |Sz'=-1.00>                |Sz'= 0.00>                |Sz'= 1.00>
 <Sz=-1.00|      0.000000     -0.004800i      -0.000000      0.000019i      -0.000000      0.000000i
 <Sz= 0.00|      0.000000      0.000019i       0.000000      0.000000i      -0.000000      0.000019i
 <Sz= 1.00|     -0.000000      0.000000i       0.000000      0.000019i       0.000000      0.004800i
1-elec SOCC =     0.006788639 cm-1
 Reading 2e-SOMF integrals
 2e-SOMF Reduced matrix elements (cm-1)
<S|| Hso(L-) ||S'> =     0.0000000899     0.0000128233i
<S|| Hso(L0) ||S'> =     0.0000000000    -0.0029805045i
<S|| Hso(L+) ||S'> =     0.0000000899    -0.0000128233i
 2-elec mean-field SOC matrix (cm-1): < B(S,Sz) | Hso(2e-mf) | A(S',Sz') >
                       |Sz'=-1.00>                |Sz'= 0.00>                |Sz'= 1.00>
 <Sz=-1.00|     -0.000000      0.002108i       0.000000     -0.000009i       0.000000     -0.000000i
 <Sz= 0.00|     -0.000000     -0.000009i      -0.000000     -0.000000i       0.000000     -0.000009i
 <Sz= 1.00|      0.000000     -0.000000i      -0.000000     -0.000009i      -0.000000     -0.002108i
 Total mean-field SOC matrix (cm-1): < B(S,Sz) | Hsomf | A(S',Sz') >
                       |Sz'=-1.00>                |Sz'= 0.00>                |Sz'= 1.00>
 <Sz=-1.00|      0.000000     -0.002693i      -0.000000      0.000010i      -0.000000      0.000000i
 <Sz= 0.00|      0.000000      0.000010i       0.000000      0.000000i      -0.000000      0.000010i
 <Sz= 1.00|     -0.000000      0.000000i       0.000000      0.000010i       0.000000      0.002693i
Mean-Field SOCC =     0.003808080 cm-1
   
**************************************************
State A: Root 30
State B: Root 29
  
Angular momentum components (a.u.)
< B | Lx | A > =    -0.000000087i
< B | Ly | A > =     0.000000170i
< B | Lz | A > =     1.156591031i
  
Norm of one-particle transition density matrix
||gamma^AB||_total       =  0.999917
||gamma^AB||_symmetrized =  0.707194
||gamma^AB||_anti-symm   =  0.706902
  
Spin-orbit couplings
 Using HF (reference) density for the 2-elec mean-field SOC contribution
KET: S',Sz' (Root  30) =  1.000 1.000
BRA: S ,Sz  (Root  29) =  1.000 1.000
Clebsh-Gordan coefficient: < 1.000, 1.000; 1.000, 0.000| 1.000, 1.000> =  0.707
 Reading 1e-SO integrals
 1e Reduced matrix elements (cm-1)
<S|| Hso(L-) ||S'> =     0.0000049077     0.0001939435i
<S|| Hso(L0) ||S'> =     0.0000000000   -41.4117186095i
<S|| Hso(L+) ||S'> =     0.0000049077    -0.0001939435i
 1-elec SOC matrix (cm-1): < B(S,Sz) | Hso(1e) | A(S',Sz') >
                       |Sz'=-1.00>                |Sz'= 0.00>                |Sz'= 1.00>
 <Sz=-1.00|     -0.000000     29.282507i       0.000003     -0.000137i       0.000000     -0.000000i
 <Sz= 0.00|     -0.000003     -0.000137i      -0.000000     -0.000000i       0.000003     -0.000137i
 <Sz= 1.00|      0.000000     -0.000000i      -0.000003     -0.000137i      -0.000000    -29.282507i
1-elec SOCC =    41.411718610 cm-1
 Reading 2e-SOMF integrals
 2e-SOMF Reduced matrix elements (cm-1)
<S|| Hso(L-) ||S'> =    -0.0000022912    -0.0000799008i
<S|| Hso(L0) ||S'> =     0.0000000000    18.2527138580i
<S|| Hso(L+) ||S'> =    -0.0000022912     0.0000799008i
 2-elec mean-field SOC matrix (cm-1): < B(S,Sz) | Hso(2e-mf) | A(S',Sz') >
                       |Sz'=-1.00>                |Sz'= 0.00>                |Sz'= 1.00>
 <Sz=-1.00|      0.000000    -12.906618i      -0.000002      0.000056i      -0.000000      0.000000i
 <Sz= 0.00|      0.000002      0.000056i       0.000000      0.000000i      -0.000002      0.000056i
 <Sz= 1.00|     -0.000000      0.000000i       0.000002      0.000056i       0.000000     12.906618i
 Total mean-field SOC matrix (cm-1): < B(S,Sz) | Hsomf | A(S',Sz') >
                       |Sz'=-1.00>                |Sz'= 0.00>                |Sz'= 1.00>
 <Sz=-1.00|     -0.000000     16.375889i       0.000002     -0.000081i       0.000000     -0.000000i
 <Sz= 0.00|     -0.000002     -0.000081i      -0.000000     -0.000000i       0.000002     -0.000081i
 <Sz= 1.00|      0.000000     -0.000000i      -0.000002     -0.000081i      -0.000000    -16.375889i
Mean-Field SOCC =    23.159004752 cm-1
   
**************************************************
RAS-CI timing summary (seconds)
  CPU time       7095.80s
  System time       0.00s
  Wall time      7119.46s
Detailed CPU timing summary
     Fock matrix         :        79.1466 s
     Integrals           :       309.0916 s
     Addressing matrices :         0.0001 s
     Guesses             :         0.0005 s
     Iterations          :         0.0214 s
     Properties          :      6707.5418 s
     RAS-CI(2) correction:         0.0000 s
  
 
 --------------------------------------------------------------
 
                    Orbital Energies (a.u.)
 --------------------------------------------------------------
 
 Alpha MOs
 -- Occupied --
-11.2439 -11.2438 -11.2429 -11.2428 -11.2438 -11.2438 -11.2347 -11.2347
-11.2347 -11.2347 -11.2331 -11.2331 -11.2318 -11.2318  -1.1940  -1.1538
 -1.0890  -1.0722  -1.0238  -1.0166  -0.9612  -0.9009  -0.8396  -0.8260
 -0.8161  -0.7554  -0.7118  -0.6909  -0.6477  -0.6423  -0.6307  -0.6238
 -0.5881  -0.5805  -0.5776  -0.5585  -0.5591  -0.5326  -0.5026  -0.5120
 -0.4185  -0.4041  -0.3541  -0.3430  -0.4863  -0.4785  -0.3463  -0.2379
 -- Virtual --
  0.1114   0.1184   0.1294   0.1544   0.1576   0.1607   0.1766   0.1820
  0.1818   0.1981   0.2013   0.2092   0.2310   0.2410   0.2525   0.2578
  0.2737   0.2762   0.3014   0.3016   0.3062   0.3130   0.3172   0.3327
  0.3379   0.3414   0.3684   0.3704   0.3797   0.3821   0.3843   0.3901
  0.4196   0.4228   0.4192   0.4305   0.4292   0.4407   0.4456   0.4470
  0.4473   0.4681   0.4708   0.4817   0.4908   0.4990   0.4974   0.5077
  0.5107   0.5133   0.5235   0.5290   0.5494   0.5605   0.5708   0.5697
  0.5732   0.5781   0.5871   0.5999   0.6051   0.6108   0.6208   0.6225
  0.6404   0.6481   0.6479   0.6535   0.6503   0.6653   0.6698   0.6739
  0.6883   0.6973   0.7194   0.7194   0.7650   0.7733   0.7786   0.7951
  0.7938   0.8086   0.8276   0.8401   0.8550   0.8567   0.8700   0.8812
  0.8886   0.9081   0.9141   0.9170   0.9211   0.9293   0.9319   0.9306
  0.9340   0.9271   0.9401   0.9393   0.9668   0.9697   0.9895   1.0158
  1.0248   1.0335   1.0342   1.0545   1.0575   1.0734   1.0930   1.0935
  1.1048   1.1084   1.1210   1.1308   1.1515   1.1766   1.1913   1.1964
  1.1968   1.2064   1.2042   1.2130   1.3079   1.3083   1.3182   1.3228
  1.3449   1.3610   1.3751   1.3809   1.4073   1.4160   1.4207   1.4231
  1.4427   1.4521   1.4602   1.4627   1.4699   1.4697   1.4971   1.5122
  1.5142   1.5126   1.5164   1.5353   1.5716   1.6065   1.6146   1.6170
  1.6464   1.6474   1.6860   1.6856   1.7000   1.7052   1.7309   1.7401
  1.7449   1.7554   1.7597   1.7679   1.7845   1.7873   1.7943   1.8103
  1.8312   1.8388   1.8439   1.8525   1.8540   1.8750   1.9169   1.9175
  1.9233   1.9527   1.9484   1.9578   1.9751   1.9785   1.9880   1.9875
  2.0015   2.0118   2.0251   2.0301   2.0618   2.0973   2.1065   2.1151
  2.1466   2.1593   2.1754   2.1879   2.1963   2.2134   2.2196   2.2679
  2.2817   2.2810   2.2872   2.2905   2.3352   2.3384   2.3415   2.4156
  2.4349   2.4372   2.4574   2.4603   2.4718   2.4732   2.4868   2.5086
  2.5181   2.5298   2.5351   2.5632   2.5715   2.6065   2.6073   2.6174
  2.6270   2.6474   2.6574   2.7225   2.7258   2.7336   2.7441   2.7614
  2.7956   2.8094   2.8177   2.8186   2.8472   2.8499   2.8862   2.8868
  2.9221   2.9381   2.9439   2.9491   2.9545   2.9702   2.9734   2.9729
  2.9997   3.0169   3.0244   3.0268   3.0289   3.0576   3.0701   3.0733
  3.0788   3.0809   3.1005   3.0985   3.1060   3.1098   3.1276   3.1317
  3.1386   3.1586   3.1670   3.1846   3.1863   3.1908   3.2004   3.2001
  3.2010   3.2239   3.2389   3.2404   3.2491   3.2580   3.2710   3.2835
  3.2846   3.3052   3.3108   3.3122   3.3368   3.3515   3.3588   3.3658
  3.3679   3.3824   3.3890   3.3899   3.4014   3.4403   3.4537   3.4526
  3.4638   3.4872   3.4881   3.4885   3.4999   3.5118   3.5182   3.5222
  3.5401   3.5602   3.5781   3.5797   3.5907   3.5932   3.6038   3.6223
  3.6371   3.6384   3.6424   3.6484   3.6489   3.6557   3.6691   3.6863
  3.6874   3.7000   3.7424   3.7453   3.7577   3.7615   3.7658   3.7667
  3.7939   3.8077   3.8211   3.8250   3.8336   3.8352   3.8375   3.8534
  3.8632   3.8813   3.8877   3.8899   3.8998   3.9018   3.9128   3.9659
  3.9663   3.9692   3.9888   3.9912   4.0282   4.0704   4.0787   4.0923
  4.1310   4.1666   4.2003   4.2010   4.2117   4.2210   4.2416   4.2434
  4.2759   4.3074   4.3093   4.3111   4.3411   4.3514   4.3587   4.3873
  4.4431   4.4457   4.4463   4.4456   4.4514   4.4966   4.5236   4.5259
  4.5316   4.5419   4.5423   4.5569   4.5579   4.5878   4.5951   4.6023
  4.6482   4.6752   4.6923   4.7138   4.7213   4.7360   4.7517   4.7729
  4.8133   4.8281   4.8406   4.8594   4.8919   4.9555   4.9786   4.9809
  4.9939   5.0401   5.0788   5.1564   5.1642   5.1951   5.1972   5.2024
  5.2034   5.2219   5.2508   5.2563   5.3661   5.3928   5.4224   5.4412
  5.5113   5.5303   5.5625   5.5933   5.6777   5.7311   5.7921   5.8269
  5.8283   5.8627   5.9308   6.0350   6.0914   6.0965   6.1730   6.5159
 22.9593  23.5458  23.6595  23.7567  23.7845  23.8325  23.8632  23.9643
 23.9802  24.0029  24.0171  24.2565  24.4921  24.9132
 
 Beta MOs
 -- Occupied --
-11.2434 -11.2434 -11.2424 -11.2423 -11.2298 -11.2298 -11.2334 -11.2334
-11.2332 -11.2331 -11.2322 -11.2322 -11.2311 -11.2311  -1.1770  -1.1470
 -1.0722  -1.0458  -1.0159  -1.0107  -0.9301  -0.8803  -0.8332  -0.8086
 -0.8108  -0.7424  -0.7062  -0.6836  -0.6409  -0.6381  -0.6222  -0.6213
 -0.5842  -0.5708  -0.5700  -0.5528  -0.5194  -0.5285  -0.4997  -0.4903
 -0.3742  -0.3529  -0.3228  -0.3208  -0.4795  -0.4730
 -- Virtual --
  0.0411   0.1334   0.1310   0.1450   0.1597   0.1563   0.1587   0.1613
  0.1786   0.1824   0.2170   0.1989   0.2019   0.2097   0.2380   0.2443
  0.2550   0.2604   0.2803   0.2850   0.3027   0.3083   0.3070   0.3329
  0.3310   0.3351   0.3415   0.3450   0.3701   0.3823   0.3816   0.3846
  0.3930   0.4014   0.4217   0.4301   0.4375   0.4324   0.4428   0.4470
  0.4562   0.4669   0.4888   0.4711   0.4759   0.4890   0.4922   0.5086
  0.5132   0.5105   0.5166   0.5215   0.5253   0.5322   0.5550   0.5623
  0.5742   0.5803   0.5778   0.5797   0.5901   0.6116   0.6129   0.6177
  0.6279   0.6265   0.6446   0.6523   0.6528   0.6594   0.6667   0.6683
  0.6816   0.6759   0.6921   0.7027   0.7217   0.7236   0.7735   0.7761
  0.7943   0.7985   0.8011   0.8117   0.8336   0.8483   0.8576   0.8594
  0.8722   0.8887   0.8926   0.9109   0.9179   0.9283   0.9243   0.9355
  0.9353   0.9427   0.9393   0.9577   0.9422   0.9597   0.9716   0.9758
  0.9917   1.0189   1.0268   1.0371   1.0474   1.0577   1.0631   1.0777
  1.0953   1.1097   1.1100   1.1207   1.1247   1.1379   1.1662   1.1797
  1.1937   1.1996   1.2066   1.2110   1.2162   1.2304   1.3127   1.3128
  1.3261   1.3286   1.3494   1.3644   1.3937   1.3883   1.4112   1.4206
  1.4230   1.4386   1.4445   1.4545   1.4678   1.4658   1.4724   1.4742
  1.5033   1.5201   1.5168   1.5233   1.5179   1.5404   1.5737   1.6146
  1.6177   1.6212   1.6564   1.6816   1.6879   1.7044   1.7023   1.7078
  1.7325   1.7460   1.7466   1.7594   1.7671   1.7753   1.8017   1.8032
  1.7957   1.8114   1.8385   1.8411   1.8517   1.8570   1.8559   1.8783
  1.9194   1.9344   1.9298   1.9541   1.9734   1.9613   1.9819   1.9831
  1.9895   1.9924   2.0057   2.0166   2.0285   2.0346   2.0634   2.1012
  2.1196   2.1299   2.1487   2.1632   2.1864   2.1914   2.2062   2.2177
  2.2222   2.2708   2.2847   2.2865   2.2896   2.2940   2.3376   2.3420
  2.3514   2.4183   2.4383   2.4438   2.4632   2.4729   2.4796   2.4813
  2.4916   2.5113   2.5211   2.5318   2.5433   2.5648   2.5753   2.6086
  2.6113   2.6219   2.6305   2.6566   2.6618   2.7317   2.7350   2.7358
  2.7502   2.7632   2.7983   2.8118   2.8217   2.8290   2.8530   2.8606
  2.8888   2.8915   2.9243   2.9406   2.9449   2.9507   2.9603   2.9754
  2.9753   2.9787   3.0040   3.0211   3.0280   3.0299   3.0322   3.0604
  3.0783   3.0754   3.0856   3.0837   3.1029   3.1110   3.1089   3.1151
  3.1294   3.1363   3.1446   3.1651   3.1692   3.1888   3.1965   3.1953
  3.2039   3.2101   3.2164   3.2275   3.2412   3.2559   3.2630   3.2650
  3.2870   3.2870   3.2917   3.3102   3.3167   3.3148   3.3390   3.3583
  3.3609   3.3724   3.3769   3.3857   3.3966   3.3952   3.4051   3.4467
  3.4568   3.4623   3.4683   3.4898   3.4903   3.4943   3.5050   3.5158
  3.5247   3.5276   3.5444   3.5640   3.5815   3.5938   3.5926   3.6164
  3.6109   3.6239   3.6397   3.6413   3.6580   3.6505   3.6555   3.6673
  3.6750   3.6877   3.6887   3.7020   3.7454   3.7538   3.7611   3.7643
  3.7693   3.7716   3.7960   3.8190   3.8286   3.8287   3.8361   3.8378
  3.8400   3.8557   3.8678   3.8871   3.8898   3.8990   3.9035   3.9042
  3.9162   3.9708   3.9709   3.9718   3.9905   3.9925   4.0357   4.0741
  4.0810   4.1006   4.1373   4.1683   4.2028   4.2051   4.2170   4.2256
  4.2445   4.2483   4.2794   4.3088   4.3103   4.3148   4.3491   4.3561
  4.3640   4.3897   4.4458   4.4478   4.4541   4.4566   4.4533   4.4982
  4.5269   4.5298   4.5355   4.5434   4.5453   4.5585   4.5613   4.5909
  4.5968   4.6055   4.6523   4.6783   4.6997   4.7203   4.7223   4.7387
  4.7578   4.7740   4.8167   4.8308   4.8489   4.8612   4.8958   4.9589
  4.9826   4.9834   4.9966   5.0451   5.0804   5.1586   5.1670   5.1965
  5.2034   5.2040   5.2083   5.2235   5.2530   5.2577   5.3678   5.3957
  5.4247   5.4444   5.5127   5.5317   5.5668   5.5944   5.6787   5.7329
  5.7943   5.8289   5.8302   5.8644   5.9324   6.0369   6.0947   6.0991
  6.1760   6.5177  22.9607  23.5463  23.6614  23.7574  23.7904  23.8344
 23.8638  23.9649  23.9809  24.0062  24.0182  24.2606  24.4927  24.9139
 --------------------------------------------------------------
 
          Ground-State Mulliken Net Atomic Charges

     Atom                 Charge (a.u.)
  ----------------------------------------
      1 C                     0.186189
      2 C                    -0.201459
      3 H                     0.123863
      4 C                    -0.124294
      5 H                     0.123060
      6 C                    -0.124199
      7 H                     0.123071
      8 C                    -0.201525
      9 H                     0.123867
     10 C                     0.185734
     11 C                    -0.340963
     12 H                     0.126466
     13 C                    -0.340464
     14 H                     0.126496
     15 C                     0.185643
     16 C                    -0.201440
     17 H                     0.123873
     18 C                    -0.124332
     19 H                     0.123097
     20 C                    -0.124220
     21 H                     0.123106
     22 C                    -0.201580
     23 H                     0.123864
     24 C                     0.186148
  ----------------------------------------
  Sum of atomic charges =     0.000000

 -----------------------------------------------------------------
                    Cartesian Multipole Moments
 -----------------------------------------------------------------
    Charge (ESU x 10^10)
                 0.0000
    Dipole Moment (Debye)
         X       0.0001      Y       0.0000      Z      -0.0005
       Tot       0.0005
    Quadrupole Moments (Debye-Ang)
        XX     -73.3025     XY       0.0000     YY     -71.0569
        XZ       0.0001     YZ      -0.0000     ZZ     -90.0251
    Octopole Moments (Debye-Ang^2)
       XXX      -0.0021    XXY      -0.0000    XYY      -0.0003
       YYY       0.0000    XXZ      -0.0020    XYZ       0.0099
       YYZ      -0.0042    XZZ      -0.0001    YZZ       0.0000
       ZZZ      -0.0013
    Hexadecapole Moments (Debye-Ang^3)
      XXXX   -2900.4281   XXXY      -0.0000   XXYY    -594.8729
      XYYY      -0.0000   YYYY    -676.5913   XXXZ       0.0001
      XXYZ      -0.0001   XYYZ      -0.0001   YYYZ      -0.0000
      XXZZ    -632.3236   XYZZ      -0.0000   YYZZ    -160.1736
      XZZZ       0.0003   YZZZ      -0.0000   ZZZZ    -108.3606
 -----------------------------------------------------------------
 Total job time:  8366.74s(wall), 8337.35s(cpu) 
 Mon Sep 16 15:04:04 2024

======= MOLDEN-FORMATTED INPUT FILE FOLLOWS =======
[Molden Format]
[Atoms] (Angs)
  C      1    6      1.25286961     -0.71446166      0.00006117
  C      2    6      2.46611853     -1.38739291      0.00008888
  H      3    1      2.46703176     -2.47126845     -0.00030574
  C      4    6      3.68410069     -0.68766435      0.00000152
  H      5    1      4.61725605     -1.23512534     -0.00006351
  C      6    6      3.68410057      0.68766464      0.00013542
  H      7    1      4.61725579      1.23512587      0.00014906
  C      8    6      2.46611830      1.38739302      0.00003965
  H      9    1      2.46703092      2.47126859      0.00034323
  C     10    6      1.25286954      0.71446151     -0.00008468
  C     11    6      0.00000054     -1.40230740     -0.00018381
  H     12    1      0.00000065     -2.48570837     -0.00045706
  C     13    6     -0.00000057      1.40230747     -0.00018386
  H     14    1     -0.00000069      2.48570844     -0.00045856
  C     15    6     -1.25286963      0.71446170      0.00005932
  C     16    6     -2.46611856      1.38739292      0.00008762
  H     17    1     -2.46703144      2.47126846     -0.00030856
  C     18    6     -3.68410067      0.68766426      0.00000238
  H     19    1     -4.61725590      1.23512547     -0.00005998
  C     20    6     -3.68410058     -0.68766473      0.00013701
  H     21    1     -4.61725589     -1.23512580      0.00015465
  C     22    6     -2.46611826     -1.38739301      0.00003754
  H     23    1     -2.46703125     -2.47126859      0.00034050
  C     24    6     -1.25286951     -0.71446149     -0.00008718

======= END OF MOLDEN-FORMATTED INPUT FILE =======


        *************************************************************
        *                                                           *
        *  Thank you very much for using Q-Chem.  Have a nice day.  *
        *                                                           *
        *************************************************************


