                  Welcome to Q-Chem
     A Quantum Leap Into The Future Of Chemistry


 Q-Chem 6.0 (devel), Q-Chem, Inc., Pleasanton, CA (2022)

 E. Epifanovsky,  A. T. B. Gilbert,  Xintian Feng,  Joonho Lee,  Yuezhi Mao,  
 N. Mardirossian,  P. Pokhilko,  A. White,  M. Wormit,  M. P. Coons,  
 A. L. Dempwolff,  Zhengting Gan,  D. Hait,  P. R. Horn,  L. D. Jacobson,  
 I. Kaliman,  J. Kussmann,  A. W. Lange,  Ka Un Lao,  D. S. Levine,  Jie Liu,  
 S. C. McKenzie,  A. F. Morrison,  K. Nanda,  F. Plasser,  D. R. Rehn,  
 M. L. Vidal,  Zhi-Qiang You,  Ying Zhu,  B. Alam,  B. Albrecht,  
 A. Aldossary,  E. Alguire,  J. H. Andersen,  V. Athavale,  D. Barton,  
 K. Begam,  A. Behn,  N. Bellonzi,  Y. A. Bernard,  E. J. Berquist,  
 H. Burton,  A. Carreras,  K. Carter-Fenk,  Romit Chakraborty,  
 Chandrima Chakravarty,  Junhan Chen,  A. D. Chien,  K. D. Closser,  
 V. Cofer-Shabica,  L. Cunha,  S. Dasgupta,  Jia Deng,  M. de Wergifosse,  
 M. Diedenhofen,  Hainam Do,  S. Ehlert,  Po-Tung Fang,  S. Fatehi,  
 Qingguo Feng,  T. Friedhoff,  B. Ganoe,  J. Gayvert,  Qinghui Ge,  
 G. Gidofalvi,  M. Goldey,  J. Gomes,  C. Gonzalez-Espinoza,  S. Gulania,  
 A. Gunina,  J. A. Gyamfi,  M. W. D. Hanson-Heine,  P. H. P. Harbach,  
 A. W. Hauser,  M. F. Herbst,  M. Hernandez Vera,  M. Hodecker,  
 Z. C. Holden,  S. Houck,  Xunkun Huang,  Kerwin Hui,  B. C. Huynh,  
 K. Ikeda,  M. Ivanov,  Hyunjun Ji,  Zuxin Jin,  Hanjie Jiang,  B. Kaduk,  
 S. Kaehler,  R. Kang,  K. Khistyaev,  Jaehoon Kim,  Yongbin Kim,  
 P. Klunzinger,  Z. Koczor-Benda,  Joong Hoon Koh,  D. Kosenkov,  
 Saikiran Kotaru,  L. Koulias,  T. Kowalczyk,  C. M. Krauter,  K. Kue,  
 A. Kunitsa,  T. Kus,  A. Landau,  K. V. Lawler,  D. Lefrancois,  S. Lehtola,  
 Rain Li,  Shaozhi Li,  Yi-Pei Li,  Jiashu Liang,  M. Liebenthal,  
 Hung-Hsuan Lin,  You-Sheng Lin,  Fenglai Liu,  Kuan-Yu Liu,  
 M. Loipersberger,  A. Luenser,  C. Malbon,  A. Manjanath,  P. Manohar,  
 E. Mansoor,  S. F. Manzer,  Shan-Ping Mao,  A. V. Marenich,  T. Markovich,  
 S. Mason,  F. Matz,  S. A. Maurer,  P. F. McLaughlin,  M. F. S. J. Menger,  
 J.-M. Mewes,  S. A. Mewes,  P. Morgante,  Mohammad Mostafanejad,  
 J. W. Mullinax,  K. J. Oosterbaan,  G. Paran,  V. Parravicini,  
 Alexander C. Paul,  Suranjan K. Paul,  F. Pavosevic,  Zheng Pei,  S. Prager,  
 E. I. Proynov,  E. Ramos,  B. Rana,  A. E. Rask,  A. Rettig,  R. M. Richard,  
 F. Rob,  E. Rossomme,  T. Scheele,  M. Scheurer,  M. Schneider,  
 P. E. Schneider,  N. Sergueev,  S. M. Sharada,  Hengyuan Shen,  
 W. Skomorowski,  D. W. Small,  C. J. Stein,  Yingli Su,  Yu-Chuan Su,  
 E. J. Sundstrom,  Zhen Tao,  J. Thirman,  Hung-Yi Tsai,  T. Tsuchimochi,  
 N. M. Tubman,  C. Utku,  S. P. Veccham,  O. Vydrov,  J. Wenzel,  
 Jonathan Wong,  J. Witte,  A. Yamada,  Chou-Hsun Yang,  Kun Yao,  
 S. Yeganeh,  S. R. Yost,  A. Zech,  F. Zeller,  Igor Ying Zhang,  
 Xing Zhang,  Yu Zhang,  D. Zuev,  A. Aspuru-Guzik,  A. T. Bell,  
 N. A. Besley,  K. B. Bravaya,  B. R. Brooks,  D. Casanova,  Jeng-Da Chai,  
 Hsing-Ta Chen,  S. Coriani,  C. J. Cramer,  A. E. DePrince, III,  
 R. A. DiStasio Jr.,  A. Dreuw,  B. D. Dunietz,  T. R. Furlani,  
 W. A. Goddard III,  S. Grimme,  S. Hammes-Schiffer,  T. Head-Gordon,  
 W. J. Hehre,  Chao-Ping Hsu,  T.-C. Jagau,  Yousung Jung,  A. Klamt,  
 Jing Kong,  D. S. Lambrecht,  Xiangyuan Li,  WanZhen Liang,  N. J. Mayhall,  
 C. W. McCurdy,  J. B. Neaton,  T. Neudecker,  C. Ochsenfeld,  
 J. A. Parkhill,  R. Peverati,  V. A. Rassolov,  Haisheng Ren,  Yihan Shao,  
 L. V. Slipchenko,  R. P. Steele,  J. E. Subotnik,  A. J. W. Thom,  
 A. Tkatchenko,  D. G. Truhlar,  T. Van Voorhis,  Fan Wang,  
 T. A. Wesolowski,  K. B. Whaley,  H. L. Woodcock III,  P. M. Zimmerman,  
 S. Faraji,  P. M. W. Gill,  M. Head-Gordon,  J. M. Herbert,  A. I. Krylov

 Contributors to earlier versions of Q-Chem not listed above: 
 R. D. Adamson,  B. Austin,  R. Baer,  J. Baker,  G. J. O. Beran,  
 K. Brandhorst,  S. T. Brown,  E. F. C. Byrd,  Arup K. Chakraborty,  
 G. K. L. Chan,  Chun-Min Chang,  Yunqing Chen,  C.-L. Cheng,  
 Siu Hung Chien,  D. M. Chipman,  D. L. Crittenden,  H. Dachsel,  
 R. J. Doerksen,  A. D. Dutoi,  R. G. Edgar,  J. Fosso-Tande,  
 L. Fusti-Molnar,  D. Ghosh,  A. Ghysels,  A. Golubeva-Zadorozhnaya,  
 J. Gonthier,  M. S. Gordon,  S. R. Gwaltney,  G. Hawkins,  J. E. Herr,  
 A. Heyden,  S. Hirata,  E. G. Hohenstein,  G. Kedziora,  F. J. Keil,  
 C. Kelley,  Jihan Kim,  R. A. King,  R. Z. Khaliullin,  P. P. Korambath,  
 W. Kurlancheek,  A. Laurent,  A. M. Lee,  M. S. Lee,  S. V. Levchenko,  
 Ching Yeh Lin,  D. Liotard,  E. Livshits,  R. C. Lochan,  I. Lotan,  
 L. A. Martinez-Martinez,  P. E. Maslen,  N. Nair,  D. P. O'Neill,  
 D. Neuhauser,  E. Neuscamman,  C. M. Oana,  R. Olivares-Amaya,  R. Olson,  
 T. M. Perrine,  B. Peters,  P. A. Pieniazek,  A. Prociuk,  Y. M. Rhee,  
 J. Ritchie,  M. A. Rohrdanz,  E. Rosta,  N. J. Russ,  H. F. Schaefer III,  
 M. W. Schmidt,  N. E. Schultz,  S. Sharma,  N. Shenvi,  C. D. Sherrill,  
 A. C. Simmonett,  A. Sodt,  T. Stein,  D. Stuck,  K. S. Thanthiriwatte,  
 V. Vanovschi,  L. Vogt,  Tao Wang,  A. Warshel,  M. A. Watson,  
 C. F. Williams,  Q. Wu,  X. Xu,  Jun Yang,  W. Zhang,  Yan Zhao

   Please cite Q-Chem as follows:
  "Software for the frontiers of quantum chemistry:
   An overview of developments in the Q-Chem 5 package"
   J. Chem. Phys. 155, 084801 (2021)
   https://doi.org/10.1063/5.0055522 (open access)

 Q-Chem 6.0.1 for Intel X86 EM64T Linux

 Parts of Q-Chem use Armadillo 9.900.5 (Nocturnal Misbehaviour).
 http://arma.sourceforge.net/

 Q-Chem begins on Thu Aug 31 13:15:20 2023  

 Host: atlas-204
0

     Scratch files written to ./qchem302087//
 Processing $rem in /scratch/abel/SOFTWARE/qchem/config/preferences:
 Processing $rem in /dipc/acebg/.qchemrc:

 Checking the input file for inconsistencies... 	...done.

--------------------------------------------------------------
User input:
--------------------------------------------------------------
$comment
 RAS-SF CALCULATION
$end

$molecule
 READ triangulene.molecule
$end

$rem
!**CALCULATION TYPE***     
JOBTYPE            sp    
EXCHANGE           HF
CORRELATION        RASCI    !RASCI=Casanova; RASCI2=Zimmerman
BASIS              6-311G(d,p)

!***SCF REFERENCE***
!SKIP_SCFMAN        FALSE
UNRESTRICTED       FALSE
!SCF_GUESS          core
!SCF_GUESS_MIX      FALSE
!SCF_GUESS_ALWAYS   FALSE
MAX_SCF_CYCLES     500
!SCF_CONVERGENCE    8
!SCF_ALGORITHM      DIIS !DIIS,DM,DIIS_DM,GDM,DIIS_GDM,GD

!SYMMETRY           TRUE   !use of symmetry for calculating integrals
!SYM_IGNORE         FALSE  !turn off using symmetry
!SYM_TOL            5      !tolerance for determining point group
!USE_ABELIAN_SUBGROUP      !define to use abelian group

!THRESH             14
SCF_FINAL_PRINT     1 !0,1,2,3

!****RAS-SF****
RAS_ROOTS          10       !number of RAS-CI roots to be computed
SET_ITER           60     !number of iterations in RASCI
RAS_ELEC           10       !number of electrons in RAS2
RAS_ELEC_ALPHA     6       !spin-α electrons in RAS2 
RAS_ELEC_BETA      4       !spin-β electrons in RAS2

RAS_ACT            10       !number of orbitals in RAS2 
RAS_ACT_ORB  [68, 69, 70, 71, 72, 73, 74, 75, 76, 77]  !user-selected RAS2 orbitals
RAS_OCC            67       !number of orbitals in RAS1
N_FROZEN_CORE      47     !Number of frozen core orbitals
N_FROZEN_VIRTUAL   371      !Number of frozen virtual orbitals

RAS_DO_HOLE        TRUE   !presence of hole excitations in RAS-CI wave function
RAS_DO_PART        TRUE   !presence of particle excitations
!RAS_AMPL_PRINT     10     !threshold (×10 2 ) for the CI amplitudes

!RAS_GUESS_CS       0      !number of closed shell guess conﬁgurations
!RAS_SPIN_MULT      0      !spin multiplicity. Only for Ms = 0 
!RAS_SRDFT          FALSE  !short-range density functional RAS-CI
!RAS_NFRAG          0     !fragments of excitation analysis in RASCI

RAS_PRINT          2      !level of information
RAS_NATORB         TRUE   !computation of the natural orbital occupancies
!RAS_NATORB_STATE  0      !Saves NO of i RAS computed state in .fchk ﬁle
!RAS_FOD            TRUE

!****RAS-SOC****
CALC_SOC           TRUE   !calculate SOC for EOM-CC, RAS-CI, ADC, TDDFT/TDA and TDDFT
!RAS_SOC_2E        TRUE   !two-electron mean-ﬁeld contribution, default=true
RAS_SOC_SYM_DENS   TRUE   !averaging of α and β densities

!****MEMORY****
MEM_TOTAL          12000 !Default 2000 MB
MEM_STATIC         3000  !Default 64 MB

!**Molecular Properties and Analysis **                                                                                          
POP_MULLIKEN       TRUE   !Run Mulliken population analysis
LOWDIN_POPULATION  TRUE   !Run Löwdin population analysis
GUI                2       !Checkpoints generation
STATE_ANALYSIS     TRUE

!**Wave function analysis of RAS-CI states: MOLDEN**
!PLOTS = 0     ! Note: This can be omitted, default is 0
!NTO_PAIRS = 2 ! Note: This can be omitted, default is 2
!GUI 0
!MOLDEN_FORMAT      TRUE
!PRINT_ORBITALS     15

!**Wave function analysis of RAS-CI state: CUBE**
!NTO_PAIRS = 2 ! Note: This can be omitted, default is 2
!PLOTS = 1
!GUI 0

!**SR-DFT**
!RAS_SRDFT           TRUE !Perform short-range density functional RAS-CI
!RAS_SRDFT_EXC       0 !EX functional. 0=HF. 
!RAS_SRDFT_ONLY_COR  TRUE !No use of EXC functional
!RAS_SRDFT_COR       srPBE !short-range correlation functional
!ras_srdft_0         TRUE !true: no iteration (one-shot); false: iteration
!RAS_OMEGA           400 !Coulomb range-separation parameter. def=400
!RAS_SRDFT_DAMP     0.5 !dumping factor. def=0.5
$end

!$plots
!   grid_points 100 100 100
!   grid_range  (-10,10) (-10,10) (-10,10)
!$end

--------------------------------------------------------------
 ----------------------------------------------------------------
             Standard Nuclear Orientation (Angstroms)
    I     Atom           X                Y                Z
 ----------------------------------------------------------------
    1      C      -1.2066300005    -0.0000000000     3.5476002776
    2      C       1.2364999997     0.0000000000     2.1311702780
    3      C       1.2066299995     0.0000000000     3.5476002780
    4      C      -0.0000000006     0.0000000000     4.2323902778
    5      C      -0.0000000000     0.0000000000     0.0000002778
    6      C       2.4423599998     0.0000000000     1.4101002781
    7      C       2.4639000000     0.0000000000     0.0052602781
    8      C       2.4689900004     0.0000000000    -2.8187697219
    9      C       3.6653600003     0.0000000000    -2.1161997217
   10      C       3.6756300001     0.0000000000    -0.7288297217
   11      H      -2.1452600006    -0.0000000000     4.0900102775
   12      H       2.1452599994     0.0000000000     4.0900102781
   13      H      -0.0000000008     0.0000000000     5.3160102778
   14      H       3.3822099997     0.0000000000     1.9527202783
   15      H       2.4694200006     0.0000000000    -3.9028597219
   16      H       4.6038000004     0.0000000000    -2.6579997215
   17      H       4.6146800000     0.0000000000    -0.1871497215
   18      C      -2.4423600002    -0.0000000000     1.4101002774
   19      C      -0.0000000002     0.0000000000     1.4186802778
   20      C      -1.2365000003    -0.0000000000     2.1311702776
   21      H      -3.3822100003    -0.0000000000     1.9527202773
   22      C       1.2286100001     0.0000000000    -0.7093397220
   23      C       1.2273900003     0.0000000000    -2.1364297220
   24      C       0.0000000004    -0.0000000000    -2.8201997222
   25      H       0.0000000006    -0.0000000000    -3.9054297222
   26      C      -3.6756299999    -0.0000000000    -0.7288297228
   27      C      -3.6653599997    -0.0000000000    -2.1161997228
   28      C      -2.4689899996    -0.0000000000    -2.8187697226
   29      C      -1.2273899997    -0.0000000000    -2.1364297224
   30      C      -1.2286099999    -0.0000000000    -0.7093397224
   31      C      -2.4639000000    -0.0000000000     0.0052602774
   32      H      -4.6146800000    -0.0000000000    -0.1871497229
   33      H      -4.6037999996    -0.0000000000    -2.6579997229
   34      H      -2.4694199994    -0.0000000000    -3.9028597226
 ----------------------------------------------------------------
 Molecular Point Group                 C2v   NOp =  4
 Largest Abelian Subgroup              C2v   NOp =  4
 Nuclear Repulsion Energy =        1589.09947594 hartrees
 There are       73 alpha and       71 beta electrons
 Requested basis set is 6-311G(d,p)
 There are 158 shells and 468 basis functions

 Total QAlloc Memory Limit  12000 MB
 Mega-Array Size      2933 MB
 MEM_STATIC part      3000 MB

 A cutoff of  1.0D-09 yielded   7074 shell pairs
 There are     68605 function pairs (     74947 Cartesian)
 Smallest overlap matrix eigenvalue = 2.90E-05

 Q-Chem warning in module stvman/mkSTV.C, line 313:

 Overlap eigenvalue is smaller than square root of threshold
 Use THRESH >= 12 to get rid of this warning


 Scale SEOQF with 1.000000e-01/1.000000e+00/1.000000e-02

 Standard Electronic Orientation quadrupole field applied
 Nucleus-field energy     =     0.0000000186 hartrees
 Guess from superposition of atomic densities
 Warning:  Energy on first SCF cycle will be non-variational
 SAD guess density has 144.000000 electrons

 -----------------------------------------------------------------------
  General SCF calculation program by
  Eric Jon Sundstrom, Paul Horn, Yuezhi Mao, Dmitri Zuev, Alec White,
  David Stuck, Shaama M.S., Shane Yost, Joonho Lee, David Small,
  Daniel Levine, Susi Lehtola, Hugh Burton, Evgeny Epifanovsky,
  Bang C. Huynh
 -----------------------------------------------------------------------
 Hartree-Fock
 Orthonormalizing orbitals
 A restricted open-shell SCF calculation will be
 performed using GDM
 SCF converges when RMS gradient is below 1.0e-05
 ---------------------------------------
  Cycle       Energy        RMS Gradient
 ---------------------------------------
    1    -837.2012332124      3.01e-01   Descent step
    2    -837.9653553199      2.41e-01   Descent step
    3    -838.6093704083      1.97e-01   Descent step
    4    -839.1395180293      1.58e-01   Descent step
    5    -839.5613780236      1.21e-01   Descent step
    6    -839.8801887439      8.71e-02   Descent step
    7    -840.1010408908      5.58e-02   Descent step
    8    -840.2291164247      2.97e-02   Normal BFGS step
    9    -840.2709343163      4.89e-03   Normal BFGS step
   10    -840.2712085341      1.62e-03   Normal BFGS step
   11    -840.2712310622      1.37e-03   Normal BFGS step
   12    -840.2712407448      2.27e-04   Normal BFGS step
   13    -840.2712406035      1.01e-04  Line search: overstep
   14    -840.2712408627      1.52e-04   Normal BFGS step
   15    -840.2712410339      4.68e-05   Normal BFGS step
   16    -840.2712411737      1.72e-05   Normal BFGS step
   17    -840.2712411802      5.46e-06  Convergence criterion met
The disked orbital energies are calculated using alpha and beta Focks
 ---------------------------------------
 Alpha HF Exchange    Energy = -59.74055330427357
 Beta HF Exchange     Energy = -58.85401058263975
 Nuclear Attraction   Energy =   0.00000000000000
 One-Electron (alpha) Energy = -2171.12329457338001
 One-Electron (beta)  Energy = -2123.83300864680405
 Total Coulomb        Energy = 1984.18014996805323
 Final Alpha MO Eigenvalues
            1           2           3           4           5           6
    1 -11.2497144 -11.2492887 -11.2492883 -11.2492036 -11.2491179 -11.2491175
            7           8           9          10          11          12
    1 -11.2490572 -11.2467057 -11.2467053 -11.2464280 -11.2434872 -11.2434939
           13          14          15          16          17          18
    1 -11.2434887 -11.2413119 -11.2413113 -11.2413142 -11.2416177 -11.2416164
           19          20          21          22          23          24
    1 -11.2416156 -11.2397110 -11.2397110 -11.2397108  -1.2162655  -1.1686889
           25          26          27          28          29          30
    1  -1.1686870  -1.1002009  -1.1010760  -1.1010753  -1.0268957  -1.0183342
           31          32          33          34          35          36
    1  -1.0183340  -1.0140029  -0.9266024  -0.9266015  -0.8639171  -0.8618521
           37          38          39          40          41          42
    1  -0.8618518  -0.8224072  -0.7613985  -0.7554138  -0.7554132  -0.7179583
           43          44          45          46          47          48
    1  -0.7179583  -0.6629620  -0.6629619  -0.6502303  -0.6365501  -0.6365500
           49          50          51          52          53          54
    1  -0.6247200  -0.6017123  -0.5874441  -0.5874440  -0.5755259  -0.5830521
           55          56          57          58          59          60
    1  -0.5586493  -0.5586488  -0.5380437  -0.5211231  -0.5211222  -0.5272088
           61          62          63          64          65          66
    1  -0.5272073  -0.5091869  -0.4679109  -0.4679106  -0.4411636  -0.4476861
           67          68          69          70          71          72
    1  -0.4476857  -0.3400320  -0.3400317  -0.3538421  -0.3413488  -0.2163206
           73          74          75          76          77          78
    1  -0.2163199   0.0795355   0.1034984   0.1034991   0.0995671   0.1519783
           79          80          81          82          83          84
    1   0.1589533   0.1589548   0.1734808   0.1734837   0.1903714   0.1983950
           85          86          87          88          89          90
    1   0.2176440   0.2176509   0.2146143   0.2132141   0.2132146   0.2603318
           91          92          93          94          95          96
    1   0.2603353   0.2761689   0.3444495   0.3444506   0.3668463   0.3668559
           97          98          99         100         101         102
    1   0.3901093   0.4120847   0.4120883   0.4261657   0.4360064   0.4375228
          103         104         105         106         107         108
    1   0.4375235   0.4496915   0.4558732   0.4692158   0.4727220   0.4727255
          109         110         111         112         113         114
    1   0.4830432   0.4830523   0.5123028   0.5123029   0.5469185   0.5501412
          115         116         117         118         119         120
    1   0.5537098   0.5564728   0.5564853   0.5619655   0.5619659   0.5771536
          121         122         123         124         125         126
    1   0.5883525   0.5883532   0.5959205   0.5959206   0.6032216   0.6072064
          127         128         129         130         131         132
    1   0.6085828   0.6086038   0.6193849   0.6193965   0.6343750   0.6405781
          133         134         135         136         137         138
    1   0.6462875   0.6468999   0.6469217   0.6594209   0.6594252   0.6614100
          139         140         141         142         143         144
    1   0.6614102   0.6591983   0.6722775   0.6723051   0.6754504   0.6853660
          145         146         147         148         149         150
    1   0.6959519   0.7126587   0.7126682   0.7246244   0.7246243   0.7289974
          151         152         153         154         155         156
    1   0.7289975   0.7454146   0.7454539   0.7686087   0.7716234   0.7798784
          157         158         159         160         161         162
    1   0.8091792   0.8091821   0.8100633   0.8150617   0.8368896   0.8400147
          163         164         165         166         167         168
    1   0.8400559   0.8410739   0.8410741   0.8498664   0.8642153   0.8737127
          169         170         171         172         173         174
    1   0.8737219   0.8778613   0.8778788   0.9321992   0.9321991   0.9344810
          175         176         177         178         179         180
    1   0.9411314   0.9411326   0.9420829   0.9746973   0.9747033   0.9828946
          181         182         183         184         185         186
    1   1.0170974   1.0226322   1.0226380   1.0309559   1.0393515   1.0393886
          187         188         189         190         191         192
    1   1.0766452   1.0817034   1.0817096   1.0849012   1.0985174   1.1037196
          193         194         195         196         197         198
    1   1.1037431   1.1277911   1.1277925   1.1486784   1.1486789   1.1559400
          199         200         201         202         203         204
    1   1.1559516   1.1667221   1.1780147   1.1932550   1.1933213   1.2258602
          205         206         207         208         209         210
    1   1.2321965   1.2339938   1.2353711   1.2353724   1.2525067   1.2525198
          211         212         213         214         215         216
    1   1.2765552   1.2765553   1.2992684   1.3102880   1.3103496   1.3129271
          217         218         219         220         221         222
    1   1.3109443   1.3109445   1.3206342   1.3442172   1.3631037   1.3712091
          223         224         225         226         227         228
    1   1.3712091   1.3758887   1.3924769   1.3925054   1.4171213   1.4171218
          229         230         231         232         233         234
    1   1.4283132   1.4283234   1.4541141   1.4541794   1.5140706   1.5272361
          235         236         237         238         239         240
    1   1.5277810   1.5662173   1.5961919   1.5964587   1.6001122   1.6161814
          241         242         243         244         245         246
    1   1.6507363   1.6508664   1.6980326   1.7055811   1.7055863   1.7151745
          247         248         249         250         251         252
    1   1.7129130   1.7129132   1.7229871   1.7326238   1.7327173   1.7350848
          253         254         255         256         257         258
    1   1.7407789   1.7407791   1.7697644   1.8038901   1.8116448   1.8116462
          259         260         261         262         263         264
    1   1.8141383   1.8141617   1.8155396   1.8238610   1.8389764   1.8390024
          265         266         267         268         269         270
    1   1.8791418   1.8818146   1.8818628   1.9213877   1.9214013   1.9331964
          271         272         273         274         275         276
    1   1.9331979   1.9517104   1.9526722   1.9527555   1.9598157   1.9867896
          277         278         279         280         281         282
    1   2.0066652   2.0158534   2.0158544   2.0510437   2.0510452   2.0680335
          283         284         285         286         287         288
    1   2.0934638   2.0934670   2.0996505   2.1038579   2.1038665   2.1085269
          289         290         291         292         293         294
    1   2.1145261   2.1652549   2.1653119   2.1814546   2.1823507   2.1823517
          295         296         297         298         299         300
    1   2.1863413   2.1863793   2.1989788   2.1989812   2.2087794   2.2087814
          301         302         303         304         305         306
    1   2.2132382   2.2138723   2.2279702   2.2280709   2.2413653   2.2413655
          307         308         309         310         311         312
    1   2.2443132   2.2444036   2.2932251   2.2932577   2.3336900   2.3597609
          313         314         315         316         317         318
    1   2.3598098   2.3774416   2.3774424   2.3823678   2.3851038   2.4354392
          319         320         321         322         323         324
    1   2.4465371   2.4735539   2.4790442   2.4790455   2.4941342   2.5089365
          325         326         327         328         329         330
    1   2.5089450   2.5454708   2.5454771   2.5669852   2.5669860   2.5912451
          331         332         333         334         335         336
    1   2.6319988   2.6319989   2.6509263   2.6509291   2.6514727   2.6748611
          337         338         339         340         341         342
    1   2.6853196   2.7351972   2.7351979   2.7510399   2.8182777   2.8182840
          343         344         345         346         347         348
    1   2.8265995   2.8265998   2.8731141   2.8892575   2.8892682   2.9020792
          349         350         351         352         353         354
    1   2.9020850   2.9094971   2.9175266   2.9165217   2.9251246   2.9251539
          355         356         357         358         359         360
    1   2.9538161   2.9538236   2.9554659   2.9550827   2.9550836   2.9671973
          361         362         363         364         365         366
    1   2.9851815   2.9851842   2.9909213   3.0249157   3.0250269   3.0307298
          367         368         369         370         371         372
    1   3.0307302   3.0350389   3.0738126   3.0854368   3.0854387   3.1155301
          373         374         375         376         377         378
    1   3.1201374   3.1425824   3.1425826   3.1490080   3.1565838   3.1620627
          379         380         381         382         383         384
    1   3.1620630   3.1819252   3.1819424   3.2281380   3.2281383   3.2457250
          385         386         387         388         389         390
    1   3.2457259   3.2783619   3.2784264   3.2806684   3.3230464   3.3450588
          391         392         393         394         395         396
    1   3.4089798   3.4123174   3.4123181   3.4845209   3.4845228   3.5310971
          397         398         399         400         401         402
    1   3.5622555   3.6023069   3.6023147   3.6426132   3.6616819   3.6616865
          403         404         405         406         407         408
    1   3.6944121   3.6944280   3.7361416   3.7719953   3.7955920   3.7956031
          409         410         411         412         413         414
    1   3.8003702   3.8199559   3.8199924   3.8393753   3.8468125   3.8468132
          415         416         417         418         419         420
    1   3.8485022   3.8964746   3.8965302   3.9211831   3.9249695   3.9249775
          421         422         423         424         425         426
    1   4.0010648   4.0010702   4.0091990   4.0364768   4.0364810   4.0903397
          427         428         429         430         431         432
    1   4.2216204   4.2216532   4.3578705   4.4486525   4.4486623   4.4539623
          433         434         435         436         437         438
    1   4.5088111   4.5088187   4.5090220   4.6753032   4.6753503   4.6814456
          439         440         441         442         443         444
    1   4.9175758   4.9175788   5.2363486   5.2718140   5.2718255   5.3006462
          445         446         447         448         449         450
    1   5.3114599   5.3114731  24.4857410  24.8016586  24.8016636  24.9789346
          451         452         453         454         455         456
    1  24.9917235  24.9917246  25.0822917  25.0968773  25.0968793  25.1079929
          457         458         459         460         461         462
    1  25.1675872  25.1675931  25.1927895  25.1927965  25.1994328  25.2044709
          463         464         465         466         467         468
    1  25.2791423  25.2827538  25.2827715  25.3421800  25.3421874  25.3427139
 Final Beta MO Eigenvalues
            1           2           3           4           5           6
    1 -11.2496100 -11.2492058 -11.2492055 -11.2491519 -11.2490753 -11.2490750
            7           8           9          10          11          12
    1 -11.2490406 -11.2458326 -11.2458322 -11.2456034 -11.2392378 -11.2392344
           13          14          15          16          17          18
    1 -11.2392339 -11.2397003 -11.2396999 -11.2396946 -11.2381220 -11.2381197
           19          20          21          22          23          24
    1 -11.2381190 -11.2378390 -11.2378385 -11.2378372  -1.2097339  -1.1596978
           25          26          27          28          29          30
    1  -1.1596958  -1.0917583  -1.0892184  -1.0892176  -1.0155998  -1.0113946
           31          32          33          34          35          36
    1  -1.0113943  -1.0020658  -0.9083469  -0.9083462  -0.8573751  -0.8569610
           37          38          39          40          41          42
    1  -0.8569608  -0.8133574  -0.7552471  -0.7486442  -0.7486436  -0.7140496
           43          44          45          46          47          48
    1  -0.7140496  -0.6576488  -0.6576487  -0.6459507  -0.6325352  -0.6325351
           49          50          51          52          53          54
    1  -0.6215317  -0.5972001  -0.5839174  -0.5839174  -0.5704502  -0.5633094
           55          56          57          58          59          60
    1  -0.5541479  -0.5541474  -0.5351033  -0.5176264  -0.5176256  -0.4974634
           61          62          63          64          65          66
    1  -0.4974616  -0.5050837  -0.4648751  -0.4648749  -0.4129726  -0.4023064
           67          68          69          70          71          72
    1  -0.4023057  -0.3150815  -0.3150808  -0.2931398  -0.2825782   0.0109025
           73          74          75          76          77          78
    1   0.0109022   0.1274549   0.1237298   0.1237301   0.1538270   0.1530685
           79          80          81          82          83          84
    1   0.1599151   0.1599166   0.1745156   0.1745186   0.1912425   0.1996143
           85          86          87          88          89          90
    1   0.2186080   0.2186150   0.2390927   0.2485113   0.2485116   0.2621096
           91          92          93          94          95          96
    1   0.2621132   0.2779691   0.3643494   0.3643501   0.3687430   0.3687521
           97          98          99         100         101         102
    1   0.3916476   0.4166739   0.4166779   0.4306908   0.4390603   0.4403829
          103         104         105         106         107         108
    1   0.4403834   0.4545596   0.4649207   0.4721932   0.4759887   0.4759911
          109         110         111         112         113         114
    1   0.4873542   0.4873636   0.5164948   0.5164946   0.5584414   0.5594601
          115         116         117         118         119         120
    1   0.5609464   0.5664254   0.5664393   0.5760246   0.5760251   0.5809529
          121         122         123         124         125         126
    1   0.5984902   0.5984914   0.6134257   0.6134260   0.6110528   0.6130343
          127         128         129         130         131         132
    1   0.6136198   0.6136397   0.6241921   0.6242064   0.6408498   0.6595008
          133         134         135         136         137         138
    1   0.6504163   0.6519506   0.6519712   0.6638111   0.6638154   0.6707335
          139         140         141         142         143         144
    1   0.6707336   0.6790613   0.6760092   0.6760357   0.6811774   0.6906655
          145         146         147         148         149         150
    1   0.6984722   0.7154786   0.7154899   0.7370333   0.7370339   0.7413905
          151         152         153         154         155         156
    1   0.7413912   0.7490011   0.7490398   0.7770621   0.7742551   0.7828011
          157         158         159         160         161         162
    1   0.8108524   0.8108560   0.8197278   0.8161883   0.8409602   0.8432252
          163         164         165         166         167         168
    1   0.8432642   0.8503363   0.8503365   0.8522329   0.8688728   0.8767682
          169         170         171         172         173         174
    1   0.8767776   0.8824632   0.8824815   0.9366823   0.9366824   0.9368537
          175         176         177         178         179         180
    1   0.9449760   0.9449771   0.9455315   0.9791512   0.9791571   0.9867311
          181         182         183         184         185         186
    1   1.0206186   1.0258399   1.0258459   1.0353387   1.0419281   1.0419653
          187         188         189         190         191         192
    1   1.0793303   1.0844746   1.0844809   1.0876073   1.1023460   1.1070593
          193         194         195         196         197         198
    1   1.1070819   1.1308753   1.1308767   1.1581536   1.1581541   1.1594903
          199         200         201         202         203         204
    1   1.1595018   1.1692860   1.1797907   1.1956494   1.1957176   1.2385508
          205         206         207         208         209         210
    1   1.2410349   1.2379665   1.2463562   1.2463575   1.2562911   1.2563040
          211         212         213         214         215         216
    1   1.2864490   1.2864491   1.3151048   1.3130585   1.3131183   1.3162848
          217         218         219         220         221         222
    1   1.3231562   1.3231564   1.3278836   1.3482095   1.3749189   1.3810596
          223         224         225         226         227         228
    1   1.3810597   1.3801099   1.3953627   1.3953910   1.4262324   1.4262328
          229         230         231         232         233         234
    1   1.4311415   1.4311534   1.4583069   1.4583710   1.5171543   1.5301264
          235         236         237         238         239         240
    1   1.5306686   1.5681951   1.5987972   1.5990653   1.6064451   1.6185355
          241         242         243         244         245         246
    1   1.6524958   1.6526296   1.7043796   1.7081267   1.7081326   1.7167446
          247         248         249         250         251         252
    1   1.7218446   1.7218447   1.7255176   1.7343049   1.7344016   1.7411413
          253         254         255         256         257         258
    1   1.7474815   1.7474817   1.7763491   1.8083187   1.8167104   1.8167117
          259         260         261         262         263         264
    1   1.8185184   1.8185341   1.8231259   1.8292382   1.8462131   1.8462387
          265         266         267         268         269         270
    1   1.8841106   1.8853997   1.8854495   1.9223608   1.9223738   1.9388432
          271         272         273         274         275         276
    1   1.9388447   1.9530037   1.9563586   1.9564406   1.9630174   1.9876831
          277         278         279         280         281         282
    1   2.0100310   2.0194622   2.0194634   2.0579351   2.0579365   2.0768630
          283         284         285         286         287         288
    1   2.0979530   2.0979588   2.1059056   2.1103447   2.1103535   2.1171654
          289         290         291         292         293         294
    1   2.1188526   2.1666536   2.1667098   2.1831732   2.1895120   2.1895131
          295         296         297         298         299         300
    1   2.1912714   2.1913098   2.2005245   2.2005348   2.2156720   2.2156740
          301         302         303         304         305         306
    1   2.2168718   2.2196788   2.2302058   2.2307360   2.2478242   2.2478242
          307         308         309         310         311         312
    1   2.2467051   2.2467893   2.2956309   2.2956647   2.3349911   2.3611543
          313         314         315         316         317         318
    1   2.3612034   2.3847672   2.3847681   2.3893015   2.3871128   2.4435161
          319         320         321         322         323         324
    1   2.4498968   2.4755545   2.4848411   2.4848423   2.4966943   2.5113803
          325         326         327         328         329         330
    1   2.5113894   2.5479073   2.5479133   2.5688155   2.5688163   2.5988599
          331         332         333         334         335         336
    1   2.6382962   2.6382963   2.6529352   2.6529381   2.6523739   2.6803055
          337         338         339         340         341         342
    1   2.6873950   2.7361568   2.7361576   2.7530557   2.8214689   2.8214745
          343         344         345         346         347         348
    1   2.8319009   2.8319011   2.8752230   2.8915623   2.8915731   2.9036764
          349         350         351         352         353         354
    1   2.9036818   2.9104858   2.9192099   2.9226022   2.9262058   2.9262342
          355         356         357         358         359         360
    1   2.9553698   2.9553777   2.9564867   2.9633176   2.9633185   2.9686344
          361         362         363         364         365         366
    1   2.9864482   2.9864511   2.9924669   3.0267428   3.0268544   3.0413285
          367         368         369         370         371         372
    1   3.0413289   3.0420525   3.0766366   3.0868170   3.0868189   3.1167416
          373         374         375         376         377         378
    1   3.1320738   3.1440502   3.1440504   3.1503151   3.1668303   3.1698273
          379         380         381         382         383         384
    1   3.1698276   3.1834454   3.1834626   3.2394157   3.2394164   3.2520120
          385         386         387         388         389         390
    1   3.2520133   3.2797033   3.2797674   3.2870522   3.3275672   3.3466150
          391         392         393         394         395         396
    1   3.4162926   3.4197393   3.4197399   3.4887486   3.4887504   3.5327106
          397         398         399         400         401         402
    1   3.5649832   3.6034629   3.6034707   3.6438806   3.6632172   3.6632218
          403         404         405         406         407         408
    1   3.6957499   3.6957659   3.7378131   3.7740815   3.7972953   3.7973065
          409         410         411         412         413         414
    1   3.8022952   3.8215750   3.8216112   3.8412586   3.8487218   3.8487227
          415         416         417         418         419         420
    1   3.8497517   3.8979974   3.8980528   3.9232049   3.9268131   3.9268211
          421         422         423         424         425         426
    1   4.0023586   4.0023640   4.0120175   4.0396584   4.0396628   4.0927283
          427         428         429         430         431         432
    1   4.2237410   4.2237738   4.3596526   4.4508204   4.4508301   4.4560421
          433         434         435         436         437         438
    1   4.5122312   4.5122389   4.5124116   4.6784979   4.6785449   4.6849157
          439         440         441         442         443         444
    1   4.9206224   4.9206253   5.2391412   5.2742673   5.2742787   5.3030860
          445         446         447         448         449         450
    1   5.3129941   5.3130073  24.4865670  24.8026913  24.8026963  24.9797690
          451         452         453         454         455         456
    1  24.9928068  24.9928078  25.0832133  25.0974997  25.0975018  25.1087289
          457         458         459         460         461         462
    1  25.1685624  25.1685684  25.1942710  25.1942780  25.2002049  25.2059654
          463         464         465         466         467         468
    1  25.2802751  25.2842430  25.2842607  25.3431761  25.3431835  25.3437320
 SCF time:   CPU 183.15s  wall 189.00s 
<S^2> =          2.000000000
 SCF   energy in the final basis set =     -840.2712411802
 Total energy in the final basis set =     -840.2712411802
  
     ##========================================##
     ||                                        ||
     ||              R A S M A N 2             ||
     ||________________________________________||
     ||                                        ||
     ||  Author:                               ||
     ||                                        ||
     ||        David Casanova (2010)           ||
     ||                                        ||
     ##========================================##
  
Setting single-point xc-functionals (if necessary)

  ***************************************************
  *  RAS-CI Dimensions:                             *
  *                                                 *
  *  Active Elec.:  10 ( 6, 4)   Active Orb.:  10   *
  *  Doubly Occ. :  67           Doubly Vir.: 391   *
  *  Frozen Occ. :  47           Frozen Vir.: 371   *
  *                                                 *
  *  Total CI configurations:   3168900             * 
  *    Active configurations:     44100             * 
  *      Hole configurations:   1562400             * 
  *  Particle configurations:   1562400             * 
  *                                                 *
  *   Requested states:       10                    *
  *  Spin multiplicity: Any multiplicity            *
  *                                                 *
  ***************************************************
-----------------------------------------
    Memory requirements of RASCI

 Each CI-vector requires     24.18 MiB 
 Max. subspace vectors            600      

 Reduced Lists                0.01 MiB 
 Excitation Lists             0.02 MiB 
 Excitation Lists Sign        0.02 MiB 
 CI-space (Max)           14750.59 MiB 
 Integrals                  264.58 MiB 
 Memory required (Max)    14750.63 MiB 
 Memory available          2861.02 MiB 

 Q-Chem warning in module rasman2/ras_mem_check.C, line 162:

 Static memory may be insufficient to store the subspace vectors


    Disk requirements of RASCI

 Fock matrix                  3.34 MiB 
 2-electron integrals         3.81 MiB 
 CI-space                 29012.15 MiB 
 Disk required            29019.30 MiB 
-----------------------------------------
  
RAS1 HF-like energy:           -830.1061938436
 Computing integrals
 Computing J and K matrices
 Computing addressing
 Making amplitude guesses
 
Direct CI diagonalization
 ---------------------------------------------------
 Iter    Rts Conv    Rts Left    Ttl Dev     Max Dev
 ---------------------------------------------------
   1         0          10      0.001442    0.000154
   2         0          10      0.000706    0.000080
   3         0          10      0.000422    0.000056
   4         0          10      0.000337    0.000051
   5         0          10      0.000292    0.000047
   6         0          10      0.000266    0.000042
   7         0          10      0.000285    0.000083
   8         0          10      0.000259    0.000068
   9         0          10      0.000224    0.000048
  10         1           9      0.000198    0.000042
  11         1           9      0.000165    0.000030
  12         1           9      0.000128    0.000023
  13         1           9      0.000095    0.000019
  14         1           9      0.000065    0.000013
  15         1           9      0.000043    0.000009
  16         1           9      0.000029    0.000006
  17         3           7      0.000020    0.000004
  18         6           4      0.000015    0.000003
  19         6           4      0.000012    0.000002
  20         7           3      0.000009    0.000002
  21         8           2      0.000008    0.000001
  22        10           0      0.000007    0.000001    Roots Converged
 ---------------------------------------------------
   
**************************************************
 RAS-CI total energy for state   1:   -840.369857884406
  Excitation energy (eV) =  0.000000000000
  State symmetry: B1    (C2v      )
  <S^2>      :  2.0000
  Dipole Moment:    0.0000 X     0.0000 Y    -0.0000 Z
 NATURAL OCCUPATION NUMBERS (higher than 1.0E-05)
            1           2           3           4           5           6
    1   2.0000000   2.0000000   2.0000000   2.0000000   2.0000000   2.0000000
            7           8           9          10          11          12
    1   2.0000000   2.0000000   2.0000000   2.0000000   2.0000000   2.0000000
           13          14          15          16          17          18
    1   2.0000000   2.0000000   2.0000000   2.0000000   2.0000000   2.0000000
           19          20          21          22          23          24
    1   2.0000000   2.0000000   2.0000000   2.0000000   2.0000000   2.0000000
           25          26          27          28          29          30
    1   2.0000000   2.0000000   2.0000000   2.0000000   2.0000000   2.0000000
           31          32          33          34          35          36
    1   2.0000000   2.0000000   2.0000000   2.0000000   2.0000000   2.0000000
           37          38          39          40          41          42
    1   2.0000000   2.0000000   2.0000000   2.0000000   2.0000000   2.0000000
           43          44          45          46          47          48
    1   2.0000000   2.0000000   2.0000000   2.0000000   2.0000000   2.0000000
           49          50          51          52          53          54
    1   2.0000000   2.0000000   2.0000000   2.0000000   2.0000000   2.0000000
           55          56          57          58          59          60
    1   2.0000000   2.0000000   2.0000000   2.0000000   2.0000000   2.0000000
           61          62          63          64          65          66
    1   2.0000000   1.9990778   1.9976311   1.9976311   1.9927989   1.9912788
           67          68          69          70          71          72
    1   1.9912787   1.9522889   1.9522886   1.9387105   1.9340549   1.0015502
           73          74          75          76          77          78
    1   1.0015502   0.0654502   0.0608972   0.0482138   0.0482134   0.0080823
           79          80          81          82
    1   0.0080822   0.0067599   0.0020806   0.0020806
Natural Orbitals stored in FCHK

  Amplitudes : 
  
 | HOLE  | ALPHA      | BETA       | PART  |    AMPLITUDE 
--------------------------------------------------
 |       | 1111110000 | 1111000000 |       |     9.1504056610107E-01
--------------------------------------------------
*** Contributions RASCI wfn    Active:  94.14
                                 Hole:   3.07
                                 Part:   2.79

      Mulliken population analysis 
 ---------------------------------------------------
   Atom    Charge (a.u.)   Spin (a.u.)  
 ---------------------------------------------------
   1  C   -0.091804        0.219369 
   2  C    0.000487       -0.033427 
   3  C   -0.091804        0.219369 
   4  C   -0.061595       -0.038313 
   5  C   -0.010133       -0.035844 
   6  C   -0.029262        0.263106 
   7  C    0.000543       -0.033428 
   8  C   -0.091829        0.219374 
   9  C   -0.061620       -0.038314 
  10  C   -0.091734        0.219371 
  11  H    0.087637        0.001581 
  12  H    0.087637        0.001581 
  13  H    0.098400       -0.000322 
  14  H    0.078818        0.001830 
  15  H    0.087634        0.001581 
  16  H    0.098404       -0.000322 
  17  H    0.087637        0.001581 
  18  C   -0.029262        0.263106 
  19  C   -0.075668        0.077263 
  20  C    0.000487       -0.033427 
  21  H    0.078818        0.001830 
  22  C   -0.075348        0.077266 
  23  C   -0.000127       -0.033427 
  24  C   -0.028707        0.263103 
  25  H    0.078830        0.001830 
  26  C   -0.091734        0.219371 
  27  C   -0.061620       -0.038314 
  28  C   -0.091829        0.219374 
  29  C   -0.000127       -0.033427 
  30  C   -0.075348        0.077266 
  31  C    0.000543       -0.033428 
  32  H    0.087637        0.001581 
  33  H    0.098404       -0.000322 
  34  H    0.087634        0.001581 
 ---------------------------------------------------
   Sum:   -0.000000        2.000000 
 ---------------------------------------------------
 
  
 NATURAL OCCUPATION NUMBERS (higher than 1.0E-05)
            1           2           3           4           5           6
    1   2.0000000   2.0000000   2.0000000   2.0000000   2.0000000   2.0000000
            7           8           9          10          11          12
    1   2.0000000   2.0000000   2.0000000   2.0000000   2.0000000   2.0000000
           13          14          15          16          17          18
    1   2.0000000   2.0000000   2.0000000   2.0000000   2.0000000   2.0000000
           19          20          21          22          23          24
    1   2.0000000   2.0000000   2.0000000   2.0000000   2.0000000   2.0000000
           25          26          27          28          29          30
    1   2.0000000   2.0000000   2.0000000   2.0000000   2.0000000   2.0000000
           31          32          33          34          35          36
    1   2.0000000   2.0000000   2.0000000   2.0000000   2.0000000   2.0000000
           37          38          39          40          41          42
    1   2.0000000   2.0000000   2.0000000   2.0000000   2.0000000   2.0000000
           43          44          45          46          47          48
    1   2.0000000   2.0000000   2.0000000   2.0000000   2.0000000   2.0000000
           49          50          51          52          53          54
    1   2.0000000   2.0000000   2.0000000   2.0000000   2.0000000   2.0000000
           55          56          57          58          59          60
    1   2.0000000   2.0000000   2.0000000   2.0000000   2.0000000   2.0000000
           61          62          63          64          65          66
    1   2.0000000   1.9990778   1.9976311   1.9976311   1.9927989   1.9912788
           67          68          69          70          71          72
    1   1.9912787   1.9522889   1.9522886   1.9387105   1.9340549   1.0015502
           73          74          75          76          77          78
    1   1.0015502   0.0654502   0.0608972   0.0482138   0.0482134   0.0080823
           79          80          81          82
    1   0.0080822   0.0067599   0.0020806   0.0020806
  
*** Unpaired Electrons
 Yamaguchi Nd:         2.98
 Head-Gordon Nu:       2.50
 Head-Gordon Nu_nl:    2.10
  
**************************************************
 RAS-CI total energy for state   2:   -840.265459947468
  Excitation energy (eV) =  2.840812400089
  State symmetry: A1    (C2v      )
  <S^2>      :  2.0000
  Dipole Moment:   -0.0000 X     0.0000 Y    -0.0485 Z
  Trans. Moment:   -0.0198 X    -0.0000 Y    -0.0000 Z
  Strength   :  0.000027
  Natural transition orbitals ( 1 -> 2 ):
   e-/hole pair  1 alpha:  ampl =  0.617443 ( 38.1%)   [10 : 11]
   e-/hole pair  2 alpha:  ampl =  0.176688 (  3.1%)   [9 : 12]
   e-/hole pair  1 beta :  ampl =  0.581312 ( 33.8%)   [10 : 11]
   e-/hole pair  2 beta :  ampl =  0.173596 (  3.0%)   [9 : 12]
   Sum of square amplitudes: 0.81

 NATURAL OCCUPATION NUMBERS (higher than 1.0E-05)
            1           2           3           4           5           6
    1   2.0000000   2.0000000   2.0000000   2.0000000   2.0000000   2.0000000
            7           8           9          10          11          12
    1   2.0000000   2.0000000   2.0000000   2.0000000   2.0000000   2.0000000
           13          14          15          16          17          18
    1   2.0000000   2.0000000   2.0000000   2.0000000   2.0000000   2.0000000
           19          20          21          22          23          24
    1   2.0000000   2.0000000   2.0000000   2.0000000   2.0000000   2.0000000
           25          26          27          28          29          30
    1   2.0000000   2.0000000   2.0000000   2.0000000   2.0000000   2.0000000
           31          32          33          34          35          36
    1   2.0000000   2.0000000   2.0000000   2.0000000   2.0000000   2.0000000
           37          38          39          40          41          42
    1   2.0000000   2.0000000   2.0000000   2.0000000   2.0000000   2.0000000
           43          44          45          46          47          48
    1   2.0000000   2.0000000   2.0000000   2.0000000   2.0000000   2.0000000
           49          50          51          52          53          54
    1   2.0000000   2.0000000   2.0000000   2.0000000   2.0000000   2.0000000
           55          56          57          58          59          60
    1   2.0000000   2.0000000   2.0000000   2.0000000   2.0000000   2.0000000
           61          62          63          64          65          66
    1   2.0000000   1.9984855   1.9971698   1.9966080   1.9872825   1.9848923
           67          68          69          70          71          72
    1   1.9824707   1.9436457   1.9379690   1.9174628   1.5399554   1.0014457
           73          74          75          76          77          78
    1   0.9595810   0.5109024   0.0829148   0.0578071   0.0570958   0.0149573
           79          80          81          82
    1   0.0133217   0.0111525   0.0026023   0.0022776
Natural Orbitals stored in FCHK

  Amplitudes : 
  
 | HOLE  | ALPHA      | BETA       | PART  |    AMPLITUDE 
--------------------------------------------------
 |       | 1111110000 | 1110100000 |       |     5.5710132050345E-01
 |       | 1111110000 | 1011010000 |       |     1.5217841786257E-01
 |       | 1111110000 | 0111100000 |       |    -1.5215914873792E-01
 |       | 1111101000 | 1110100000 |       |    -1.0920822094005E-01
 |       | 1111100010 | 1111000000 |       |    -1.5782114159868E-01
 |       | 1111011000 | 1111000000 |       |    -5.9104921975811E-01
 |       | 1111011000 | 1110010000 |       |     1.0920818410668E-01
 |       | 1111010100 | 1111000000 |       |    -1.5781146325413E-01
--------------------------------------------------
*** Contributions RASCI wfn    Active:  88.70
                                 Hole:   6.08
                                 Part:   5.22

      Mulliken population analysis 
 ---------------------------------------------------
   Atom    Charge (a.u.)   Spin (a.u.)  
 ---------------------------------------------------
   1  C   -0.087022       -0.012660 
   2  C   -0.002250        0.065033 
   3  C   -0.087022       -0.012660 
   4  C   -0.063983        0.165177 
   5  C   -0.022957        0.183972 
   6  C   -0.022053        0.150351 
   7  C   -0.002357        0.004344 
   8  C   -0.090139        0.154900 
   9  C   -0.060713        0.020749 
  10  C   -0.089327        0.148998 
  11  H    0.087720       -0.000125 
  12  H    0.087720       -0.000125 
  13  H    0.097928        0.001486 
  14  H    0.078541        0.001161 
  15  H    0.087685        0.001064 
  16  H    0.098244        0.000233 
  17  H    0.087653        0.001091 
  18  C   -0.022053        0.150351 
  19  C   -0.077710        0.031370 
  20  C   -0.002250        0.065033 
  21  H    0.078541        0.001161 
  22  C   -0.073284        0.064726 
  23  C   -0.003624        0.005124 
  24  C   -0.029934        0.405048 
  25  H    0.078507        0.002969 
  26  C   -0.089327        0.148998 
  27  C   -0.060713        0.020749 
  28  C   -0.090139        0.154900 
  29  C   -0.003623        0.005124 
  30  C   -0.073284        0.064726 
  31  C   -0.002357        0.004344 
  32  H    0.087653        0.001091 
  33  H    0.098244        0.000233 
  34  H    0.087685        0.001064 
 ---------------------------------------------------
   Sum:   -0.000000        2.000000 
 ---------------------------------------------------
 
  
 NATURAL OCCUPATION NUMBERS (higher than 1.0E-05)
            1           2           3           4           5           6
    1   2.0000000   2.0000000   2.0000000   2.0000000   2.0000000   2.0000000
            7           8           9          10          11          12
    1   2.0000000   2.0000000   2.0000000   2.0000000   2.0000000   2.0000000
           13          14          15          16          17          18
    1   2.0000000   2.0000000   2.0000000   2.0000000   2.0000000   2.0000000
           19          20          21          22          23          24
    1   2.0000000   2.0000000   2.0000000   2.0000000   2.0000000   2.0000000
           25          26          27          28          29          30
    1   2.0000000   2.0000000   2.0000000   2.0000000   2.0000000   2.0000000
           31          32          33          34          35          36
    1   2.0000000   2.0000000   2.0000000   2.0000000   2.0000000   2.0000000
           37          38          39          40          41          42
    1   2.0000000   2.0000000   2.0000000   2.0000000   2.0000000   2.0000000
           43          44          45          46          47          48
    1   2.0000000   2.0000000   2.0000000   2.0000000   2.0000000   2.0000000
           49          50          51          52          53          54
    1   2.0000000   2.0000000   2.0000000   2.0000000   2.0000000   2.0000000
           55          56          57          58          59          60
    1   2.0000000   2.0000000   2.0000000   2.0000000   2.0000000   2.0000000
           61          62          63          64          65          66
    1   2.0000000   1.9984855   1.9971698   1.9966080   1.9872825   1.9848923
           67          68          69          70          71          72
    1   1.9824707   1.9436457   1.9379690   1.9174628   1.5399554   1.0014457
           73          74          75          76          77          78
    1   0.9595810   0.5109024   0.0829148   0.0578071   0.0570958   0.0149573
           79          80          81          82
    1   0.0133217   0.0111525   0.0026023   0.0022776
  
*** Unpaired Electrons
 Yamaguchi Nd:         4.43
 Head-Gordon Nu:       3.43
 Head-Gordon Nu_nl:    3.18
  
**************************************************
 RAS-CI total energy for state   3:   -840.265459402321
  Excitation energy (eV) =  2.840827234289
  State symmetry: B1    (C2v      )
  <S^2>      :  2.0000
  Dipole Moment:    0.0000 X     0.0000 Y     0.0487 Z
  Trans. Moment:    0.0000 X    -0.0000 Y    -0.0201 Z
  Strength   :  0.000028
  Natural transition orbitals ( 1 -> 3 ):
   e-/hole pair  1 alpha:  ampl =  0.617225 ( 38.1%)   [10 : 11]
   e-/hole pair  2 alpha:  ampl =  0.187412 (  3.5%)   [9 : 12]
   e-/hole pair  1 beta :  ampl =  0.581113 ( 33.8%)   [10 : 11]
   e-/hole pair  2 beta :  ampl =  0.182767 (  3.3%)   [9 : 12]
   Sum of square amplitudes: 0.81

 NATURAL OCCUPATION NUMBERS (higher than 1.0E-05)
            1           2           3           4           5           6
    1   2.0000000   2.0000000   2.0000000   2.0000000   2.0000000   2.0000000
            7           8           9          10          11          12
    1   2.0000000   2.0000000   2.0000000   2.0000000   2.0000000   2.0000000
           13          14          15          16          17          18
    1   2.0000000   2.0000000   2.0000000   2.0000000   2.0000000   2.0000000
           19          20          21          22          23          24
    1   2.0000000   2.0000000   2.0000000   2.0000000   2.0000000   2.0000000
           25          26          27          28          29          30
    1   2.0000000   2.0000000   2.0000000   2.0000000   2.0000000   2.0000000
           31          32          33          34          35          36
    1   2.0000000   2.0000000   2.0000000   2.0000000   2.0000000   2.0000000
           37          38          39          40          41          42
    1   2.0000000   2.0000000   2.0000000   2.0000000   2.0000000   2.0000000
           43          44          45          46          47          48
    1   2.0000000   2.0000000   2.0000000   2.0000000   2.0000000   2.0000000
           49          50          51          52          53          54
    1   2.0000000   2.0000000   2.0000000   2.0000000   2.0000000   2.0000000
           55          56          57          58          59          60
    1   2.0000000   2.0000000   2.0000000   2.0000000   2.0000000   2.0000000
           61          62          63          64          65          66
    1   2.0000000   1.9985563   1.9973689   1.9963173   1.9872128   1.9849094
           67          68          69          70          71          72
    1   1.9833226   1.9483843   1.9359119   1.9108496   1.5441370   1.0010184
           73          74          75          76          77          78
    1   0.9621016   0.5045520   0.0912489   0.0588242   0.0515730   0.0142469
           79          80          81          82
    1   0.0133835   0.0112220   0.0028047   0.0020546
Natural Orbitals stored in FCHK

  Amplitudes : 
  
 | HOLE  | ALPHA      | BETA       | PART  |    AMPLITUDE 
--------------------------------------------------
 |       | 1111110000 | 1110010000 |       |     5.5711432934282E-01
 |       | 1111110000 | 1011100000 |       |     1.5218057944283E-01
 |       | 1111110000 | 0111010000 |       |     1.5217124133960E-01
 |       | 1111101000 | 1111000000 |       |     5.9105201994432E-01
 |       | 1111101000 | 1110010000 |       |     1.0897569662575E-01
 |       | 1111100100 | 1111000000 |       |    -1.5782351520866E-01
 |       | 1111011000 | 1110100000 |       |     1.0897030312099E-01
 |       | 1111010010 | 1111000000 |       |     1.5784527550593E-01
--------------------------------------------------
*** Contributions RASCI wfn    Active:  88.68
                                 Hole:   6.09
                                 Part:   5.23

      Mulliken population analysis 
 ---------------------------------------------------
   Atom    Charge (a.u.)   Spin (a.u.)  
 ---------------------------------------------------
   1  C   -0.090671        0.206772 
   2  C   -0.002849       -0.015376 
   3  C   -0.090671        0.206772 
   4  C   -0.059589       -0.027310 
   5  C   -0.023022        0.183322 
   6  C   -0.027690        0.319972 
   7  C   -0.002642        0.045168 
   8  C   -0.087610        0.039412 
   9  C   -0.062891        0.117427 
  10  C   -0.088219        0.045250 
  11  H    0.087654        0.001478 
  12  H    0.087654        0.001478 
  13  H    0.098344       -0.000183 
  14  H    0.078510        0.002364 
  15  H    0.087682        0.000290 
  16  H    0.098035        0.001072 
  17  H    0.087721        0.000263 
  18  C   -0.027690        0.319972 
  19  C   -0.072250        0.075641 
  20  C   -0.002849       -0.015376 
  21  H    0.078510        0.002364 
  22  C   -0.075996        0.042559 
  23  C   -0.002728        0.044484 
  24  C   -0.018665        0.065702 
  25  H    0.078570        0.000560 
  26  C   -0.088219        0.045250 
  27  C   -0.062891        0.117427 
  28  C   -0.087610        0.039412 
  29  C   -0.002728        0.044484 
  30  C   -0.075996        0.042559 
  31  C   -0.002642        0.045168 
  32  H    0.087721        0.000263 
  33  H    0.098035        0.001072 
  34  H    0.087682        0.000290 
 ---------------------------------------------------
   Sum:   -0.000000        2.000000 
 ---------------------------------------------------
 
  
 NATURAL OCCUPATION NUMBERS (higher than 1.0E-05)
            1           2           3           4           5           6
    1   2.0000000   2.0000000   2.0000000   2.0000000   2.0000000   2.0000000
            7           8           9          10          11          12
    1   2.0000000   2.0000000   2.0000000   2.0000000   2.0000000   2.0000000
           13          14          15          16          17          18
    1   2.0000000   2.0000000   2.0000000   2.0000000   2.0000000   2.0000000
           19          20          21          22          23          24
    1   2.0000000   2.0000000   2.0000000   2.0000000   2.0000000   2.0000000
           25          26          27          28          29          30
    1   2.0000000   2.0000000   2.0000000   2.0000000   2.0000000   2.0000000
           31          32          33          34          35          36
    1   2.0000000   2.0000000   2.0000000   2.0000000   2.0000000   2.0000000
           37          38          39          40          41          42
    1   2.0000000   2.0000000   2.0000000   2.0000000   2.0000000   2.0000000
           43          44          45          46          47          48
    1   2.0000000   2.0000000   2.0000000   2.0000000   2.0000000   2.0000000
           49          50          51          52          53          54
    1   2.0000000   2.0000000   2.0000000   2.0000000   2.0000000   2.0000000
           55          56          57          58          59          60
    1   2.0000000   2.0000000   2.0000000   2.0000000   2.0000000   2.0000000
           61          62          63          64          65          66
    1   2.0000000   1.9985563   1.9973689   1.9963173   1.9872128   1.9849094
           67          68          69          70          71          72
    1   1.9833226   1.9483843   1.9359119   1.9108496   1.5441370   1.0010184
           73          74          75          76          77          78
    1   0.9621016   0.5045520   0.0912489   0.0588242   0.0515730   0.0142469
           79          80          81          82
    1   0.0133835   0.0112220   0.0028047   0.0020546
  
*** Unpaired Electrons
 Yamaguchi Nd:         4.43
 Head-Gordon Nu:       3.42
 Head-Gordon Nu_nl:    3.17
  
**************************************************
 RAS-CI total energy for state   4:   -840.255912720589
  Excitation energy (eV) =  3.100605661329
  State symmetry: B1    (C2v      )
  <S^2>      :  2.0000
  Dipole Moment:    0.0000 X     0.0000 Y     0.1013 Z
  Trans. Moment:    0.0000 X     0.0000 Y    -0.0408 Z
  Strength   :  0.000126
  Natural transition orbitals ( 1 -> 4 ):
   e-/hole pair  1 alpha:  ampl =  0.545038 ( 29.7%)   [10 : 11]
   e-/hole pair  2 alpha:  ampl =  0.313647 (  9.8%)   [9 : 12]
   e-/hole pair  1 beta :  ampl =  0.573825 ( 32.9%)   [10 : 11]
   e-/hole pair  2 beta :  ampl =  0.274134 (  7.5%)   [9 : 12]
   Sum of square amplitudes: 0.83

 NATURAL OCCUPATION NUMBERS (higher than 1.0E-05)
            1           2           3           4           5           6
    1   2.0000000   2.0000000   2.0000000   2.0000000   2.0000000   2.0000000
            7           8           9          10          11          12
    1   2.0000000   2.0000000   2.0000000   2.0000000   2.0000000   2.0000000
           13          14          15          16          17          18
    1   2.0000000   2.0000000   2.0000000   2.0000000   2.0000000   2.0000000
           19          20          21          22          23          24
    1   2.0000000   2.0000000   2.0000000   2.0000000   2.0000000   2.0000000
           25          26          27          28          29          30
    1   2.0000000   2.0000000   2.0000000   2.0000000   2.0000000   2.0000000
           31          32          33          34          35          36
    1   2.0000000   2.0000000   2.0000000   2.0000000   2.0000000   2.0000000
           37          38          39          40          41          42
    1   2.0000000   2.0000000   2.0000000   2.0000000   2.0000000   2.0000000
           43          44          45          46          47          48
    1   2.0000000   2.0000000   2.0000000   2.0000000   2.0000000   2.0000000
           49          50          51          52          53          54
    1   2.0000000   2.0000000   2.0000000   2.0000000   2.0000000   2.0000000
           55          56          57          58          59          60
    1   2.0000000   2.0000000   2.0000000   2.0000000   2.0000000   2.0000000
           61          62          63          64          65          66
    1   2.0000000   1.9980259   1.9963491   1.9946542   1.9921759   1.9832334
           67          68          69          70          71          72
    1   1.9799687   1.9481257   1.9339455   1.8583873   1.5624434   1.0394331
           73          74          75          76          77          78
    1   0.9784091   0.4012794   0.1698353   0.0650805   0.0516536   0.0172817
           79          80          81          82
    1   0.0147809   0.0073217   0.0045919   0.0030236
Natural Orbitals stored in FCHK

  Amplitudes : 
  
 | HOLE  | ALPHA      | BETA       | PART  |    AMPLITUDE 
--------------------------------------------------
 |       | 1111110000 | 1110010000 |       |    -1.4870313104922E-01
 |       | 1111110000 | 1101100000 |       |     5.2560511415741E-01
 |       | 1111110000 | 1011100000 |       |     2.1003998338143E-01
 |       | 1111110000 | 0111010000 |       |     2.1004724665046E-01
 |       | 1111101000 | 1111000000 |       |    -1.5584182423158E-01
 |       | 1111100100 | 1111000000 |       |    -2.5661958968545E-01
 |       | 1111010010 | 1111000000 |       |     2.5664373154418E-01
 |       | 1111010001 | 1111000000 |       |    -4.7219074327359E-01
--------------------------------------------------
*** Contributions RASCI wfn    Active:  87.36
                                 Hole:   6.92
                                 Part:   5.72

      Mulliken population analysis 
 ---------------------------------------------------
   Atom    Charge (a.u.)   Spin (a.u.)  
 ---------------------------------------------------
   1  C   -0.091289        0.101017 
   2  C   -0.000176        0.158841 
   3  C   -0.091289        0.101017 
   4  C   -0.066277        0.037599 
   5  C   -0.013268        0.006902 
   6  C   -0.035773        0.051796 
   7  C    0.004285        0.088500 
   8  C   -0.089069        0.225157 
   9  C   -0.065294       -0.010695 
  10  C   -0.083174        0.156945 
  11  H    0.087322        0.000854 
  12  H    0.087322        0.000854 
  13  H    0.098302        0.000328 
  14  H    0.078845        0.000343 
  15  H    0.087387        0.001722 
  16  H    0.098360       -0.000091 
  17  H    0.087641        0.001171 
  18  C   -0.035773        0.051796 
  19  C   -0.073185        0.044195 
  20  C   -0.000176        0.158841 
  21  H    0.078845        0.000343 
  22  C   -0.079249        0.056432 
  23  C    0.002116        0.000944 
  24  C   -0.028174        0.243353 
  25  H    0.078739        0.001754 
  26  C   -0.083174        0.156945 
  27  C   -0.065294       -0.010695 
  28  C   -0.089069        0.225157 
  29  C    0.002117        0.000944 
  30  C   -0.079249        0.056432 
  31  C    0.004285        0.088500 
  32  H    0.087641        0.001171 
  33  H    0.098360       -0.000091 
  34  H    0.087387        0.001722 
 ---------------------------------------------------
   Sum:   -0.000000        2.000000 
 ---------------------------------------------------
 
  
 NATURAL OCCUPATION NUMBERS (higher than 1.0E-05)
            1           2           3           4           5           6
    1   2.0000000   2.0000000   2.0000000   2.0000000   2.0000000   2.0000000
            7           8           9          10          11          12
    1   2.0000000   2.0000000   2.0000000   2.0000000   2.0000000   2.0000000
           13          14          15          16          17          18
    1   2.0000000   2.0000000   2.0000000   2.0000000   2.0000000   2.0000000
           19          20          21          22          23          24
    1   2.0000000   2.0000000   2.0000000   2.0000000   2.0000000   2.0000000
           25          26          27          28          29          30
    1   2.0000000   2.0000000   2.0000000   2.0000000   2.0000000   2.0000000
           31          32          33          34          35          36
    1   2.0000000   2.0000000   2.0000000   2.0000000   2.0000000   2.0000000
           37          38          39          40          41          42
    1   2.0000000   2.0000000   2.0000000   2.0000000   2.0000000   2.0000000
           43          44          45          46          47          48
    1   2.0000000   2.0000000   2.0000000   2.0000000   2.0000000   2.0000000
           49          50          51          52          53          54
    1   2.0000000   2.0000000   2.0000000   2.0000000   2.0000000   2.0000000
           55          56          57          58          59          60
    1   2.0000000   2.0000000   2.0000000   2.0000000   2.0000000   2.0000000
           61          62          63          64          65          66
    1   2.0000000   1.9980259   1.9963491   1.9946542   1.9921759   1.9832334
           67          68          69          70          71          72
    1   1.9799687   1.9481257   1.9339455   1.8583873   1.5624434   1.0394331
           73          74          75          76          77          78
    1   0.9784091   0.4012794   0.1698353   0.0650805   0.0516536   0.0172817
           79          80          81          82
    1   0.0147809   0.0073217   0.0045919   0.0030236
  
*** Unpaired Electrons
 Yamaguchi Nd:         4.56
 Head-Gordon Nu:       3.43
 Head-Gordon Nu_nl:    3.10
  
**************************************************
 RAS-CI total energy for state   5:   -840.255912686502
  Excitation energy (eV) =  3.100606588893
  State symmetry: A1    (C2v      )
  <S^2>      :  2.0000
  Dipole Moment:   -0.0000 X     0.0000 Y    -0.1013 Z
  Trans. Moment:    0.0408 X    -0.0000 Y     0.0000 Z
  Strength   :  0.000127
  Natural transition orbitals ( 1 -> 5 ):
   e-/hole pair  1 alpha:  ampl =  0.545282 ( 29.7%)   [10 : 11]
   e-/hole pair  2 alpha:  ampl =  0.312317 (  9.8%)   [9 : 12]
   e-/hole pair  1 beta :  ampl =  0.573883 ( 32.9%)   [10 : 11]
   e-/hole pair  2 beta :  ampl =  0.273521 (  7.5%)   [9 : 12]
   Sum of square amplitudes: 0.83

 NATURAL OCCUPATION NUMBERS (higher than 1.0E-05)
            1           2           3           4           5           6
    1   2.0000000   2.0000000   2.0000000   2.0000000   2.0000000   2.0000000
            7           8           9          10          11          12
    1   2.0000000   2.0000000   2.0000000   2.0000000   2.0000000   2.0000000
           13          14          15          16          17          18
    1   2.0000000   2.0000000   2.0000000   2.0000000   2.0000000   2.0000000
           19          20          21          22          23          24
    1   2.0000000   2.0000000   2.0000000   2.0000000   2.0000000   2.0000000
           25          26          27          28          29          30
    1   2.0000000   2.0000000   2.0000000   2.0000000   2.0000000   2.0000000
           31          32          33          34          35          36
    1   2.0000000   2.0000000   2.0000000   2.0000000   2.0000000   2.0000000
           37          38          39          40          41          42
    1   2.0000000   2.0000000   2.0000000   2.0000000   2.0000000   2.0000000
           43          44          45          46          47          48
    1   2.0000000   2.0000000   2.0000000   2.0000000   2.0000000   2.0000000
           49          50          51          52          53          54
    1   2.0000000   2.0000000   2.0000000   2.0000000   2.0000000   2.0000000
           55          56          57          58          59          60
    1   2.0000000   2.0000000   2.0000000   2.0000000   2.0000000   2.0000000
           61          62          63          64          65          66
    1   2.0000000   1.9980584   1.9961648   1.9949363   1.9906503   1.9861539
           67          68          69          70          71          72
    1   1.9786942   1.9397853   1.9376385   1.8640915   1.5611603   1.0394448
           73          74          75          76          77          78
    1   0.9784546   0.4035242   0.1625722   0.0620284   0.0598173   0.0184913
           79          80          81          82
    1   0.0116006   0.0092119   0.0043245   0.0031968
Natural Orbitals stored in FCHK

  Amplitudes : 
  
 | HOLE  | ALPHA      | BETA       | PART  |    AMPLITUDE 
--------------------------------------------------
 |       | 1111110000 | 1110100000 |       |     1.4867866187620E-01
 |       | 1111110000 | 1101010000 |       |     5.2558863653881E-01
 |       | 1111110000 | 1011010000 |       |    -2.1007209049104E-01
 |       | 1111110000 | 0111100000 |       |     2.1006659975888E-01
 |       | 1111100010 | 1111000000 |       |     2.5663581652392E-01
 |       | 1111100001 | 1111000000 |       |     4.7222118496961E-01
 |       | 1111011000 | 1111000000 |       |    -1.5578444294602E-01
 |       | 1111010100 | 1111000000 |       |     2.5666336456895E-01
--------------------------------------------------
*** Contributions RASCI wfn    Active:  87.36
                                 Hole:   6.92
                                 Part:   5.72

      Mulliken population analysis 
 ---------------------------------------------------
   Atom    Charge (a.u.)   Spin (a.u.)  
 ---------------------------------------------------
   1  C   -0.084447        0.221128 
   2  C    0.004700        0.006703 
   3  C   -0.084447        0.221128 
   4  C   -0.064915       -0.026758 
   5  C   -0.013224        0.006927 
   6  C   -0.031083        0.179478 
   7  C    0.000358        0.077004 
   8  C   -0.086682        0.096902 
   9  C   -0.065991        0.021486 
  10  C   -0.092389        0.165165 
  11  H    0.087580        0.001645 
  12  H    0.087580        0.001645 
  13  H    0.098374       -0.000231 
  14  H    0.078766        0.001283 
  15  H    0.087509        0.000776 
  16  H    0.098324        0.000188 
  17  H    0.087261        0.001327 
  18  C   -0.031083        0.179478 
  19  C   -0.081698        0.060521 
  20  C    0.004700        0.006703 
  21  H    0.078766        0.001283 
  22  C   -0.075020        0.048235 
  23  C    0.001186        0.164549 
  24  C   -0.037575       -0.012070 
  25  H    0.078897       -0.000127 
  26  C   -0.092389        0.165165 
  27  C   -0.065991        0.021486 
  28  C   -0.086682        0.096902 
  29  C    0.001187        0.164549 
  30  C   -0.075020        0.048235 
  31  C    0.000358        0.077004 
  32  H    0.087261        0.001327 
  33  H    0.098324        0.000188 
  34  H    0.087509        0.000776 
 ---------------------------------------------------
   Sum:   -0.000000        2.000000 
 ---------------------------------------------------
 
  
 NATURAL OCCUPATION NUMBERS (higher than 1.0E-05)
            1           2           3           4           5           6
    1   2.0000000   2.0000000   2.0000000   2.0000000   2.0000000   2.0000000
            7           8           9          10          11          12
    1   2.0000000   2.0000000   2.0000000   2.0000000   2.0000000   2.0000000
           13          14          15          16          17          18
    1   2.0000000   2.0000000   2.0000000   2.0000000   2.0000000   2.0000000
           19          20          21          22          23          24
    1   2.0000000   2.0000000   2.0000000   2.0000000   2.0000000   2.0000000
           25          26          27          28          29          30
    1   2.0000000   2.0000000   2.0000000   2.0000000   2.0000000   2.0000000
           31          32          33          34          35          36
    1   2.0000000   2.0000000   2.0000000   2.0000000   2.0000000   2.0000000
           37          38          39          40          41          42
    1   2.0000000   2.0000000   2.0000000   2.0000000   2.0000000   2.0000000
           43          44          45          46          47          48
    1   2.0000000   2.0000000   2.0000000   2.0000000   2.0000000   2.0000000
           49          50          51          52          53          54
    1   2.0000000   2.0000000   2.0000000   2.0000000   2.0000000   2.0000000
           55          56          57          58          59          60
    1   2.0000000   2.0000000   2.0000000   2.0000000   2.0000000   2.0000000
           61          62          63          64          65          66
    1   2.0000000   1.9980584   1.9961648   1.9949363   1.9906503   1.9861539
           67          68          69          70          71          72
    1   1.9786942   1.9397853   1.9376385   1.8640915   1.5611603   1.0394448
           73          74          75          76          77          78
    1   0.9784546   0.4035242   0.1625722   0.0620284   0.0598173   0.0184913
           79          80          81          82
    1   0.0116006   0.0092119   0.0043245   0.0031968
  
*** Unpaired Electrons
 Yamaguchi Nd:         4.56
 Head-Gordon Nu:       3.43
 Head-Gordon Nu_nl:    3.10
  
[...]
135 B1  154 A1  155 A1  136 B1  156 A1  157 A1  137 B1  158 A1                 
  3.921   3.925   3.925   4.001   4.001   4.009   4.036   4.036
159 A1  160 A1  138 B1  161 A1  139 B1  140 B1  162 A1  141 B1                 
  4.090   4.222   4.222   4.358   4.449   4.449   4.454   4.509
163 A1  142 B1  164 A1  165 A1  166 A1  143 B1  167 A1  144 B1                 
  4.509   4.509   4.675   4.675   4.681   4.918   4.918   5.236
168 A1  145 B1  146 B1  169 A1  170 A1  147 B1  171 A1  148 B1                 
  5.272   5.272   5.301   5.311   5.311  24.486  24.802  24.802
172 A1  149 B1  150 B1  151 B1  173 A1  174 A1  175 A1  152 B1                 
 24.979  24.992  24.992  25.082  25.097  25.097  25.108  25.168
176 A1  177 A1  153 B1  178 A1  179 A1  154 B1  155 B1  156 B1                 
 25.168  25.193  25.193  25.199  25.204  25.279  25.283  25.283
180 A1  157 B1  181 A1  182 A1  158 B1  183 A1  159 B1  184 A1                 
 25.342  25.342  25.343
185 A1  160 B1  186 A1                                                         
 --------------------------------------------------------------
 
          Ground-State Mulliken Net Atomic Charges

     Atom                 Charge (a.u.)
  ----------------------------------------
      1 C                    -0.093226
      2 C                     0.003873
      3 C                    -0.093226
      4 C                    -0.059396
      5 C                    -0.004889
      6 C                    -0.032431
      7 C                     0.003929
      8 C                    -0.093250
      9 C                    -0.059421
     10 C                    -0.093155
     11 H                     0.087678
     12 H                     0.087678
     13 H                     0.098493
     14 H                     0.078852
     15 H                     0.087675
     16 H                     0.098497
     17 H                     0.087678
     18 C                    -0.032431
     19 C                    -0.080584
     20 C                     0.003873
     21 H                     0.078852
     22 C                    -0.080263
     23 C                     0.003259
     24 C                    -0.031876
     25 H                     0.078865
     26 C                    -0.093155
     27 C                    -0.059421
     28 C                    -0.093251
     29 C                     0.003259
     30 C                    -0.080263
     31 C                     0.003929
     32 H                     0.087678
     33 H                     0.098497
     34 H                     0.087675
  ----------------------------------------
  Sum of atomic charges =     0.000000

  Do orbital-by-orbital Lowdin population analysis
 
 
 Partial Mulliken analysis unavailable for frozen orbitals
 
 -----------------------------------------------------------------
                    Cartesian Multipole Moments
 -----------------------------------------------------------------
    Charge (ESU x 10^10)
                -0.0000
    Dipole Moment (Debye)
         X      -0.0000      Y      -0.0000      Z      -0.0000
       Tot       0.0000
    Quadrupole Moments (Debye-Ang)
        XX    -107.8048     XY       0.0000     YY    -137.8470
        XZ      -0.0000     YZ       0.0000     ZZ    -107.8049
    Octopole Moments (Debye-Ang^2)
       XXX      -0.0000    XXY       0.0000    XYY       0.0000
       YYY       0.0000    XXZ       1.3818    XYZ      -0.0000
       YYZ      -0.0000    XZZ       0.0000    YZZ      -0.0000
       ZZZ      -1.3818
    Hexadecapole Moments (Debye-Ang^3)
      XXXX   -3426.3839   XXXY       0.0000   XXYY    -757.9277
      XYYY      -0.0000   YYYY    -160.2343   XXXZ      -0.0000
      XXYZ       0.0000   XYYZ      -0.0000   YYYZ      -0.0000
      XXZZ   -1142.1298   XYZZ       0.0000   YYZZ    -757.9278
      XZZZ      -0.0000   YZZZ       0.0000   ZZZZ   -3426.3935
 -----------------------------------------------------------------
 Mayer SCF Bond Order, atomic valence on the diagonal:

            1           2           3           4           5           6
    1   3.8002199   0.0323750   0.0073306   1.4308151   0.0096134   0.0287150
    2   0.0323750   3.8130184   1.2550069  -0.0357092  -0.0027490   1.2992867
    3   0.0073306   1.2550069   3.8002199   1.4308151   0.0096134  -0.0161711
    4   1.4308151  -0.0357092   1.4308151   3.8355437  -0.0012931   0.0153550
    5   0.0096134  -0.0027490   0.0096134  -0.0012931   4.1473948   0.0240525
    6   0.0287150   1.2992867  -0.0161711   0.0153550   0.0240525   3.7129250
    7   0.0064116  -0.0225941   0.0091600   0.0006749  -0.0029721   1.2993182
    8   0.0077130   0.0064053   0.0083472   0.0007028   0.0095939   0.0287262
    9   0.0007028   0.0006752   0.0006809   0.0001468  -0.0012855   0.0153483
   10   0.0083460   0.0091559   0.0098945   0.0006819   0.0095391  -0.0161837
   11   0.9921069   0.0004961   0.0033380  -0.0136972  -0.0011543   0.0004653
   12   0.0033380  -0.0033598   0.9921069  -0.0136972  -0.0011543  -0.0046654
   13  -0.0105491   0.0035351  -0.0105491   0.9902833   0.0006697   0.0006701
   14   0.0003638  -0.0053713  -0.0040647   0.0000072   0.0015085   0.9897471
   15   0.0000884  -0.0001411   0.0001124  -0.0000115  -0.0011543   0.0004673
   16   0.0000007   0.0000982   0.0000266  -0.0000019   0.0006661   0.0006705
   17   0.0000188   0.0002157  -0.0000600   0.0000215  -0.0011505  -0.0046669
   18  -0.0161711   0.0060940   0.0287149   0.0153550   0.0240525   0.0121610
   19   0.0089803   1.2821863   0.0089803   0.0275145   1.3466636  -0.0045640
   20   1.2550070  -0.0451588   0.0323751  -0.0357092  -0.0027491   0.0060940
   21  -0.0040647  -0.0001875   0.0003638   0.0000072   0.0015085   0.0003679
   22   0.0014726   0.0168568   0.0010369   0.0097056   1.3456072  -0.0043051
   23   0.0041833  -0.0058246   0.0052768  -0.0013399  -0.0022570   0.0060744
   24  -0.0012706   0.0074775  -0.0012706   0.0044106   0.0241221   0.0121790
   25   0.0002176  -0.0003575   0.0002176  -0.0000738   0.0015165   0.0003650
   26   0.0098945   0.0052691   0.0083460   0.0006819   0.0095391  -0.0012622
   27   0.0006809  -0.0013392   0.0007028   0.0001468  -0.0012855   0.0044081
   28   0.0083472   0.0041868   0.0077130   0.0007028   0.0095939  -0.0012711
   29   0.0052768  -0.0087393   0.0041833  -0.0013399  -0.0022571   0.0074375
   30   0.0010369   0.0208518   0.0014726   0.0097056   1.3456072   0.0066057
   31   0.0091600  -0.0058321   0.0064116   0.0006749  -0.0029720   0.0074874
   32  -0.0000600   0.0000682   0.0000188   0.0000215  -0.0011505   0.0000163
   33   0.0000266   0.0001114   0.0000007  -0.0000019   0.0006661  -0.0000200
   34   0.0001124   0.0000298   0.0000884  -0.0000115  -0.0011544   0.0000161
            7           8           9          10          11          12
    1   0.0064116   0.0077130   0.0007028   0.0083460   0.9921069   0.0033380
    2  -0.0225941   0.0064053   0.0006752   0.0091559   0.0004961  -0.0033598
    3   0.0091600   0.0083472   0.0006809   0.0098945   0.0033380   0.9921069
    4   0.0006749   0.0007028   0.0001468   0.0006819  -0.0136972  -0.0136972
    5  -0.0029721   0.0095939  -0.0012855   0.0095391  -0.0011543  -0.0011543
    6   1.2993182   0.0287262   0.0153483  -0.0161837   0.0004653  -0.0046654
    7   3.8126543   0.0323595  -0.0356687   1.2550147  -0.0001399   0.0002161
    8   0.0323595   3.8001928   1.4307931   0.0073280   0.0000880   0.0000185
    9  -0.0356687   1.4307931   3.8355570   1.4308237  -0.0000113   0.0000218
   10   1.2550147   0.0073280   1.4308237   3.8000867   0.0001122  -0.0000603
   11  -0.0001399   0.0000880  -0.0000113   0.0001122   0.9826830   0.0007030
   12   0.0002161   0.0000185   0.0000218  -0.0000603   0.0007030   0.9826830
   13   0.0000997   0.0000007  -0.0000019   0.0000267  -0.0022438  -0.0022438
   14  -0.0053865   0.0003630   0.0000079  -0.0040633   0.0000348   0.0031503
   15   0.0004928   0.9921066  -0.0136977   0.0033376   0.0000023   0.0000089
   16   0.0035361  -0.0105478   0.9902787  -0.0105476  -0.0000003  -0.0000010
   17  -0.0033547   0.0033367  -0.0136966   0.9921066   0.0000088   0.0000322
   18   0.0074875  -0.0012711   0.0044081  -0.0012622  -0.0046654   0.0004653
   19   0.0169538   0.0014854   0.0096968   0.0010789   0.0061849   0.0061849
   20  -0.0058321   0.0041868  -0.0013392   0.0052691  -0.0033598   0.0004961
   21  -0.0003593   0.0002183  -0.0000735   0.0002174   0.0031503   0.0000348
   22   1.2819317   0.0090036   0.0275130   0.0088738   0.0006648   0.0002562
   23  -0.0451237   1.2550016  -0.0357106   0.0323689   0.0000291   0.0000683
   24   0.0060811  -0.0161862   0.0153558   0.0287258   0.0000165   0.0000165
   25  -0.0001846  -0.0040633   0.0000071   0.0003645  -0.0000066  -0.0000066
   26   0.0041630   0.0083489   0.0007023   0.0077142  -0.0000603   0.0001122
   27  -0.0013331   0.0006800   0.0001474   0.0007023   0.0000218  -0.0000113
   28   0.0052705   0.0098977   0.0006800   0.0083489   0.0000185   0.0000880
   29  -0.0057734   0.0091547   0.0006752   0.0064038   0.0000683   0.0000291
   30   0.0207393   0.0010530   0.0097018   0.0014990   0.0002562   0.0006648
   31  -0.0087433   0.0052705  -0.0013331   0.0041630   0.0002161  -0.0001399
   32   0.0000298   0.0001118  -0.0000113   0.0000880   0.0000322   0.0000088
   33   0.0001117   0.0000267  -0.0000020   0.0000008  -0.0000010  -0.0000003
   34   0.0000681  -0.0000604   0.0000218   0.0000186   0.0000089   0.0000023
           13          14          15          16          17          18
    1  -0.0105491   0.0003638   0.0000884   0.0000007   0.0000188  -0.0161711
    2   0.0035351  -0.0053713  -0.0001411   0.0000982   0.0002157   0.0060940
    3  -0.0105491  -0.0040647   0.0001124   0.0000266  -0.0000600   0.0287149
    4   0.9902833   0.0000072  -0.0000115  -0.0000019   0.0000215   0.0153550
    5   0.0006697   0.0015085  -0.0011543   0.0006661  -0.0011505   0.0240525
    6   0.0006701   0.9897471   0.0004673   0.0006705  -0.0046669   0.0121610
    7   0.0000997  -0.0053865   0.0004928   0.0035361  -0.0033547   0.0074875
    8   0.0000007   0.0003630   0.9921066  -0.0105478   0.0033367  -0.0012711
    9  -0.0000019   0.0000079  -0.0136977   0.9902787  -0.0136966   0.0044081
   10   0.0000267  -0.0040633   0.0033376  -0.0105476   0.9921066  -0.0012622
   11  -0.0022438   0.0000348   0.0000023  -0.0000003   0.0000088  -0.0046654
   12  -0.0022438   0.0031503   0.0000089  -0.0000010   0.0000322   0.0004653
   13   0.9737791  -0.0000130  -0.0000003   0.0000041  -0.0000010   0.0006701
   14  -0.0000130   0.9885804   0.0000350  -0.0000128   0.0031500   0.0003679
   15  -0.0000003   0.0000350   0.9826855  -0.0022437   0.0007029   0.0000161
   16   0.0000041  -0.0000128  -0.0022437   0.9737779  -0.0022437  -0.0000200
   17  -0.0000010   0.0031500   0.0007029  -0.0022437   0.9826772   0.0000163
   18   0.0006701   0.0003679   0.0000161  -0.0000200   0.0000163   3.7129250
   19   0.0000431   0.0041863   0.0006645  -0.0002398   0.0002568  -0.0045640
   20   0.0035351  -0.0001876   0.0000298   0.0001114   0.0000682   1.2992867
   21  -0.0000130   0.0000903  -0.0000066   0.0000083  -0.0000066   0.9897471
   22  -0.0002424   0.0041875   0.0061854   0.0000448   0.0061725   0.0066057
   23   0.0001127  -0.0001802  -0.0033547   0.0035351   0.0004993   0.0074375
   24  -0.0000208   0.0003636  -0.0046662   0.0006703   0.0004630   0.0121790
   25   0.0000084   0.0000900   0.0031506  -0.0000129   0.0000349   0.0003650
   26   0.0000267   0.0002174   0.0000186   0.0000008   0.0000880  -0.0161837
   27  -0.0000019  -0.0000735   0.0000218  -0.0000020  -0.0000113   0.0153483
   28   0.0000007   0.0002183  -0.0000604   0.0000267   0.0001118   0.0287262
   29   0.0001127  -0.0003585   0.0002154   0.0000988  -0.0001386   0.0060744
   30  -0.0002424   0.0005671   0.0002575  -0.0002406   0.0006623  -0.0043051
   31   0.0000997  -0.0003593   0.0000681   0.0001117   0.0000298   1.2993182
   32  -0.0000010  -0.0000066   0.0000088  -0.0000003   0.0000023  -0.0046669
   33   0.0000041   0.0000083  -0.0000010   0.0000041  -0.0000003   0.0006705
   34  -0.0000003  -0.0000066   0.0000322  -0.0000010   0.0000088   0.0004673
           19          20          21          22          23          24
    1   0.0089803   1.2550070  -0.0040647   0.0014726   0.0041833  -0.0012706
    2   1.2821863  -0.0451588  -0.0001875   0.0168568  -0.0058246   0.0074775
    3   0.0089803   0.0323751   0.0003638   0.0010369   0.0052768  -0.0012706
    4   0.0275145  -0.0357092   0.0000072   0.0097056  -0.0013399   0.0044106
    5   1.3466636  -0.0027491   0.0015085   1.3456072  -0.0022570   0.0241221
    6  -0.0045640   0.0060940   0.0003679  -0.0043051   0.0060744   0.0121790
    7   0.0169538  -0.0058321  -0.0003593   1.2819317  -0.0451237   0.0060811
    8   0.0014854   0.0041868   0.0002183   0.0090036   1.2550016  -0.0161862
    9   0.0096968  -0.0013392  -0.0000735   0.0275130  -0.0357106   0.0153558
   10   0.0010789   0.0052691   0.0002174   0.0088738   0.0323689   0.0287258
   11   0.0061849  -0.0033598   0.0031503   0.0006648   0.0000291   0.0000165
   12   0.0061849   0.0004961   0.0000348   0.0002562   0.0000683   0.0000165
   13   0.0000431   0.0035351  -0.0000130  -0.0002424   0.0001127  -0.0000208
   14   0.0041863  -0.0001876   0.0000903   0.0041875  -0.0001802   0.0003636
   15   0.0006645   0.0000298  -0.0000066   0.0061854  -0.0033547  -0.0046662
   16  -0.0002398   0.0001114   0.0000083   0.0000448   0.0035351   0.0006703
   17   0.0002568   0.0000682  -0.0000066   0.0061725   0.0004993   0.0004630
   18  -0.0045640   1.2992867   0.9897471   0.0066057   0.0074375   0.0121790
   19   4.0199579   1.2821863   0.0041863  -0.0283501   0.0207521   0.0066296
   20   1.2821863   3.8130184  -0.0053713   0.0208519  -0.0087393   0.0074775
   21   0.0041863  -0.0053713   0.9885804   0.0005671  -0.0003585   0.0003636
   22  -0.0283501   0.0208519   0.0005671   4.0177827   1.2823558  -0.0047564
   23   0.0207521  -0.0087393  -0.0003585   1.2823558   3.8138952   1.2994216
   24   0.0066296   0.0074775   0.0003636  -0.0047564   1.2994216   3.7126230
   25   0.0005624  -0.0003575   0.0000900   0.0041779  -0.0053715   0.9897319
   26   0.0010789   0.0091558  -0.0040633   0.0014990   0.0064039   0.0287258
   27   0.0096968   0.0006752   0.0000079   0.0097018   0.0006752   0.0153558
   28   0.0014854   0.0064053   0.0003630   0.0010530   0.0091547  -0.0161862
   29   0.0207522  -0.0058247  -0.0001802   0.0168626  -0.0224599   1.2994216
   30  -0.0283501   0.0168569   0.0041875  -0.0291690   0.0168625  -0.0047564
   31   0.0169537  -0.0225941  -0.0053865   0.0207392  -0.0057734   0.0060811
   32   0.0002568   0.0002157   0.0031500   0.0006623  -0.0001386   0.0004630
   33  -0.0002398   0.0000982  -0.0000128  -0.0002406   0.0000988   0.0006703
   34   0.0006645  -0.0001411   0.0000350   0.0002576   0.0002154  -0.0046662
           25          26          27          28          29          30
    1   0.0002176   0.0098945   0.0006809   0.0083472   0.0052768   0.0010369
    2  -0.0003575   0.0052691  -0.0013392   0.0041868  -0.0087393   0.0208518
    3   0.0002176   0.0083460   0.0007028   0.0077130   0.0041833   0.0014726
    4  -0.0000738   0.0006819   0.0001468   0.0007028  -0.0013399   0.0097056
    5   0.0015165   0.0095391  -0.0012855   0.0095939  -0.0022571   1.3456072
    6   0.0003650  -0.0012622   0.0044081  -0.0012711   0.0074375   0.0066057
    7  -0.0001846   0.0041630  -0.0013331   0.0052705  -0.0057734   0.0207393
    8  -0.0040633   0.0083489   0.0006800   0.0098977   0.0091547   0.0010530
    9   0.0000071   0.0007023   0.0001474   0.0006800   0.0006752   0.0097018
   10   0.0003645   0.0077142   0.0007023   0.0083489   0.0064038   0.0014990
   11  -0.0000066  -0.0000603   0.0000218   0.0000185   0.0000683   0.0002562
   12  -0.0000066   0.0001122  -0.0000113   0.0000880   0.0000291   0.0006648
   13   0.0000084   0.0000267  -0.0000019   0.0000007   0.0001127  -0.0002424
   14   0.0000900   0.0002174  -0.0000735   0.0002183  -0.0003585   0.0005671
   15   0.0031506   0.0000186   0.0000218  -0.0000604   0.0002154   0.0002575
   16  -0.0000129   0.0000008  -0.0000020   0.0000267   0.0000988  -0.0002406
   17   0.0000349   0.0000880  -0.0000113   0.0001118  -0.0001386   0.0006623
   18   0.0003650  -0.0161837   0.0153483   0.0287262   0.0060744  -0.0043051
   19   0.0005624   0.0010789   0.0096968   0.0014854   0.0207522  -0.0283501
   20  -0.0003575   0.0091558   0.0006752   0.0064053  -0.0058247   0.0168569
   21   0.0000900  -0.0040633   0.0000079   0.0003630  -0.0001802   0.0041875
   22   0.0041779   0.0014990   0.0097018   0.0010530   0.0168626  -0.0291690
   23  -0.0053715   0.0064039   0.0006752   0.0091547  -0.0224599   0.0168625
   24   0.9897319   0.0287258   0.0153558  -0.0161862   1.2994216  -0.0047564
   25   0.9885675   0.0003645   0.0000071  -0.0040633  -0.0053715   0.0041779
   26   0.0003645   3.8000867   1.4308237   0.0073280   0.0323689   0.0088739
   27   0.0000071   1.4308237   3.8355570   1.4307931  -0.0357106   0.0275130
   28  -0.0040633   0.0073280   1.4307931   3.8001928   1.2550016   0.0090036
   29  -0.0053715   0.0323689  -0.0357106   1.2550016   3.8138952   1.2823558
   30   0.0041779   0.0088739   0.0275130   0.0090036   1.2823558   4.0177827
   31  -0.0001846   1.2550146  -0.0356687   0.0323595  -0.0451237   1.2819317
   32   0.0000349   0.9921067  -0.0136966   0.0033367   0.0004993   0.0061725
   33  -0.0000129  -0.0105476   0.9902787  -0.0105478   0.0035351   0.0000448
   34   0.0031506   0.0033376  -0.0136977   0.9921065  -0.0033547   0.0061854
           31          32          33          34
    1   0.0091600  -0.0000600   0.0000266   0.0001124
    2  -0.0058321   0.0000682   0.0001114   0.0000298
    3   0.0064116   0.0000188   0.0000007   0.0000884
    4   0.0006749   0.0000215  -0.0000019  -0.0000115
    5  -0.0029720  -0.0011505   0.0006661  -0.0011544
    6   0.0074874   0.0000163  -0.0000200   0.0000161
    7  -0.0087433   0.0000298   0.0001117   0.0000681
    8   0.0052705   0.0001118   0.0000267  -0.0000604
    9  -0.0013331  -0.0000113  -0.0000020   0.0000218
   10   0.0041630   0.0000880   0.0000008   0.0000186
   11   0.0002161   0.0000322  -0.0000010   0.0000089
   12  -0.0001399   0.0000088  -0.0000003   0.0000023
   13   0.0000997  -0.0000010   0.0000041  -0.0000003
   14  -0.0003593  -0.0000066   0.0000083  -0.0000066
   15   0.0000681   0.0000088  -0.0000010   0.0000322
   16   0.0001117  -0.0000003   0.0000041  -0.0000010
   17   0.0000298   0.0000023  -0.0000003   0.0000088
   18   1.2993182  -0.0046669   0.0006705   0.0004673
   19   0.0169537   0.0002568  -0.0002398   0.0006645
   20  -0.0225941   0.0002157   0.0000982  -0.0001411
   21  -0.0053865   0.0031500  -0.0000128   0.0000350
   22   0.0207392   0.0006623  -0.0002406   0.0002576
   23  -0.0057734  -0.0001386   0.0000988   0.0002154
   24   0.0060811   0.0004630   0.0006703  -0.0046662
   25  -0.0001846   0.0000349  -0.0000129   0.0031506
   26   1.2550146   0.9921067  -0.0105476   0.0033376
   27  -0.0356687  -0.0136966   0.9902787  -0.0136977
   28   0.0323595   0.0033367  -0.0105478   0.9921065
   29  -0.0451237   0.0004993   0.0035351  -0.0033547
   30   1.2819317   0.0061725   0.0000448   0.0061854
   31   3.8126543  -0.0033547   0.0035361   0.0004928
   32  -0.0033547   0.9826773  -0.0022437   0.0007029
   33   0.0035361  -0.0022437   0.9737779  -0.0022437
   34   0.0004928   0.0007029  -0.0022437   0.9826855


 Total job time:  11312.13s(wall), 10430.93s(cpu) 
 Thu Aug 31 16:23:52 2023

        *************************************************************
        *                                                           *
        *  Thank you very much for using Q-Chem.  Have a nice day.  *
        *                                                           *
        *************************************************************


