                  Welcome to Q-Chem
     A Quantum Leap Into The Future Of Chemistry


 Q-Chem 6.0 (devel), Q-Chem, Inc., Pleasanton, CA (2022)

 E. Epifanovsky,  A. T. B. Gilbert,  Xintian Feng,  Joonho Lee,  Yuezhi Mao,  
 N. Mardirossian,  P. Pokhilko,  A. White,  M. Wormit,  M. P. Coons,  
 A. L. Dempwolff,  Zhengting Gan,  D. Hait,  P. R. Horn,  L. D. Jacobson,  
 I. Kaliman,  J. Kussmann,  A. W. Lange,  Ka Un Lao,  D. S. Levine,  Jie Liu,  
 S. C. McKenzie,  A. F. Morrison,  K. Nanda,  F. Plasser,  D. R. Rehn,  
 M. L. Vidal,  Zhi-Qiang You,  Ying Zhu,  B. Alam,  B. Albrecht,  
 A. Aldossary,  E. Alguire,  J. H. Andersen,  V. Athavale,  D. Barton,  
 K. Begam,  A. Behn,  N. Bellonzi,  Y. A. Bernard,  E. J. Berquist,  
 H. Burton,  A. Carreras,  K. Carter-Fenk,  Romit Chakraborty,  
 Chandrima Chakravarty,  Junhan Chen,  A. D. Chien,  K. D. Closser,  
 V. Cofer-Shabica,  L. Cunha,  S. Dasgupta,  Jia Deng,  M. de Wergifosse,  
 M. Diedenhofen,  Hainam Do,  S. Ehlert,  Po-Tung Fang,  S. Fatehi,  
 Qingguo Feng,  T. Friedhoff,  B. Ganoe,  J. Gayvert,  Qinghui Ge,  
 G. Gidofalvi,  M. Goldey,  J. Gomes,  C. Gonzalez-Espinoza,  S. Gulania,  
 A. Gunina,  J. A. Gyamfi,  M. W. D. Hanson-Heine,  P. H. P. Harbach,  
 A. W. Hauser,  M. F. Herbst,  M. Hernandez Vera,  M. Hodecker,  
 Z. C. Holden,  S. Houck,  Xunkun Huang,  Kerwin Hui,  B. C. Huynh,  
 K. Ikeda,  M. Ivanov,  Hyunjun Ji,  Zuxin Jin,  Hanjie Jiang,  B. Kaduk,  
 S. Kaehler,  R. Kang,  K. Khistyaev,  Jaehoon Kim,  Yongbin Kim,  
 P. Klunzinger,  Z. Koczor-Benda,  Joong Hoon Koh,  D. Kosenkov,  
 Saikiran Kotaru,  L. Koulias,  T. Kowalczyk,  C. M. Krauter,  K. Kue,  
 A. Kunitsa,  T. Kus,  A. Landau,  K. V. Lawler,  D. Lefrancois,  S. Lehtola,  
 Rain Li,  Shaozhi Li,  Yi-Pei Li,  Jiashu Liang,  M. Liebenthal,  
 Hung-Hsuan Lin,  You-Sheng Lin,  Fenglai Liu,  Kuan-Yu Liu,  
 M. Loipersberger,  A. Luenser,  C. Malbon,  A. Manjanath,  P. Manohar,  
 E. Mansoor,  S. F. Manzer,  Shan-Ping Mao,  A. V. Marenich,  T. Markovich,  
 S. Mason,  F. Matz,  S. A. Maurer,  P. F. McLaughlin,  M. F. S. J. Menger,  
 J.-M. Mewes,  S. A. Mewes,  P. Morgante,  Mohammad Mostafanejad,  
 J. W. Mullinax,  K. J. Oosterbaan,  G. Paran,  V. Parravicini,  
 Alexander C. Paul,  Suranjan K. Paul,  F. Pavosevic,  Zheng Pei,  S. Prager,  
 E. I. Proynov,  E. Ramos,  B. Rana,  A. E. Rask,  A. Rettig,  R. M. Richard,  
 F. Rob,  E. Rossomme,  T. Scheele,  M. Scheurer,  M. Schneider,  
 P. E. Schneider,  N. Sergueev,  S. M. Sharada,  Hengyuan Shen,  
 W. Skomorowski,  D. W. Small,  C. J. Stein,  Yingli Su,  Yu-Chuan Su,  
 E. J. Sundstrom,  Zhen Tao,  J. Thirman,  Hung-Yi Tsai,  T. Tsuchimochi,  
 N. M. Tubman,  C. Utku,  S. P. Veccham,  O. Vydrov,  J. Wenzel,  
 Jonathan Wong,  J. Witte,  A. Yamada,  Chou-Hsun Yang,  Kun Yao,  
 S. Yeganeh,  S. R. Yost,  A. Zech,  F. Zeller,  Igor Ying Zhang,  
 Xing Zhang,  Yu Zhang,  D. Zuev,  A. Aspuru-Guzik,  A. T. Bell,  
 N. A. Besley,  K. B. Bravaya,  B. R. Brooks,  D. Casanova,  Jeng-Da Chai,  
 Hsing-Ta Chen,  S. Coriani,  C. J. Cramer,  A. E. DePrince, III,  
 R. A. DiStasio Jr.,  A. Dreuw,  B. D. Dunietz,  T. R. Furlani,  
 W. A. Goddard III,  S. Grimme,  S. Hammes-Schiffer,  T. Head-Gordon,  
 W. J. Hehre,  Chao-Ping Hsu,  T.-C. Jagau,  Yousung Jung,  A. Klamt,  
 Jing Kong,  D. S. Lambrecht,  Xiangyuan Li,  WanZhen Liang,  N. J. Mayhall,  
 C. W. McCurdy,  J. B. Neaton,  T. Neudecker,  C. Ochsenfeld,  
 J. A. Parkhill,  R. Peverati,  V. A. Rassolov,  Haisheng Ren,  Yihan Shao,  
 L. V. Slipchenko,  R. P. Steele,  J. E. Subotnik,  A. J. W. Thom,  
 A. Tkatchenko,  D. G. Truhlar,  T. Van Voorhis,  Fan Wang,  
 T. A. Wesolowski,  K. B. Whaley,  H. L. Woodcock III,  P. M. Zimmerman,  
 S. Faraji,  P. M. W. Gill,  M. Head-Gordon,  J. M. Herbert,  A. I. Krylov

 Contributors to earlier versions of Q-Chem not listed above: 
 R. D. Adamson,  B. Austin,  R. Baer,  J. Baker,  G. J. O. Beran,  
 K. Brandhorst,  S. T. Brown,  E. F. C. Byrd,  Arup K. Chakraborty,  
 G. K. L. Chan,  Chun-Min Chang,  Yunqing Chen,  C.-L. Cheng,  
 Siu Hung Chien,  D. M. Chipman,  D. L. Crittenden,  H. Dachsel,  
 R. J. Doerksen,  A. D. Dutoi,  R. G. Edgar,  J. Fosso-Tande,  
 L. Fusti-Molnar,  D. Ghosh,  A. Ghysels,  A. Golubeva-Zadorozhnaya,  
 J. Gonthier,  M. S. Gordon,  S. R. Gwaltney,  G. Hawkins,  J. E. Herr,  
 A. Heyden,  S. Hirata,  E. G. Hohenstein,  G. Kedziora,  F. J. Keil,  
 C. Kelley,  Jihan Kim,  R. A. King,  R. Z. Khaliullin,  P. P. Korambath,  
 W. Kurlancheek,  A. Laurent,  A. M. Lee,  M. S. Lee,  S. V. Levchenko,  
 Ching Yeh Lin,  D. Liotard,  E. Livshits,  R. C. Lochan,  I. Lotan,  
 L. A. Martinez-Martinez,  P. E. Maslen,  N. Nair,  D. P. O'Neill,  
 D. Neuhauser,  E. Neuscamman,  C. M. Oana,  R. Olivares-Amaya,  R. Olson,  
 T. M. Perrine,  B. Peters,  P. A. Pieniazek,  A. Prociuk,  Y. M. Rhee,  
 J. Ritchie,  M. A. Rohrdanz,  E. Rosta,  N. J. Russ,  H. F. Schaefer III,  
 M. W. Schmidt,  N. E. Schultz,  S. Sharma,  N. Shenvi,  C. D. Sherrill,  
 A. C. Simmonett,  A. Sodt,  T. Stein,  D. Stuck,  K. S. Thanthiriwatte,  
 V. Vanovschi,  L. Vogt,  Tao Wang,  A. Warshel,  M. A. Watson,  
 C. F. Williams,  Q. Wu,  X. Xu,  Jun Yang,  W. Zhang,  Yan Zhao

   Please cite Q-Chem as follows:
  "Software for the frontiers of quantum chemistry:
   An overview of developments in the Q-Chem 5 package"
   J. Chem. Phys. 155, 084801 (2021)
   https://doi.org/10.1063/5.0055522 (open access)

 Q-Chem 6.0.1 for Intel X86 EM64T Linux

 Parts of Q-Chem use Armadillo 9.900.5 (Nocturnal Misbehaviour).
 http://arma.sourceforge.net/

 Q-Chem begins on Wed Dec 21 18:07:54 2022  

 Host: atlas-165
0

     Scratch files written to ./qchem65850//
 Processing $rem in /scratch/abel/SOFTWARE/qchem/config/preferences:
 Processing $rem in /dipc/acebg/.qchemrc:

 Checking the input file for inconsistencies... 	...done.

--------------------------------------------------------------
User input:
--------------------------------------------------------------
$comment
 RAS-SF CALCULATION
$end

$molecule
 READ vo_h2o5_2+_d0.molecule 
$end

$rem
!**CALCULATION TYPE***     
JOBTYPE            sp    
EXCHANGE           HF
CORRELATION        RASCI    !RASCI=Casanova; RASCI2=Zimmerman
BASIS              def2-TZVP

!***SCF REFERENCE***
SKIP_SCFMAN        FALSE
UNRESTRICTED       FALSE
SCF_GUESS          core
SCF_GUESS_MIX      FALSE
MAX_SCF_CYCLES     500
SCF_CONVERGENCE    8
SCF_ALGORITHM      DIIS !DIIS,DM,DIIS_DM,GDM,DIIS_GDM,GD

SYMMETRY           TRUE !use of symmetry for calculating integrals
SYM_IGNORE         FALSE !turn off using symmetry
SYM_TOL            5 !tolerance for determining point group

!THRESH             14
SCF_FINAL_PRINT     1 !0,1,2,3

!****RAS-SF****
RAS_ROOTS          10       !number of RAS-CI roots to be computed
SET_ITER           100     !number of iterations in RASCI
RAS_ELEC           9       !number of electrons in RAS2
!RAS_ELEC_ALPHA            !spin-α electrons in RAS2 
!RAS_ELEC_BETA             !spin-β electrons in RAS2

RAS_ACT            6       !number of orbitals in RAS2 
RAS_ACT_ORB    [36,37,38,39,40,41]  !user-selected RAS2 orbitals
RAS_OCC            35       !number of orbitals in RAS1
N_FROZEN_CORE      FC     !Number of frozen core orbitals
N_FROZEN_VIRTUAL   200      !Number of frozen virtual orbitals
RAS_NATORB         TRUE    !computation of the natural orbital occupancies
!RAS_NATORB_STATE  0      !Saves NO of i RAS computed state in .fchk ﬁle

RAS_DO_HOLE        TRUE   !presence of hole excitations in RAS-CI wave function
RAS_DO_PART        TRUE   !presence of particle excitations
RAS_AMPL_PRINT     10     !threshold (×10 2 ) for the CI amplitudes

RAS_GUESS_CS       0      !number of closed shell guess conﬁgurations
RAS_SPIN_MULT      0      !spin multiplicity: 0=any, 2n+1=defined 
RAS_SRDFT          FALSE  !short-range density functional RAS-CI
RAS_NFRAG          0     !fragments of excitation analysis in RASCI

RAS_PRINT          2      !level of information
RAS_NATORB         TRUE   !computation of the natural orbital occupancies
!RAS_NATORB_STATE  0      !Saves NO of i RAS computed state in .fchk ﬁle
RAS_FOD            TRUE

!****RAS-SOC****
CALC_SOC           TRUE   !calculate SOC for EOM-CC, RAS-CI, ADC, TDDFT/TDA and TDDFT
!RAS_SOC_2E        TRUE   !two-electron mean-ﬁeld contribution, default=true
RAS_SOC_SYM_DENS   TRUE   !averaging of α and β densities

!****MEMORY****
MEM_TOTAL          10000 !Default 2000 MB
MEM_STATIC         2000  !Default 64 MB

!**Molecular Properties and Analysis **                                                                                          
GUI                2
STATE_ANALYSIS     TRUE
MOLDEN_FORMAT      TRUE
PRINT_ORBITALS     20
$end                                           

--------------------------------------------------------------
 ----------------------------------------------------------------
             Standard Nuclear Orientation (Angstroms)
    I     Atom           X                Y                Z
 ----------------------------------------------------------------
    1      V       0.0000000000     0.0000000000     0.2869636272
    2      O       1.8746318165    -0.7961880992     0.0028610272
    3      O       0.8732355326     1.8164298115    -0.1051967728
    4      O      -0.8732355326    -1.8164298115    -0.1051967728
    5      O      -1.8746318165     0.7961880992     0.0028610272
    6      O       0.0000000000     0.0000000000     1.8690946272
    7      H      -1.8230087001    -1.8787393181     0.1205042272
    8      H      -0.4500218986    -2.6169756556     0.2621574272
    9      H       2.2719390311    -1.3617393431     0.6926305272
   10      H       2.0477725883    -1.2247043625    -0.8584699728
   11      H       1.8230087001     1.8787393181     0.1205042272
   12      H       0.4500218986     2.6169756556     0.2621574272
   13      H      -2.2719390311     1.3617393431     0.6926305272
   14      H      -2.0477725883     1.2247043625    -0.8584699728
   15      O       0.0000000000     0.0000000000    -1.9199747728
   16      H       0.3569568287     0.7008080581    -2.4946973728
   17      H      -0.3569568287    -0.7008080581    -2.4946973728
 ----------------------------------------------------------------
 Molecular Point Group                 C2    NOp =  2
 Largest Abelian Subgroup              C2    NOp =  2
 Nuclear Repulsion Energy =         623.27172641 hartrees
 There are       39 alpha and       39 beta electrons
 Requested basis set is def2-TZVP
 There are 121 shells and 291 basis functions

 Total QAlloc Memory Limit  10000 MB
 Mega-Array Size      1956 MB
 MEM_STATIC part      2000 MB

 A cutoff of  1.0D-12 yielded   6586 shell pairs
 There are     39132 function pairs (     49803 Cartesian)
 Smallest overlap matrix eigenvalue = 1.12E-03

 Scale SEOQF with 1.000000e-01/1.000000e-01/1.000000e-01

 Standard Electronic Orientation quadrupole field applied
 Nucleus-field energy     =     0.0000000019 hartrees
 Guess MOs from core Hamiltonian diagonalization

 -----------------------------------------------------------------------
  General SCF calculation program by
  Eric Jon Sundstrom, Paul Horn, Yuezhi Mao, Dmitri Zuev, Alec White,
  David Stuck, Shaama M.S., Shane Yost, Joonho Lee, David Small,
  Daniel Levine, Susi Lehtola, Hugh Burton, Evgeny Epifanovsky,
  Bang C. Huynh
 -----------------------------------------------------------------------
 Hartree-Fock
 A restricted SCF calculation will be
 performed using DIIS
 SCF converges when DIIS error is below 1.0e-08
 ---------------------------------------
  Cycle       Energy         DIIS error
 ---------------------------------------
    1    -992.1190014484      9.41e-02  
    2    -905.1194342779      9.06e-02  
    3   -1363.6671872117      3.57e-02  
    4   -1236.2447358752      1.17e-01  
    5   -1307.2380286777      8.38e-02  
    6   -1344.2185180131      5.75e-02  
    7   -1373.0805903518      3.78e-02  
    8   -1385.3030542243      2.63e-02  
    9   -1392.0483886800      1.94e-02  
   10   -1396.0440356239      9.32e-03  
   11   -1396.0905772416      1.01e-02  
   12   -1396.7251302993      4.32e-03  
   13   -1396.8628453414      1.01e-03  
   14   -1396.8734444956      3.83e-04  
   15   -1396.8750350016      1.39e-04  
   16   -1396.8754778708      9.23e-05  
   17   -1396.8759421593      6.51e-05  
   18   -1396.8763909092      5.87e-05  
   19   -1396.8768275218      3.31e-05  
   20   -1396.8769146066      1.73e-05  
   21   -1396.8769343680      1.29e-05  
   22   -1396.8769504907      1.24e-05  
   23   -1396.8770009198      1.13e-05  
   24   -1396.8771059193      1.43e-05  
   25   -1396.8771330160      8.05e-06  
   26   -1396.8771390820      2.49e-06  
   27   -1396.8771390233      3.11e-06  
   28   -1396.8771391747      6.70e-07  
   29   -1396.8771391788      1.42e-07  
   30   -1396.8771391794      5.60e-08  
   31   -1396.8771391795      4.32e-08  
   32   -1396.8771391798      4.04e-08  
   33   -1396.8771391808      5.99e-08  
   34   -1396.8771391816      3.57e-08  
   35   -1396.8771391817      6.19e-09  Convergence criterion met
 ---------------------------------------
 DFT Correlation    Energy =   0.00000000000000
 DFT Exchange       Energy =   0.00000000000000
 HF Exchange        Energy = -95.97426917204655
 Kinetic            Energy =   0.00000000000000
 Nuclear Attraction Energy =   0.00000000000000
 One-Electron       Energy = -3114.26483889293422
 Total Coulomb      Energy = 1190.09024247631260
 Final Alpha MO Eigenvalues
            1           2           3           4           5           6
    1-202.4073650 -24.8313524 -21.2502495 -21.1775255 -21.1775242 -21.1721840
            7           8           9          10          11          12
    1 -21.1721825 -21.1183711 -20.9786130 -20.9759275 -20.9701399  -4.0399847
           13          14          15          16          17          18
    1  -2.8760558  -2.8592565  -2.8577033  -1.9594107  -1.9495538  -1.9474019
           19          20          21          22          23          24
    1  -1.9465822  -1.9009067  -1.8554574  -1.3182062  -1.3141744  -1.3113840
           25          26          27          28          29          30
    1  -1.3082746  -1.2744617  -1.2601160  -1.2372464  -1.2163506  -1.2151711
           31          32          33          34          35          36
    1  -1.2055813  -1.1543510  -1.1386995  -1.1255902  -1.1233030  -1.1187673
           37          38          39          40          41          42
    1  -1.1138575  -1.0914918  -1.0656765  -0.5730591  -0.5697706  -0.5491553
           43          44          45          46          47          48
    1  -0.5245065  -0.4658957  -0.3791628  -0.3333066  -0.3159853  -0.2975399
           49          50          51          52          53          54
    1  -0.2771291  -0.2612513  -0.2600692  -0.2408526  -0.2332554  -0.2319936
           55          56          57          58          59          60
    1  -0.2164828  -0.1912946  -0.1552990  -0.1478477  -0.1278003  -0.1174711
           61          62          63          64          65          66
    1  -0.1079620  -0.0905193  -0.0580028  -0.0527072   0.0192669   0.0341318
           67          68          69          70          71          72
    1   0.0448684   0.0473346   0.0629984   0.0715429   0.0786573   0.1012314
           73          74          75          76          77          78
    1   0.1269845   0.1277682   0.1356114   0.1774570   0.1923295   0.1972323
           79          80          81          82          83          84
    1   0.2102104   0.2184494   0.2238042   0.2369009   0.2442643   0.2506915
           85          86          87          88          89          90
    1   0.2588866   0.2925054   0.2996325   0.3039213   0.3314727   0.3364605
           91          92          93          94          95          96
    1   0.3503706   0.3625369   0.3654386   0.3825970   0.4125187   0.4645649
           97          98          99         100         101         102
    1   0.4736789   0.5167882   0.5310677   0.5628406   0.5975464   0.6047109
          103         104         105         106         107         108
    1   0.6496819   0.7187396   0.7526522   0.8744199   0.9110831   0.9394686
          109         110         111         112         113         114
    1   0.9519969   0.9731196   1.0287468   1.0413594   1.0823960   1.0922320
          115         116         117         118         119         120
    1   1.1343204   1.1665553   1.1960371   1.2171054   1.2285283   1.2867741
          121         122         123         124         125         126
    1   1.2971366   1.2977483   1.3301970   1.3338566   1.3362271   1.3556229
          127         128         129         130         131         132
    1   1.3699495   1.3892909   1.4174561   1.4295223   1.4490498   1.4569161
          133         134         135         136         137         138
    1   1.4607785   1.5051503   1.5078930   1.5265063   1.5420609   1.5651415
          139         140         141         142         143         144
    1   1.5734305   1.5895226   1.6698809   1.6736131   1.6798466   1.6977600
          145         146         147         148         149         150
    1   1.7751475   1.8000719   1.8166566   1.8461553   1.8570969   1.8582331
          151         152         153         154         155         156
    1   1.8718582   1.8733676   1.8883957   1.9043561   1.9276841   1.9566032
          157         158         159         160         161         162
    1   1.9852038   1.9935359   2.0047990   2.0301688   2.0494400   2.0898576
          163         164         165         166         167         168
    1   2.1082224   2.1302472   2.1488312   2.1587677   2.1856126   2.2044414
          169         170         171         172         173         174
    1   2.2167299   2.2413058   2.2536711   2.2716427   2.3084958   2.3386410
          175         176         177         178         179         180
    1   2.3411183   2.3887688   2.3920982   2.4103615   2.4134515   2.4243695
          181         182         183         184         185         186
    1   2.4392773   2.4598166   2.4816461   2.4937021   2.5130503   2.5315906
          187         188         189         190         191         192
    1   2.5655079   2.6070377   2.6129873   2.6283443   2.6296068   2.6586458
          193         194         195         196         197         198
    1   2.7168767   2.7341578   2.7473824   2.7914972   2.8851417   2.9551966
          199         200         201         202         203         204
    1   2.9728997   3.0382046   3.0455241   3.0705149   3.4704318   3.4714073
          205         206         207         208         209         210
    1   3.5161451   3.5204790   3.5543239   3.7370259   3.7502276   3.7503882
          211         212         213         214         215         216
    1   3.7545463   3.8258501   3.8621905   4.9395966   4.9422541   4.9545388
          217         218         219         220         221         222
    1   4.9699953   4.9875627   4.9876572   4.9922305   4.9988158   5.0223814
          223         224         225         226         227         228
    1   5.0474259   5.0590345   5.0803223   5.0913470   5.1391892   5.2269309
          229         230         231         232         233         234
    1   5.2351135   5.2408372   5.2446134   5.2577241   5.2583909   5.2626864
          235         236         237         238         239         240
    1   5.2632234   5.2687733   5.2735264   5.2804650   5.3069034   5.3180708
          241         242         243         244         245         246
    1   5.3199854   5.3271178   5.3309061   5.3862809   5.8303440   5.8454176
          247         248         249         250         251         252
    1   5.8487633   5.8554163   5.8721253   5.9255434   6.1027437   6.1141139
          253         254         255         256         257         258
    1   6.1196698   6.1556699   6.1580626   6.1866086   6.2394767   6.2891541
          259         260         261         262         263         264
    1   6.3157250   6.3190599   6.3284692   6.3373447   6.3534801   6.3665980
          265         266         267         268         269         270
    1   6.4318390   6.4429445   6.4957287   6.5025161   6.5149723   6.5630543
          271         272         273         274         275         276
    1   6.5912743   6.5968887   6.6419534   6.6590728   6.8091443   6.8308499
          277         278         279         280         281         282
    1   6.8328470   6.8451153   6.8769784   6.8931156   6.9264443   6.9509492
          283         284         285         286         287         288
    1   6.9799161   7.0547487   7.0617675  44.3438867  44.4695082  44.4735905
          289         290         291
    1  44.4899374  44.5118487  44.5967540
 SCF time:   CPU 478.36s  wall 480.00s 
 SCF   energy in the final basis set =    -1396.8771391817
 Total energy in the final basis set =    -1396.8771391817
Setting RAS_srDFT_COR/EXC
  
     ##========================================##
     ||                                        ||
     ||              R A S M A N 2             ||
     ||________________________________________||
     ||                                        ||
     ||  Author:                               ||
     ||                                        ||
     ||        David Casanova (2010)           ||
     ||                                        ||
     ##========================================##
  
  ***************************************************
  *  RAS-CI Dimensions:                             *
  *                                                 *
  *  Active Elec.:   9 ( 5, 4)   Active Orb.:   6   *
  *  Doubly Occ. :  35           Doubly Vir.: 250   *
  *  Frozen Occ. :  15           Frozen Vir.: 200   *
  *                                                 *
  *  Total CI configurations:     18360             * 
  *    Active configurations:        90             * 
  *      Hole configurations:      1020             * 
  *  Particle configurations:     17250             * 
  *                                                 *
  *   Requested states:       10                    *
  *  Spin multiplicity: Any multiplicity            *
  *                                                 *
  ***************************************************
-----------------------------------------
    Memory requirements of RASCI

 Each CI-vector requires      0.14 MiB 
 Max. subspace vectors           1000      

 Reduced Lists                0.00 MiB 
 Excitation Lists             0.00 MiB 
 Excitation Lists Sign        0.00 MiB 
 CI-space (Max)             149.11 MiB 
 Integrals                   50.60 MiB 
 Memory required (Max)      149.12 MiB 
 Memory available          1907.35 MiB 

    Disk requirements of RASCI

 Fock matrix                  1.29 MiB 
 2-electron integrals         3.99 MiB 
 CI-space                   280.15 MiB 
 Disk required              285.43 MiB 
-----------------------------------------
  
RAS1 HF-like energy:          -1380.8964307098
 Computing integrals
 Computing J and K matrices
 Computing addressing
 Making amplitude guesses
 
Direct CI diagonalization
 ---------------------------------------------------
 Iter    Rts Conv    Rts Left    Ttl Dev     Max Dev
 ---------------------------------------------------
   1         0          10      0.016819    0.002951
   2         0          10      0.004998    0.001304
   3         0          10      0.003287    0.000442
   4         0          10      0.001934    0.000269
   5         0          10      0.001224    0.000193
   6         0          10      0.002548    0.001542
   7         0          10      0.003609    0.001367
   8         0          10      0.003316    0.001004
   9         0          10      0.002836    0.000786
  10         0          10      0.003889    0.001317
  11         0          10      0.004205    0.001219
  12         0          10      0.002846    0.000917
  13         0          10      0.002094    0.000600
  14         1           9      0.001581    0.000482
  15         2           8      0.001175    0.000337
  16         2           8      0.001247    0.000435
  17         4           6      0.001431    0.000720
  18         4           6      0.001214    0.000549
  19         4           6      0.000853    0.000392
  20         4           6      0.000715    0.000297
  21         4           6      0.000556    0.000198
  22         4           6      0.000434    0.000136
  23         5           5      0.000319    0.000089
  24         5           5      0.000253    0.000070
  25         5           5      0.000224    0.000085
  26         5           5      0.000226    0.000107
  27         5           5      0.000292    0.000164
  28         5           5      0.000412    0.000223
  29         5           5      0.000415    0.000244
  30         5           5      0.000302    0.000193
  31         5           5      0.000246    0.000148
  32         6           4      0.000195    0.000122
  33         6           4      0.000142    0.000090
  34         7           3      0.000105    0.000066
  35         7           3      0.000074    0.000046
  36         7           3      0.000050    0.000030
  37         7           3      0.000037    0.000022
  38         7           3      0.000028    0.000016
  39         7           3      0.000021    0.000011
  40         7           3      0.000015    0.000008
  41         7           3      0.000012    0.000006
  42         8           2      0.000008    0.000004
  43         9           1      0.000006    0.000002
  44         9           1      0.000005    0.000002
  45         9           1      0.000005    0.000001
  46        10           0      0.000004    0.000001    Roots Converged
 ---------------------------------------------------
   
**************************************************
 RAS-CI total energy for state   1:  -1397.576921970143
  Excitation energy (eV) =  0.000000000000
  Warning: not all configurations have same symmetry
  State symmetry: *A     (C2       )
  <S^2>      :  0.7500
  Dipole Moment:    0.0000 X    -0.0000 Y     2.2511 Z
 NATURAL OCCUPATION NUMBERS (higher than 1.0E-05)
            1           2           3           4           5           6
    1   2.0000000   2.0000000   2.0000000   2.0000000   2.0000000   2.0000000
            7           8           9          10          11          12
    1   2.0000000   2.0000000   2.0000000   2.0000000   2.0000000   2.0000000
           13          14          15          16          17          18
    1   2.0000000   2.0000000   2.0000000   2.0000000   2.0000000   2.0000000
           19          20          21          22          23          24
    1   2.0000000   2.0000000   2.0000000   2.0000000   2.0000000   2.0000000
           25          26          27          28          29          30
    1   2.0000000   2.0000000   1.9999998   1.9999996   1.9999990   1.9999978
           31          32          33          34          35          36
    1   1.9999837   1.9999795   1.9999770   1.9997680   1.9997339   1.9997193
           37          38          39          40          41          42
    1   1.9995776   1.9881246   1.9513969   0.9974830   0.0475503   0.0114336
           43          44          45          46          47          48
    1   0.0027896   0.0016805   0.0002458   0.0001810   0.0000996   0.0000960
           49          50          51          52          53          54
    1   0.0000640   0.0000262   0.0000180   0.0000169   0.0000158   0.0000146
Natural Orbitals stored in FCHK

  Amplitudes : 
  
 | HOLE  | ALPHA  | BETA   | PART  |    AMPLITUDE 
--------------------------------------------------
 |       | 111110 | 111100 |       |     9.3769256370404E-01
 |       | 111110 | 011101 |       |    -1.9780740545287E-01
 |       | 011111 | 111100 |       |     1.5842484634650E-01
--------------------------------------------------
*** Contributions RASCI wfn    Active:  95.46
                                 Hole:   1.05
                                 Part:   3.49

      Mulliken population analysis 
 ---------------------------------------------------
   Atom    Charge (a.u.)   Spin (a.u.)  
 ---------------------------------------------------
   1  V    0.864099        1.036149 
   2  O   -0.626928        0.002439 
   3  O   -0.583426        0.001191 
   4  O   -0.583426        0.001191 
   5  O   -0.626928        0.002439 
   6  O   -0.486312       -0.046555 
   7  H    0.478567        0.000984 
   8  H    0.470601        0.000428 
   9  H    0.480165       -0.000051 
  10  H    0.465154        0.000283 
  11  H    0.478567        0.000984 
  12  H    0.470601        0.000428 
  13  H    0.480165       -0.000051 
  14  H    0.465154        0.000283 
  15  O   -0.686418       -0.000149 
  16  H    0.470184        0.000003 
  17  H    0.470184        0.000003 
 ---------------------------------------------------
   Sum:    2.000000        1.000000 
 ---------------------------------------------------
 
  
 NATURAL OCCUPATION NUMBERS (higher than 1.0E-05)
            1           2           3           4           5           6
    1   2.0000000   2.0000000   2.0000000   2.0000000   2.0000000   2.0000000
            7           8           9          10          11          12
    1   2.0000000   2.0000000   2.0000000   2.0000000   2.0000000   2.0000000
           13          14          15          16          17          18
    1   2.0000000   2.0000000   2.0000000   2.0000000   2.0000000   2.0000000
           19          20          21          22          23          24
    1   2.0000000   2.0000000   2.0000000   2.0000000   2.0000000   2.0000000
           25          26          27          28          29          30
    1   2.0000000   2.0000000   1.9999998   1.9999996   1.9999990   1.9999978
           31          32          33          34          35          36
    1   1.9999837   1.9999795   1.9999770   1.9997680   1.9997339   1.9997193
           37          38          39          40          41          42
    1   1.9995776   1.9881246   1.9513969   0.9974830   0.0475503   0.0114336
           43          44          45          46          47          48
    1   0.0027896   0.0016805   0.0002458   0.0001810   0.0000996   0.0000960
           49          50          51          52          53          54
    1   0.0000640   0.0000262   0.0000180   0.0000169   0.0000158   0.0000146
  
*** Unpaired Electrons
 Yamaguchi Nd:         1.25
 Head-Gordon Nu:       1.12
 Head-Gordon Nu_nl:    1.02
  
**************************************************
 RAS-CI total energy for state   2:  -1397.502464012210
  Excitation energy (eV) =  2.026104120308
  Warning: not all configurations have same symmetry
  State symmetry: *A     (C2       )
  <S^2>      :  0.7500
  Dipole Moment:   -0.0000 X     0.0000 Y     2.5969 Z
  Trans. Moment:    0.0260 X     0.0650 Y    -0.0000 Z
  Strength   :  0.000243
  Natural transition orbitals ( 1 -> 2 ):
   e-/hole pair  1 alpha:  ampl =  0.979172 ( 95.9%)   [6 : 7]
   e-/hole pair  2 alpha:  ampl =  0.033633 (  0.1%)   [5 : 8]
   e-/hole pair  1 beta :  ampl =  0.053658 (  0.3%)   [6 : 7]
   e-/hole pair  2 beta :  ampl =  0.042231 (  0.2%)   [5 : 8]
   Sum of square amplitudes: 0.96

 NATURAL OCCUPATION NUMBERS (higher than 1.0E-05)
            1           2           3           4           5           6
    1   2.0000000   2.0000000   2.0000000   2.0000000   2.0000000   2.0000000
            7           8           9          10          11          12
    1   2.0000000   2.0000000   2.0000000   2.0000000   2.0000000   2.0000000
           13          14          15          16          17          18
    1   2.0000000   2.0000000   2.0000000   2.0000000   2.0000000   2.0000000
           19          20          21          22          23          24
    1   2.0000000   2.0000000   2.0000000   2.0000000   2.0000000   2.0000000
           25          26          27          28          29          30
    1   2.0000000   1.9999999   1.9999998   1.9999996   1.9999985   1.9999976
           31          32          33          34          35          36
    1   1.9999891   1.9999839   1.9999724   1.9998773   1.9998445   1.9996031
           37          38          39          40          41          42
    1   1.9995940   1.9916180   1.9807999   1.0054785   0.0082933   0.0077128
           43          44          45          46          47          48
    1   0.0049115   0.0012147   0.0003429   0.0002715   0.0001470   0.0000972
           49          50          51          52          53          54
    1   0.0000594   0.0000558   0.0000442   0.0000242   0.0000174   0.0000120
Natural Orbitals stored in FCHK

  Amplitudes : 
  
 | HOLE  | ALPHA  | BETA   | PART  |    AMPLITUDE 
--------------------------------------------------
 |       | 111101 | 111100 |       |     9.6299038086356E-01
 |       | 111101 | 011101 |       |    -1.5579111018988E-01
--------------------------------------------------
*** Contributions RASCI wfn    Active:  95.59
                                 Hole:   1.03
                                 Part:   3.38

      Mulliken population analysis 
 ---------------------------------------------------
   Atom    Charge (a.u.)   Spin (a.u.)  
 ---------------------------------------------------
   1  V    0.989412        0.783488 
   2  O   -0.623464       -0.002163 
   3  O   -0.589841       -0.000397 
   4  O   -0.589841       -0.000397 
   5  O   -0.623464       -0.002163 
   6  O   -0.600241        0.217038 
   7  H    0.479565       -0.000141 
   8  H    0.471045        0.000040 
   9  H    0.478841        0.003876 
  10  H    0.463495       -0.002564 
  11  H    0.479565       -0.000141 
  12  H    0.471045        0.000040 
  13  H    0.478841        0.003876 
  14  H    0.463495       -0.002564 
  15  O   -0.688445        0.002060 
  16  H    0.469997        0.000057 
  17  H    0.469997        0.000057 
 ---------------------------------------------------
   Sum:    2.000000        1.000000 
 ---------------------------------------------------
 
  
 NATURAL OCCUPATION NUMBERS (higher than 1.0E-05)
            1           2           3           4           5           6
    1   2.0000000   2.0000000   2.0000000   2.0000000   2.0000000   2.0000000
            7           8           9          10          11          12
    1   2.0000000   2.0000000   2.0000000   2.0000000   2.0000000   2.0000000
           13          14          15          16          17          18
    1   2.0000000   2.0000000   2.0000000   2.0000000   2.0000000   2.0000000
           19          20          21          22          23          24
    1   2.0000000   2.0000000   2.0000000   2.0000000   2.0000000   2.0000000
           25          26          27          28          29          30
    1   2.0000000   1.9999999   1.9999998   1.9999996   1.9999985   1.9999976
           31          32          33          34          35          36
    1   1.9999891   1.9999839   1.9999724   1.9998773   1.9998445   1.9996031
           37          38          39          40          41          42
    1   1.9995940   1.9916180   1.9807999   1.0054785   0.0082933   0.0077128
           43          44          45          46          47          48
    1   0.0049115   0.0012147   0.0003429   0.0002715   0.0001470   0.0000972
           49          50          51          52          53          54
    1   0.0000594   0.0000558   0.0000442   0.0000242   0.0000174   0.0000120
  
*** Unpaired Electrons
 Yamaguchi Nd:         1.10
 Head-Gordon Nu:       1.05
 Head-Gordon Nu_nl:    1.00
  
**************************************************
 RAS-CI total energy for state   3:  -1397.483361121244
  Excitation energy (eV) =  2.545920230928
  Warning: not all configurations have same symmetry
  State symmetry: *B     (C2       )
  <S^2>      :  0.7500
  Dipole Moment:   -0.0000 X    -0.0000 Y     2.2947 Z
  Trans. Moment:    0.0000 X    -0.0000 Y     0.0136 Z
  Strength   :  0.000012
  Natural transition orbitals ( 1 -> 3 ):
   e-/hole pair  1 alpha:  ampl =  0.973540 ( 94.8%)   [6 : 7]
   e-/hole pair  2 alpha:  ampl =  0.031310 (  0.1%)   [5 : 8]
   e-/hole pair  1 beta :  ampl =  0.009091 (  0.0%)   [6 : 7]
   e-/hole pair  2 beta :  ampl =  0.005073 (  0.0%)   [5 : 8]
   Sum of square amplitudes: 0.95

 NATURAL OCCUPATION NUMBERS (higher than 1.0E-05)
            1           2           3           4           5           6
    1   2.0000000   2.0000000   2.0000000   2.0000000   2.0000000   2.0000000
            7           8           9          10          11          12
    1   2.0000000   2.0000000   2.0000000   2.0000000   2.0000000   2.0000000
           13          14          15          16          17          18
    1   2.0000000   2.0000000   2.0000000   2.0000000   2.0000000   2.0000000
           19          20          21          22          23          24
    1   2.0000000   2.0000000   2.0000000   2.0000000   2.0000000   2.0000000
           25          26          27          28          29          30
    1   2.0000000   2.0000000   2.0000000   2.0000000   2.0000000   1.9999997
           31          32          33          34          35          36
    1   1.9999970   1.9999965   1.9999829   1.9999722   1.9999660   1.9997859
           37          38          39          40          41          42
    1   1.9997398   1.9980855   1.9785171   0.9950109   0.0227494   0.0034173
           43          44          45          46          47
    1   0.0014886   0.0011235   0.0000932   0.0000303   0.0000198
Natural Orbitals stored in FCHK

  Amplitudes : 
  
 | HOLE  | ALPHA  | BETA   | PART  |    AMPLITUDE 
--------------------------------------------------
 |       | 111100 | 111100 |  43   |     9.4467990376211E-01
 |       | 011101 | 111100 |  43   |    -1.9348878521837E-01
 |       | 111100 | 011101 |  43   |    -2.2281428317041E-01
--------------------------------------------------
*** Contributions RASCI wfn    Active:   0.09
                                 Hole:   0.14
                                 Part:  99.78

      Mulliken population analysis 
 ---------------------------------------------------
   Atom    Charge (a.u.)   Spin (a.u.)  
 ---------------------------------------------------
   1  V    0.943407        0.844299 
   2  O   -0.616909        0.036175 
   3  O   -0.619772        0.040423 
   4  O   -0.619772        0.040423 
   5  O   -0.616909        0.036175 
   6  O   -0.528978       -0.023986 
   7  H    0.479670        0.003209 
   8  H    0.470348        0.002808 
   9  H    0.479845        0.003368 
  10  H    0.470680        0.003840 
  11  H    0.479670        0.003209 
  12  H    0.470348        0.002808 
  13  H    0.479845        0.003368 
  14  H    0.470680        0.003840 
  15  O   -0.683465        0.000045 
  16  H    0.470657       -0.000002 
  17  H    0.470657       -0.000002 
 ---------------------------------------------------
   Sum:    2.000000        1.000000 
 ---------------------------------------------------
 
  
 NATURAL OCCUPATION NUMBERS (higher than 1.0E-05)
            1           2           3           4           5           6
    1   2.0000000   2.0000000   2.0000000   2.0000000   2.0000000   2.0000000
            7           8           9          10          11          12
    1   2.0000000   2.0000000   2.0000000   2.0000000   2.0000000   2.0000000
           13          14          15          16          17          18
    1   2.0000000   2.0000000   2.0000000   2.0000000   2.0000000   2.0000000
           19          20          21          22          23          24
    1   2.0000000   2.0000000   2.0000000   2.0000000   2.0000000   2.0000000
           25          26          27          28          29          30
    1   2.0000000   2.0000000   2.0000000   2.0000000   2.0000000   1.9999997
           31          32          33          34          35          36
    1   1.9999970   1.9999965   1.9999829   1.9999722   1.9999660   1.9997859
           37          38          39          40          41          42
    1   1.9997398   1.9980855   1.9785171   0.9950109   0.0227494   0.0034173
           43          44          45          46          47
    1   0.0014886   0.0011235   0.0000932   0.0000303   0.0000198
  
*** Unpaired Electrons
 Yamaguchi Nd:         1.10
 Head-Gordon Nu:       1.05
 Head-Gordon Nu_nl:    1.00
  
**************************************************
 RAS-CI total energy for state   4:  -1397.482329884768
  Excitation energy (eV) =  2.573981603157
  Warning: not all configurations have same symmetry
  State symmetry: *B     (C2       )
  <S^2>      :  0.7500
  Dipole Moment:    0.0000 X     0.0000 Y     2.3988 Z
  Trans. Moment:   -0.0398 X     0.0186 Y     0.0000 Z
  Strength   :  0.000122
  Natural transition orbitals ( 1 -> 4 ):
   e-/hole pair  1 alpha:  ampl =  0.961426 ( 92.4%)   [6 : 7]
   e-/hole pair  2 alpha:  ampl =  0.043550 (  0.2%)   [5 : 8]
   e-/hole pair  1 beta :  ampl =  0.049078 (  0.2%)   [6 : 7]
   e-/hole pair  2 beta :  ampl =  0.018355 (  0.0%)   [5 : 8]
   Sum of square amplitudes: 0.93

 NATURAL OCCUPATION NUMBERS (higher than 1.0E-05)
            1           2           3           4           5           6
    1   2.0000000   2.0000000   2.0000000   2.0000000   2.0000000   2.0000000
            7           8           9          10          11          12
    1   2.0000000   2.0000000   2.0000000   2.0000000   2.0000000   2.0000000
           13          14          15          16          17          18
    1   2.0000000   2.0000000   2.0000000   2.0000000   2.0000000   2.0000000
           19          20          21          22          23          24
    1   2.0000000   2.0000000   2.0000000   2.0000000   2.0000000   2.0000000
           25          26          27          28          29          30
    1   2.0000000   2.0000000   1.9999999   1.9999999   1.9999997   1.9999959
           31          32          33          34          35          36
    1   1.9999943   1.9999929   1.9999765   1.9999727   1.9999537   1.9998755
           37          38          39          40          41          42
    1   1.9970031   1.9967534   1.9367750   0.9870398   0.0645800   0.0113728
           43          44          45          46          47
    1   0.0041726   0.0023534   0.0001094   0.0000243   0.0000181
Natural Orbitals stored in FCHK

  Amplitudes : 
  
 | HOLE  | ALPHA  | BETA   | PART  |    AMPLITUDE 
--------------------------------------------------
 |       | 111100 | 111100 |  42   |     9.6860311895398E-01
 |       | 111100 | 011101 |  42   |    -1.2044371903858E-01
 |       | 011101 | 011101 |  42   |    -1.3018387320879E-01
--------------------------------------------------
*** Contributions RASCI wfn    Active:   0.13
                                 Hole:   0.49
                                 Part:  99.37

      Mulliken population analysis 
 ---------------------------------------------------
   Atom    Charge (a.u.)   Spin (a.u.)  
 ---------------------------------------------------
   1  V    0.814803        0.785422 
   2  O   -0.583480        0.000502 
   3  O   -0.586062        0.006582 
   4  O   -0.586062        0.006582 
   5  O   -0.583480        0.000502 
   6  O   -0.546352        0.188141 
   7  H    0.481031        0.001834 
   8  H    0.470301        0.002821 
   9  H    0.482714        0.000108 
  10  H    0.473978        0.000096 
  11  H    0.481031        0.001834 
  12  H    0.470301        0.002821 
  13  H    0.482714        0.000108 
  14  H    0.473978        0.000096 
  15  O   -0.685156        0.001005 
  16  H    0.469870        0.000773 
  17  H    0.469870        0.000773 
 ---------------------------------------------------
   Sum:    2.000000        1.000000 
 ---------------------------------------------------
 
  
 NATURAL OCCUPATION NUMBERS (higher than 1.0E-05)
            1           2           3           4           5           6
    1   2.0000000   2.0000000   2.0000000   2.0000000   2.0000000   2.0000000
            7           8           9          10          11          12
    1   2.0000000   2.0000000   2.0000000   2.0000000   2.0000000   2.0000000
           13          14          15          16          17          18
    1   2.0000000   2.0000000   2.0000000   2.0000000   2.0000000   2.0000000
           19          20          21          22          23          24
    1   2.0000000   2.0000000   2.0000000   2.0000000   2.0000000   2.0000000
           25          26          27          28          29          30
    1   2.0000000   2.0000000   1.9999999   1.9999999   1.9999997   1.9999959
           31          32          33          34          35          36
    1   1.9999943   1.9999929   1.9999765   1.9999727   1.9999537   1.9998755
           37          38          39          40          41          42
    1   1.9970031   1.9967534   1.9367750   0.9870398   0.0645800   0.0113728
           43          44          45          46          47
    1   0.0041726   0.0023534   0.0001094   0.0000243   0.0000181
  
*** Unpaired Electrons
 Yamaguchi Nd:         1.30
 Head-Gordon Nu:       1.14
 Head-Gordon Nu_nl:    1.03
  
**************************************************
 RAS-CI total energy for state   5:  -1397.398549696685
  Excitation energy (eV) =  4.853756512195
  Warning: not all configurations have same symmetry
  State symmetry: *A     (C2       )
  <S^2>      :  0.7500
  Dipole Moment:    0.0000 X    -0.0000 Y     2.1918 Z
  Trans. Moment:    0.0000 X    -0.0000 Y     0.0212 Z
  Strength   :  0.000054
  Natural transition orbitals ( 1 -> 5 ):
   e-/hole pair  1 alpha:  ampl =  0.943225 ( 89.0%)   [6 : 7]
   e-/hole pair  2 alpha:  ampl =  0.111047 (  1.2%)   [5 : 8]
   e-/hole pair  1 beta :  ampl =  0.087655 (  0.8%)   [6 : 7]
   e-/hole pair  2 beta :  ampl =  0.055281 (  0.3%)   [5 : 8]
   Sum of square amplitudes: 0.92

 NATURAL OCCUPATION NUMBERS (higher than 1.0E-05)
            1           2           3           4           5           6
    1   2.0000000   2.0000000   2.0000000   2.0000000   2.0000000   2.0000000
            7           8           9          10          11          12
    1   2.0000000   2.0000000   2.0000000   2.0000000   2.0000000   2.0000000
           13          14          15          16          17          18
    1   2.0000000   2.0000000   2.0000000   2.0000000   2.0000000   2.0000000
           19          20          21          22          23          24
    1   2.0000000   2.0000000   2.0000000   2.0000000   2.0000000   2.0000000
           25          26          27          28          29          30
    1   2.0000000   2.0000000   1.9999998   1.9999998   1.9999971   1.9999934
           31          32          33          34          35          36
    1   1.9999615   1.9999598   1.9999543   1.9999467   1.9997887   1.9996688
           37          38          39          40          41          42
    1   1.9910537   1.9805266   1.9204117   0.9526203   0.0856056   0.0520644
           43          44          45          46          47          48
    1   0.0137780   0.0041300   0.0002259   0.0001781   0.0000311   0.0000261
           49          50          51
    1   0.0000239   0.0000124   0.0000111
Natural Orbitals stored in FCHK

  Amplitudes : 
  
 | HOLE  | ALPHA  | BETA   | PART  |    AMPLITUDE 
--------------------------------------------------
 |       | 111100 | 111100 |  44   |     9.4930793751177E-01
 |       | 111100 | 011101 |  44   |    -1.1192376483394E-01
 |       | 011101 | 011101 |  44   |    -1.2983018992170E-01
--------------------------------------------------
*** Contributions RASCI wfn    Active:   0.99
                                 Hole:   1.90
                                 Part:  97.11

      Mulliken population analysis 
 ---------------------------------------------------
   Atom    Charge (a.u.)   Spin (a.u.)  
 ---------------------------------------------------
   1  V    0.867566        0.716248 
   2  O   -0.587303        0.004030 
   3  O   -0.587656        0.008259 
   4  O   -0.587656        0.008259 
   5  O   -0.587303        0.004030 
   6  O   -0.547227        0.206003 
   7  H    0.479648        0.003140 
   8  H    0.469525        0.003557 
   9  H    0.479961        0.002731 
  10  H    0.465716        0.008351 
  11  H    0.479648        0.003140 
  12  H    0.469525        0.003557 
  13  H    0.479961        0.002731 
  14  H    0.465716        0.008351 
  15  O   -0.695747        0.011958 
  16  H    0.467812        0.002828 
  17  H    0.467812        0.002828 
 ---------------------------------------------------
   Sum:    2.000000        1.000000 
 ---------------------------------------------------
 
  
 NATURAL OCCUPATION NUMBERS (higher than 1.0E-05)
            1           2           3           4           5           6
    1   2.0000000   2.0000000   2.0000000   2.0000000   2.0000000   2.0000000
            7           8           9          10          11          12
    1   2.0000000   2.0000000   2.0000000   2.0000000   2.0000000   2.0000000
           13          14          15          16          17          18
    1   2.0000000   2.0000000   2.0000000   2.0000000   2.0000000   2.0000000
           19          20          21          22          23          24
    1   2.0000000   2.0000000   2.0000000   2.0000000   2.0000000   2.0000000
           25          26          27          28          29          30
    1   2.0000000   2.0000000   1.9999998   1.9999998   1.9999971   1.9999934
           31          32          33          34          35          36
    1   1.9999615   1.9999598   1.9999543   1.9999467   1.9997887   1.9996688
           37          38          39          40          41          42
    1   1.9910537   1.9805266   1.9204117   0.9526203   0.0856056   0.0520644
           43          44          45          46          47          48
    1   0.0137780   0.0041300   0.0002259   0.0001781   0.0000311   0.0000261
           49          50          51
    1   0.0000239   0.0000124   0.0000111
  
*** Unpaired Electrons
 Yamaguchi Nd:         1.51
 Head-Gordon Nu:       1.22
 Head-Gordon Nu_nl:    1.06
  
**************************************************
 RAS-CI total energy for state   6:  -1397.354789940304
  Excitation energy (eV) =  6.044520067483
  Warning: not all configurations have same symmetry
  State symmetry: *A     (C2       )
  <S^2>      :  0.7500
  Dipole Moment:    0.0000 X    -0.0000 Y     1.1187 Z
  Trans. Moment:   -0.0000 X     0.0000 Y    -0.0219 Z
  Strength   :  0.000071
  Natural transition orbitals ( 1 -> 6 ):
   e-/hole pair  1 alpha:  ampl =  0.755904 ( 57.1%)   [6 : 7]
   e-/hole pair  2 alpha:  ampl =  0.132648 (  1.8%)   [5 : 8]
   e-/hole pair  1 beta :  ampl =  0.374912 ( 14.1%)   [6 : 7]
   e-/hole pair  2 beta :  ampl =  0.058596 (  0.3%)   [5 : 8]
   Sum of square amplitudes: 0.74

 NATURAL OCCUPATION NUMBERS (higher than 1.0E-05)
            1           2           3           4           5           6
    1   2.0000000   2.0000000   2.0000000   2.0000000   2.0000000   2.0000000
            7           8           9          10          11          12
    1   2.0000000   2.0000000   2.0000000   2.0000000   2.0000000   2.0000000
           13          14          15          16          17          18
    1   2.0000000   2.0000000   2.0000000   2.0000000   2.0000000   2.0000000
           19          20          21          22          23          24
    1   2.0000000   2.0000000   2.0000000   2.0000000   2.0000000   2.0000000
           25          26          27          28          29          30
    1   1.9999999   1.9999997   1.9999989   1.9999963   1.9999819   1.9999816
           31          32          33          34          35          36
    1   1.9999714   1.9998315   1.9995280   1.9988886   1.9988219   1.9954756
           37          38          39          40          41          42
    1   1.9882160   1.9809632   1.0397282   0.9835562   0.9806335   0.0207414
           43          44          45          46          47          48
    1   0.0094689   0.0016243   0.0008966   0.0003930   0.0003534   0.0003198
           49          50          51          52          53          54
    1   0.0002595   0.0001344   0.0000734   0.0000700   0.0000381   0.0000150
           55
    1   0.0000106
Natural Orbitals stored in FCHK

  Amplitudes : 
  
 | HOLE  | ALPHA  | BETA   | PART  |    AMPLITUDE 
--------------------------------------------------
 |       | 111110 | 110101 |       |    -2.3238504127794E-01
 |       | 111101 | 110110 |       |     2.3933417671729E-01
 |       | 111101 | 010111 |       |    -1.0477589473630E-01
 |       | 110111 | 111100 |       |     4.7171921799505E-01
 |       | 110111 | 011101 |       |    -2.1023025002020E-01
 |       | 101111 | 111100 |       |    -1.8061811117832E-01
 |       | 011111 | 110101 |       |    -1.0545435528397E-01
 |  31   | 111111 | 111100 |       |    -1.2163602132126E-01
 |  32   | 111111 | 111100 |       |    -4.8491181709838E-01
 |  32   | 111111 | 011101 |       |     2.2844394201933E-01
 |  32   | 111110 | 111101 |       |     2.4115789190560E-01
 |  32   | 111101 | 111110 |       |    -2.4375392519295E-01
 |  32   | 111101 | 011111 |       |    -1.1337642110373E-01
 |  32   | 011111 | 111101 |       |     1.1506752091568E-01
 |       | 111100 | 111100 |  44   |     1.2645311882897E-01
--------------------------------------------------
*** Contributions RASCI wfn    Active:  47.40
                                 Hole:  48.62
                                 Part:   3.98

      Mulliken population analysis 
 ---------------------------------------------------
   Atom    Charge (a.u.)   Spin (a.u.)  
 ---------------------------------------------------
   1  V    0.490623        1.180790 
   2  O   -0.609477        0.008084 
   3  O   -0.570570       -0.000550 
   4  O   -0.570570       -0.000550 
   5  O   -0.609477        0.008084 
   6  O   -0.174021       -0.214035 
   7  H    0.479320        0.001495 
   8  H    0.470820        0.001100 
   9  H    0.473480        0.004494 
  10  H    0.471815        0.001047 
  11  H    0.479320        0.001495 
  12  H    0.470820        0.001100 
  13  H    0.473480        0.004494 
  14  H    0.471815        0.001047 
  15  O   -0.688150        0.001707 
  16  H    0.470385        0.000098 
  17  H    0.470385        0.000098 
 ---------------------------------------------------
   Sum:    2.000000        1.000000 
 ---------------------------------------------------
 
  
 NATURAL OCCUPATION NUMBERS (higher than 1.0E-05)
            1           2           3           4           5           6
    1   2.0000000   2.0000000   2.0000000   2.0000000   2.0000000   2.0000000
            7           8           9          10          11          12
    1   2.0000000   2.0000000   2.0000000   2.0000000   2.0000000   2.0000000
           13          14          15          16          17          18
    1   2.0000000   2.0000000   2.0000000   2.0000000   2.0000000   2.0000000
           19          20          21          22          23          24
    1   2.0000000   2.0000000   2.0000000   2.0000000   2.0000000   2.0000000
           25          26          27          28          29          30
    1   1.9999999   1.9999997   1.9999989   1.9999963   1.9999819   1.9999816
           31          32          33          34          35          36
    1   1.9999714   1.9998315   1.9995280   1.9988886   1.9988219   1.9954756
           37          38          39          40          41          42
    1   1.9882160   1.9809632   1.0397282   0.9835562   0.9806335   0.0207414
           43          44          45          46          47          48
    1   0.0094689   0.0016243   0.0008966   0.0003930   0.0003534   0.0003198
           49          50          51          52          53          54
    1   0.0002595   0.0001344   0.0000734   0.0000700   0.0000381   0.0000150
           55
    1   0.0000106
  
*** Unpaired Electrons
 Yamaguchi Nd:         3.14
 Head-Gordon Nu:       3.00
 Head-Gordon Nu_nl:    3.00
  
**************************************************
 RAS-CI total energy for state   7:  -1397.341570581305
  Excitation energy (eV) =  6.404237127698
  Warning: not all configurations have same symmetry
  State symmetry: *B     (C2       )
  <S^2>      :  0.7500
  Dipole Moment:   -0.0000 X    -0.0000 Y     1.0248 Z
  Trans. Moment:    0.0000 X     0.0000 Y     0.3316 Z
  Strength   :  0.017249
  Natural transition orbitals ( 1 -> 7 ):
   e-/hole pair  1 alpha:  ampl =  0.556666 ( 31.0%)   [6 : 7]
   e-/hole pair  2 alpha:  ampl =  0.048736 (  0.2%)   [5 : 8]
   e-/hole pair  1 beta :  ampl =  0.219204 (  4.8%)   [6 : 7]
   e-/hole pair  2 beta :  ampl =  0.070438 (  0.5%)   [5 : 8]
   Sum of square amplitudes: 0.38

 NATURAL OCCUPATION NUMBERS (higher than 1.0E-05)
            1           2           3           4           5           6
    1   2.0000000   2.0000000   2.0000000   2.0000000   2.0000000   2.0000000
            7           8           9          10          11          12
    1   2.0000000   2.0000000   2.0000000   2.0000000   2.0000000   2.0000000
           13          14          15          16          17          18
    1   2.0000000   2.0000000   2.0000000   2.0000000   2.0000000   2.0000000
           19          20          21          22          23          24
    1   2.0000000   2.0000000   2.0000000   2.0000000   2.0000000   2.0000000
           25          26          27          28          29          30
    1   1.9999999   1.9999999   1.9999996   1.9999993   1.9999991   1.9999933
           31          32          33          34          35          36
    1   1.9998190   1.9997594   1.9997203   1.9996528   1.9992614   1.9987652
           37          38          39          40          41          42
    1   1.9972023   1.9823606   1.0598267   0.9984899   0.9399461   0.0176289
           43          44          45          46          47          48
    1   0.0036405   0.0018733   0.0005957   0.0004857   0.0003045   0.0002329
           49          50          51          52          53          54
    1   0.0001186   0.0001100   0.0000918   0.0000278   0.0000178   0.0000159
           55          56          57
    1   0.0000157   0.0000116   0.0000116
Natural Orbitals stored in FCHK

  Amplitudes : 
  
 | HOLE  | ALPHA  | BETA   | PART  |    AMPLITUDE 
--------------------------------------------------
 |       | 111110 | 011101 |       |     1.8808838165175E-01
 |       | 111101 | 111010 |       |    -1.7403358700191E-01
 |       | 111101 | 101110 |       |     2.3486054936416E-01
 |       | 111101 | 011110 |       |     6.6620268932674E-01
 |       | 111011 | 111100 |       |    -1.2641200060596E-01
 |       | 101111 | 111100 |       |     1.5510655372961E-01
 |       | 011111 | 111100 |       |     4.7811430767605E-01
 |       | 011111 | 011101 |       |    -1.3866021752338E-01
 |       | 011110 | 111100 |  42   |    -1.1507044295807E-01
 |       | 110101 | 011110 |  42   |     1.0235398410803E-01
--------------------------------------------------
*** Contributions RASCI wfn    Active:  87.18
                                 Hole:   2.19
                                 Part:  10.63

      Mulliken population analysis 
 ---------------------------------------------------
   Atom    Charge (a.u.)   Spin (a.u.)  
 ---------------------------------------------------
   1  V    0.487413        0.569498 
   2  O   -0.627253        0.000695 
   3  O   -0.562664       -0.000189 
   4  O   -0.562664       -0.000189 
   5  O   -0.627253        0.000695 
   6  O   -0.137067        0.409129 
   7  H    0.478131       -0.000714 
   8  H    0.470160        0.000651 
   9  H    0.469767        0.008881 
  10  H    0.470375        0.000487 
  11  H    0.478131       -0.000714 
  12  H    0.470160        0.000651 
  13  H    0.469767        0.008881 
  14  H    0.470375        0.000487 
  15  O   -0.687815        0.001433 
  16  H    0.470219        0.000159 
  17  H    0.470219        0.000159 
 ---------------------------------------------------
   Sum:    2.000000        1.000000 
 ---------------------------------------------------
 
  
 NATURAL OCCUPATION NUMBERS (higher than 1.0E-05)
            1           2           3           4           5           6
    1   2.0000000   2.0000000   2.0000000   2.0000000   2.0000000   2.0000000
            7           8           9          10          11          12
    1   2.0000000   2.0000000   2.0000000   2.0000000   2.0000000   2.0000000
           13          14          15          16          17          18
    1   2.0000000   2.0000000   2.0000000   2.0000000   2.0000000   2.0000000
           19          20          21          22          23          24
    1   2.0000000   2.0000000   2.0000000   2.0000000   2.0000000   2.0000000
           25          26          27          28          29          30
    1   1.9999999   1.9999999   1.9999996   1.9999993   1.9999991   1.9999933
           31          32          33          34          35          36
    1   1.9998190   1.9997594   1.9997203   1.9996528   1.9992614   1.9987652
           37          38          39          40          41          42
    1   1.9972023   1.9823606   1.0598267   0.9984899   0.9399461   0.0176289
           43          44          45          46          47          48
    1   0.0036405   0.0018733   0.0005957   0.0004857   0.0003045   0.0002329
           49          50          51          52          53          54
    1   0.0001186   0.0001100   0.0000918   0.0000278   0.0000178   0.0000159
           55          56          57
    1   0.0000157   0.0000116   0.0000116
  
*** Unpaired Electrons
 Yamaguchi Nd:         3.09
 Head-Gordon Nu:       2.93
 Head-Gordon Nu_nl:    2.99
  
**************************************************
 RAS-CI total energy for state   8:  -1397.338414318794
  Excitation energy (eV) =  6.490123400370
  Warning: not all configurations have same symmetry
  State symmetry: *A     (C2       )
  <S^2>      :  0.7500
  Dipole Moment:    0.0000 X    -0.0000 Y     0.9744 Z
  Trans. Moment:    0.0202 X    -0.0129 Y    -0.0000 Z
  Strength   :  0.000091
  Natural transition orbitals ( 1 -> 8 ):
   e-/hole pair  1 alpha:  ampl =  0.651032 ( 42.4%)   [6 : 7]
   e-/hole pair  2 alpha:  ampl =  0.019052 (  0.0%)   [5 : 8]
   e-/hole pair  1 beta :  ampl =  0.458605 ( 21.0%)   [6 : 7]
   e-/hole pair  2 beta :  ampl =  0.301289 (  9.1%)   [5 : 8]
   Sum of square amplitudes: 0.73

 NATURAL OCCUPATION NUMBERS (higher than 1.0E-05)
            1           2           3           4           5           6
    1   2.0000000   2.0000000   2.0000000   2.0000000   2.0000000   2.0000000
            7           8           9          10          11          12
    1   2.0000000   2.0000000   2.0000000   2.0000000   2.0000000   2.0000000
           13          14          15          16          17          18
    1   2.0000000   2.0000000   2.0000000   2.0000000   2.0000000   2.0000000
           19          20          21          22          23          24
    1   2.0000000   2.0000000   2.0000000   2.0000000   2.0000000   2.0000000
           25          26          27          28          29          30
    1   2.0000000   1.9999996   1.9999990   1.9999987   1.9999862   1.9999751
           31          32          33          34          35          36
    1   1.9999384   1.9999183   1.9997910   1.9997502   1.9992413   1.9962379
           37          38          39          40          41          42
    1   1.9938910   1.7262760   1.2828011   1.2415177   0.7526101   0.0050755
           43          44          45          46          47          48
    1   0.0008706   0.0008677   0.0005879   0.0001747   0.0001351   0.0001144
           49          50          51          52          53
    1   0.0000906   0.0000451   0.0000435   0.0000247   0.0000103
Natural Orbitals stored in FCHK

  Amplitudes : 
  
 | HOLE  | ALPHA  | BETA   | PART  |    AMPLITUDE 
--------------------------------------------------
 |       | 111110 | 110110 |       |    -2.7463281164300E-01
 |       | 111110 | 101110 |       |     1.2143133178807E-01
 |       | 111110 | 010111 |       |     1.1650313933090E-01
 |       | 011111 | 110110 |       |    -1.2026703333711E-01
 |  30   | 111111 | 111100 |       |     4.0375206250662E-01
 |  33   | 111111 | 111100 |       |    -3.2870883775997E-01
 |  35   | 111111 | 111100 |       |     3.1785289710873E-01
 |  30   | 111111 | 011101 |       |    -1.8580863114073E-01
 |  33   | 111111 | 011101 |       |     1.5352850760104E-01
 |  35   | 111111 | 011101 |       |    -1.4988625810396E-01
 |  32   | 111110 | 111110 |       |     2.7464194373470E-01
 |  30   | 111110 | 111101 |       |    -1.8775137358751E-01
 |  33   | 111110 | 111101 |       |     1.5020627560819E-01
 |  35   | 111110 | 111101 |       |    -1.4636409645642E-01
 |  32   | 111110 | 011111 |       |     1.2540170467274E-01
 |  30   | 111101 | 111110 |       |     2.1600068891889E-01
 |  33   | 111101 | 111110 |       |    -1.7850256215162E-01
 |  35   | 111101 | 111110 |       |     1.7148880065214E-01
 |  32   | 011111 | 111110 |       |     1.2851590549454E-01
--------------------------------------------------
*** Contributions RASCI wfn    Active:  13.79
                                 Hole:  85.35
                                 Part:   0.86

      Mulliken population analysis 
 ---------------------------------------------------
   Atom    Charge (a.u.)   Spin (a.u.)  
 ---------------------------------------------------
   1  V    0.421582        0.909444 
   2  O   -0.601686        0.009641 
   3  O   -0.578562        0.002850 
   4  O   -0.578562        0.002850 
   5  O   -0.601686        0.009641 
   6  O   -0.123328        0.053671 
   7  H    0.479684        0.001065 
   8  H    0.471219        0.000709 
   9  H    0.477268        0.003329 
  10  H    0.473807        0.000774 
  11  H    0.479684        0.001065 
  12  H    0.471219        0.000709 
  13  H    0.477268        0.003329 
  14  H    0.473807        0.000774 
  15  O   -0.683287        0.000248 
  16  H    0.470787       -0.000049 
  17  H    0.470787       -0.000049 
 ---------------------------------------------------
   Sum:    2.000000        1.000000 
 ---------------------------------------------------
 
  
 NATURAL OCCUPATION NUMBERS (higher than 1.0E-05)
            1           2           3           4           5           6
    1   2.0000000   2.0000000   2.0000000   2.0000000   2.0000000   2.0000000
            7           8           9          10          11          12
    1   2.0000000   2.0000000   2.0000000   2.0000000   2.0000000   2.0000000
           13          14          15          16          17          18
    1   2.0000000   2.0000000   2.0000000   2.0000000   2.0000000   2.0000000
           19          20          21          22          23          24
    1   2.0000000   2.0000000   2.0000000   2.0000000   2.0000000   2.0000000
           25          26          27          28          29          30
    1   2.0000000   1.9999996   1.9999990   1.9999987   1.9999862   1.9999751
           31          32          33          34          35          36
    1   1.9999384   1.9999183   1.9997910   1.9997502   1.9992413   1.9962379
           37          38          39          40          41          42
    1   1.9938910   1.7262760   1.2828011   1.2415177   0.7526101   0.0050755
           43          44          45          46          47          48
    1   0.0008706   0.0008677   0.0005879   0.0001747   0.0001351   0.0001144
           49          50          51          52          53
    1   0.0000906   0.0000451   0.0000435   0.0000247   0.0000103
  
*** Unpaired Electrons
 Yamaguchi Nd:         3.31
 Head-Gordon Nu:       2.52
 Head-Gordon Nu_nl:    2.84
  
**************************************************
 RAS-CI total energy for state   9:  -1397.333393172024
  Excitation energy (eV) =  6.626755755603
  Warning: not all configurations have same symmetry
  State symmetry: *A     (C2       )
  <S^2>      :  0.7500
  Dipole Moment:    0.0000 X    -0.0000 Y     1.0036 Z
  Trans. Moment:   -0.0789 X     0.0232 Y    -0.0000 Z
  Strength   :  0.001098
  Natural transition orbitals ( 1 -> 9 ):
   e-/hole pair  1 alpha:  ampl =  0.395030 ( 15.6%)   [6 : 7]
   e-/hole pair  2 alpha:  ampl =  0.056981 (  0.3%)   [5 : 8]
   e-/hole pair  1 beta :  ampl =  0.726944 ( 52.8%)   [6 : 7]
   e-/hole pair  2 beta :  ampl =  0.207259 (  4.3%)   [5 : 8]
   Sum of square amplitudes: 0.73

 NATURAL OCCUPATION NUMBERS (higher than 1.0E-05)
            1           2           3           4           5           6
    1   2.0000000   2.0000000   2.0000000   2.0000000   2.0000000   2.0000000
            7           8           9          10          11          12
    1   2.0000000   2.0000000   2.0000000   2.0000000   2.0000000   2.0000000
           13          14          15          16          17          18
    1   2.0000000   2.0000000   2.0000000   2.0000000   2.0000000   2.0000000
           19          20          21          22          23          24
    1   2.0000000   2.0000000   2.0000000   2.0000000   2.0000000   2.0000000
           25          26          27          28          29          30
    1   1.9999999   1.9999996   1.9999993   1.9999980   1.9999731   1.9999480
           31          32          33          34          35          36
    1   1.9998779   1.9998271   1.9997249   1.9995417   1.9984414   1.9904853
           37          38          39          40          41          42
    1   1.9830464   1.7374767   1.5777599   1.2835376   0.4080427   0.0135458
           43          44          45          46          47          48
    1   0.0034975   0.0018319   0.0018266   0.0004327   0.0003353   0.0002982
           49          50          51          52          53          54
    1   0.0001699   0.0001416   0.0001038   0.0000571   0.0000171   0.0000118
           55          56
    1   0.0000111   0.0000102
Natural Orbitals stored in FCHK

  Amplitudes : 
  
 | HOLE  | ALPHA  | BETA   | PART  |    AMPLITUDE 
--------------------------------------------------
 |       | 111110 | 110110 |       |    -4.2636590446289E-01
 |       | 111110 | 101110 |       |     2.1789300984639E-01
 |       | 111110 | 011110 |       |     1.2608330025865E-01
 |       | 111110 | 010111 |       |     1.7951716446394E-01
 |       | 111101 | 110101 |       |     1.6357484423823E-01
 |       | 011111 | 110110 |       |    -1.8458666001023E-01
 |  30   | 111111 | 111100 |       |    -2.4277877871297E-01
 |  33   | 111111 | 111100 |       |     2.0106282765995E-01
 |  35   | 111111 | 111100 |       |    -1.9180922276396E-01
 |  30   | 111111 | 011101 |       |     1.1211272634068E-01
 |  31   | 111110 | 111110 |       |     1.0990971497831E-01
 |  32   | 111110 | 111110 |       |     4.1681728238091E-01
 |  30   | 111110 | 111101 |       |     1.2605131180989E-01
 |  33   | 111110 | 111101 |       |    -1.0821330047296E-01
 |  32   | 111110 | 011111 |       |     1.8967511436656E-01
 |  30   | 111101 | 111110 |       |    -1.1672746690330E-01
 |  32   | 111101 | 111101 |       |    -1.7233518815012E-01
 |  32   | 011111 | 111110 |       |     1.9294028285053E-01
--------------------------------------------------
*** Contributions RASCI wfn    Active:  38.40
                                 Hole:  58.90
                                 Part:   2.69

      Mulliken population analysis 
 ---------------------------------------------------
   Atom    Charge (a.u.)   Spin (a.u.)  
 ---------------------------------------------------
   1  V    0.442230        0.470997 
   2  O   -0.609492        0.004296 
   3  O   -0.572516        0.005045 
   4  O   -0.572516        0.005045 
   5  O   -0.609492        0.004296 
   6  O   -0.132395        0.505070 
   7  H    0.478325        0.000536 
   8  H    0.470354        0.000416 
   9  H    0.477574        0.001313 
  10  H    0.472778        0.000466 
  11  H    0.478325        0.000536 
  12  H    0.470354        0.000416 
  13  H    0.477574        0.001313 
  14  H    0.472778        0.000466 
  15  O   -0.685053       -0.000147 
  16  H    0.470587       -0.000031 
  17  H    0.470587       -0.000031 
 ---------------------------------------------------
   Sum:    2.000000        1.000000 
 ---------------------------------------------------
 
  
 NATURAL OCCUPATION NUMBERS (higher than 1.0E-05)
            1           2           3           4           5           6
    1   2.0000000   2.0000000   2.0000000   2.0000000   2.0000000   2.0000000
            7           8           9          10          11          12
    1   2.0000000   2.0000000   2.0000000   2.0000000   2.0000000   2.0000000
           13          14          15          16          17          18
    1   2.0000000   2.0000000   2.0000000   2.0000000   2.0000000   2.0000000
           19          20          21          22          23          24
    1   2.0000000   2.0000000   2.0000000   2.0000000   2.0000000   2.0000000
           25          26          27          28          29          30
    1   1.9999999   1.9999996   1.9999993   1.9999980   1.9999731   1.9999480
           31          32          33          34          35          36
    1   1.9998779   1.9998271   1.9997249   1.9995417   1.9984414   1.9904853
           37          38          39          40          41          42
    1   1.9830464   1.7374767   1.5777599   1.2835376   0.4080427   0.0135458
           43          44          45          46          47          48
    1   0.0034975   0.0018319   0.0018266   0.0004327   0.0003353   0.0002982
           49          50          51          52          53          54
    1   0.0001699   0.0001416   0.0001038   0.0000571   0.0000171   0.0000118
           55          56
    1   0.0000111   0.0000102
  
*** Unpaired Electrons
 Yamaguchi Nd:         2.79
 Head-Gordon Nu:       1.86
 Head-Gordon Nu_nl:    1.92
  
**************************************************
 RAS-CI total energy for state  10:  -1397.331983028880
  Excitation energy (eV) =  6.665127702877
  Warning: not all configurations have same symmetry
  State symmetry: *B     (C2       )
  <S^2>      :  0.7500
  Dipole Moment:   -0.0000 X     0.0000 Y     0.9485 Z
  Trans. Moment:    0.0082 X    -0.0629 Y    -0.0000 Z
  Strength   :  0.000657
  Natural transition orbitals ( 1 -> 10 ):
   e-/hole pair  1 alpha:  ampl =  0.086364 (  0.7%)   [6 : 7]
   e-/hole pair  2 alpha:  ampl =  0.041682 (  0.2%)   [5 : 8]
   e-/hole pair  1 beta :  ampl =  0.869543 ( 75.6%)   [6 : 7]
   e-/hole pair  2 beta :  ampl =  0.025482 (  0.1%)   [5 : 8]
   Sum of square amplitudes: 0.77

 NATURAL OCCUPATION NUMBERS (higher than 1.0E-05)
            1           2           3           4           5           6
    1   2.0000000   2.0000000   2.0000000   2.0000000   2.0000000   2.0000000
            7           8           9          10          11          12
    1   2.0000000   2.0000000   2.0000000   2.0000000   2.0000000   2.0000000
           13          14          15          16          17          18
    1   2.0000000   2.0000000   2.0000000   2.0000000   2.0000000   2.0000000
           19          20          21          22          23          24
    1   2.0000000   2.0000000   2.0000000   2.0000000   2.0000000   2.0000000
           25          26          27          28          29          30
    1   2.0000000   1.9999999   1.9999998   1.9999989   1.9999984   1.9999924
           31          32          33          34          35          36
    1   1.9999811   1.9998547   1.9997885   1.9996836   1.9989396   1.9967997
           37          38          39          40          41          42
    1   1.9964378   1.9901417   1.8691430   1.0218209   0.1112410   0.0089632
           43          44          45          46          47          48
    1   0.0039532   0.0015845   0.0003765   0.0003471   0.0002832   0.0002462
           49          50          51          52          53          54
    1   0.0001255   0.0001047   0.0000850   0.0000367   0.0000192   0.0000128
Natural Orbitals stored in FCHK

  Amplitudes : 
  
 | HOLE  | ALPHA  | BETA   | PART  |    AMPLITUDE 
--------------------------------------------------
 |       | 111110 | 111010 |       |    -1.9100530126885E-01
 |       | 111110 | 110110 |       |     1.1231369246221E-01
 |       | 111110 | 101110 |       |     2.0244516643153E-01
 |       | 111110 | 011110 |       |     7.5276267393516E-01
 |       | 111101 | 011101 |       |    -2.0973769000835E-01
 |       | 011111 | 011110 |       |     3.5071518424976E-01
 |  32   | 111110 | 111110 |       |    -1.3277362011109E-01
 |       | 110110 | 011110 |  42   |     1.2402271402184E-01
 |       | 111110 | 010110 |  42   |     1.1289586923329E-01
--------------------------------------------------
*** Contributions RASCI wfn    Active:  87.32
                                 Hole:   5.29
                                 Part:   7.40

      Mulliken population analysis 
 ---------------------------------------------------
   Atom    Charge (a.u.)   Spin (a.u.)  
 ---------------------------------------------------
   1  V    0.437041        0.069771 
   2  O   -0.626552       -0.003317 
   3  O   -0.559427       -0.002026 
   4  O   -0.559427       -0.002026 
   5  O   -0.626552       -0.003317 
   6  O   -0.109973        0.934486 
   7  H    0.475967        0.000035 
   8  H    0.470748        0.000008 
   9  H    0.476849        0.002335 
  10  H    0.471722        0.000702 
  11  H    0.475967        0.000035 
  12  H    0.470748        0.000008 
  13  H    0.476849        0.002335 
  14  H    0.471722        0.000702 
  15  O   -0.686690        0.000277 
  16  H    0.470504       -0.000004 
  17  H    0.470504       -0.000004 
 ---------------------------------------------------
   Sum:    2.000000        1.000000 
 ---------------------------------------------------
 
  
 NATURAL OCCUPATION NUMBERS (higher than 1.0E-05)
            1           2           3           4           5           6
    1   2.0000000   2.0000000   2.0000000   2.0000000   2.0000000   2.0000000
            7           8           9          10          11          12
    1   2.0000000   2.0000000   2.0000000   2.0000000   2.0000000   2.0000000
           13          14          15          16          17          18
    1   2.0000000   2.0000000   2.0000000   2.0000000   2.0000000   2.0000000
           19          20          21          22          23          24
    1   2.0000000   2.0000000   2.0000000   2.0000000   2.0000000   2.0000000
           25          26          27          28          29          30
    1   2.0000000   1.9999999   1.9999998   1.9999989   1.9999984   1.9999924
           31          32          33          34          35          36
    1   1.9999811   1.9998547   1.9997885   1.9996836   1.9989396   1.9967997
           37          38          39          40          41          42
    1   1.9964378   1.9901417   1.8691430   1.0218209   0.1112410   0.0089632
           43          44          45          46          47          48
    1   0.0039532   0.0015845   0.0003765   0.0003471   0.0002832   0.0002462
           49          50          51          52          53          54
    1   0.0001255   0.0001047   0.0000850   0.0000367   0.0000192   0.0000128
  
*** Unpaired Electrons
 Yamaguchi Nd:         1.52
 Head-Gordon Nu:       1.25
[...]
   202   -2.421951687012e-02
   203    2.377008931916e-01
   204   -5.538903440863e-03
   205   -2.819123964486e-03
   206   -5.707393475121e-03
   207   -2.532784228153e-04
   208    3.287793047174e-02
   209   -3.408472779340e-01
   210   -5.191747475347e-03
   211    8.599210270187e-03
   212    9.328028894913e-03
   213   -4.170211472951e-02
   214    2.251772125303e-02
   215   -1.204047173534e+00
   216   -1.643617600469e-02
   217    2.039610474559e-02
   218   -8.983210002471e-03
   219    4.549103896449e-02
   220    1.237321067614e-01
   221    1.275605834921e+00
   222    6.089714086964e-03
   223   -4.547140535457e-03
   224   -6.957202401312e-03
   225    5.007876703489e-03
   226    2.421951687014e-02
   227   -2.377008931918e-01
   228   -5.538903440866e-03
   229   -2.819123964488e-03
   230    5.707393475119e-03
   231    2.532784228223e-04
   232   -3.287793047169e-02
   233    3.408472779341e-01
   234   -5.191747475347e-03
   235    8.599210270185e-03
   236   -9.328028894917e-03
   237    4.170211472951e-02
   238   -2.251772125307e-02
   239    1.204047173533e+00
   240   -1.643617600469e-02
   241    2.039610474559e-02
   242    8.983210002476e-03
   243   -4.549103896449e-02
   244   -1.237321067614e-01
   245   -1.275605834921e+00
   246    6.089714086964e-03
   247   -4.547140535457e-03
   248    6.957202401312e-03
   249   -1.393579262404e-15
   250   -3.103989504663e-15
   251    3.733992282040e-16
   252    3.042791713037e-14
   253    4.440892098501e-15
   254    3.952776161581e-02
   255   -1.374479057080e-02
   256    8.487676707303e-15
   257   -4.926462531661e-04
   258    2.014114448928e-03
   259    6.625776316493e-15
   260    2.575563448829e-01
   261   -2.261926855303e-01
   262    4.808480003060e-14
   263    1.043002489931e-16
   264   -1.977762393680e-03
   265    3.635924416446e-04
   266   -5.529431079676e-18
   267   -1.962405932199e-17
   268    5.178149575791e-16
   269    4.267748460497e-03
   270    1.019619260674e-02
   271    1.044303532538e-15
   272    2.306098020877e-16
   273   -8.716985466783e-17
   274    1.927350698678e-04
   275   -7.069908726967e-04
   276   -3.410900034639e-16
   277    1.306463617845e-16
   278    5.561707474360e-04
   279    7.349724128785e-04
   280   -3.457748641078e-03
   281    4.806190132734e-02
   282   -1.809062927855e-01
   283   -6.970200244500e-03
   284   -1.678737487191e-03
   285    4.723388339133e-03
   286    3.457748641076e-03
   287   -4.806190132734e-02
   288    1.809062927857e-01
   289   -6.970200244501e-03
   290   -1.678737487189e-03
   291   -4.723388339134e-03
Sym=X
Ene= -0.147848
Spin=Alpha
Occup=0
     1   -2.081133607708e-03
     2    6.155222887481e-03
     3   -1.882827111230e-02
     4   -1.938268214244e-02
     5   -3.118388195864e-02
     6   -8.551261151911e-01
     7   -8.726472235793e-17
     8   -1.655468297168e-15
     9   -9.666712991369e-03
    10   -2.621600853070e-16
    11    5.109627998490e-15
    12    3.078877272703e-02
    13    8.106362803240e-15
    14    2.994132719536e-15
    15    9.351888342932e-03
    16   -8.595901768160e-14
    17   -8.548717289614e-14
    18   -7.273494139617e-01
    19   -2.239141433998e-02
    20    2.014935527456e-15
    21    1.929771446807e-15
    22   -1.137165182703e-01
    23   -8.575044264213e-02
    24   -1.150048141424e-02
    25   -9.818534874029e-16
    26    1.502270530196e-15
    27   -6.556984580245e-02
    28   -4.358447047911e-02
    29   -1.414785916532e-01
    30    1.017588791008e-14
    31   -8.756016744993e-16
    32   -7.484048379921e-02
    33   -9.732577001863e-02
    34    7.127846732153e-01
    35   -6.776350314208e-14
    36    6.591949208712e-17
    37    1.638330463301e+00
    38    1.215604663585e+00
    39    3.602180142915e-03
    40    5.800481622797e-16
    41    2.054563116860e-16
    42    1.188765973960e-03
    43    1.891022617763e-04
    44    1.010476424756e-16
    45    3.931317077432e-16
    46    4.519181077593e-03
    47    1.189940849686e-02
    48   -2.842766698516e-02
    49    1.091951360456e-02
    50   -2.084034396476e-01
    51   -5.533498169031e-02
    52   -5.331183577758e-02
    53    7.624322653065e-03
    54   -4.759590756318e-02
    55   -4.300792649428e-02
    56    8.477590472735e-03
    57   -1.171794557601e-01
    58   -2.326571621700e-01
    59    5.175114246842e-02
    60    2.389410346162e-04
    61    1.296159854750e-03
    62   -9.502900543881e-05
    63   -3.568584070688e-04
    64   -1.689408504776e-03
    65    5.107985956887e-03
    66    4.963082056566e-03
    67   -3.334543062297e-03
    68    4.739103148302e-05
    69   -4.306269628350e-03
    70    2.394764010707e-04
    71   -4.646867773143e-04
    72   -5.513348083474e-04
    73   -2.580812259728e-04
    74   -4.400183422322e-04
    75   -1.100990518832e-03
    76    5.026267214685e-04
    77    7.465070363502e-04
    78    2.190456909438e-03
    79   -9.373272492460e-03
    80    1.429289717543e-02
    81   -9.868940588632e-03
    82    4.415072602344e-02
    83   -4.291541160800e-02
    84   -8.594481141187e-03
    85    3.359671544802e-02
    86   -2.908031728909e-02
    87   -8.092145192170e-03
    88    1.046279788818e-01
    89   -7.760125771570e-02
    90    3.347008862588e-02
    91   -1.546911765449e-05
    92   -4.976713397820e-04
    93    1.357449858354e-03
    94   -4.687300404916e-03
    95   -1.652119901483e-03
    96   -1.884409841971e-03
    97   -7.304659835289e-03
    98    1.204104742542e-02
    99   -2.998910447767e-02
   100   -1.713342536250e-02
   101   -5.256447211063e-04
   102    6.113426796943e-04
   103    1.185785613595e-04
   104   -1.689640943568e-03
   105   -1.317681035048e-03
   106    7.759342050069e-04
   107   -7.002105540302e-04
   108    7.465070363503e-04
   109    2.190456909437e-03
   110   -9.373272492453e-03
   111    1.429289717541e-02
   112   -9.868940588632e-03
   113   -4.415072602346e-02
   114    4.291541160800e-02
   115   -8.594481141189e-03
   116   -3.359671544802e-02
   117    2.908031728910e-02
   118   -8.092145192168e-03
   119   -1.046279788819e-01
   120    7.760125771561e-02
   121    3.347008862586e-02
   122   -1.546911765468e-05
   123    4.976713397816e-04
   124   -1.357449858354e-03
   125   -4.687300404915e-03
   126   -1.652119901482e-03
   127   -1.884409841968e-03
   128    7.304659835290e-03
   129   -1.204104742542e-02
   130   -2.998910447767e-02
   131   -1.713342536250e-02
   132   -5.256447211061e-04
   133   -6.113426796945e-04
   134   -1.185785613595e-04
   135   -1.689640943568e-03
   136   -1.317681035048e-03
   137   -7.759342050066e-04
   138    7.002105540302e-04
   139    4.519181077592e-03
   140    1.189940849686e-02
   141   -2.842766698515e-02
   142    1.091951360458e-02
   143   -2.084034396478e-01
   144    5.533498169031e-02
   145    5.331183577758e-02
   146    7.624322653066e-03
   147    4.759590756319e-02
   148    4.300792649426e-02
   149    8.477590472743e-03
   150    1.171794557602e-01
   151    2.326571621700e-01
   152    5.175114246842e-02
   153    2.389410346176e-04
   154   -1.296159854750e-03
   155    9.502900543840e-05
   156   -3.568584070691e-04
   157   -1.689408504777e-03
   158    5.107985956880e-03
   159   -4.963082056564e-03
   160    3.334543062296e-03
   161    4.739103148642e-05
   162   -4.306269628345e-03
   163    2.394764010714e-04
   164    4.646867773151e-04
   165    5.513348083457e-04
   166   -2.580812259728e-04
   167   -4.400183422319e-04
   168    1.100990518831e-03
   169   -5.026267214684e-04
   170   -3.133348676062e-03
   171   -7.995544574535e-03
   172    1.590083406727e-02
   173   -9.408863560968e-03
   174    4.041152475820e-01
   175    4.387224090963e-15
   176    1.209861204277e-15
   177   -1.315657105266e-02
   178    2.251237390949e-15
   179   -1.040834085586e-17
   180   -8.458939369287e-03
   181    2.804007026569e-14
   182    1.697253448896e-14
   183   -3.173515144233e-01
   184   -1.135705880271e-03
   185    1.687154105659e-16
   186    1.637145280453e-16
   187    2.248270515028e-03
   188    1.307395848758e-03
   189    1.173507723425e-02
   190   -1.423449032256e-15
   191   -8.426419284557e-16
   192    8.759160435055e-03
   193    7.669177400048e-03
   194   -2.996366007648e-04
   195    1.967013791432e-16
   196    1.365010535159e-16
   197   -3.693988723837e-04
   198   -4.061536534700e-04
   199    1.718460443390e-17
   200   -1.089623183348e-16
   201   -4.268782039434e-02
   202   -9.934120230739e-02
   203   -1.005172773835e+00
   204    1.064474195331e-02
   205    5.747165117268e-03
   206   -3.045049967167e-03
   207    5.135440913625e-02
   208    1.086529251818e-02
   209    1.608793963682e+00
   210   -7.454043266341e-04
   211   -2.671271875572e-02
   212    8.438029975292e-03
   213    1.896319358350e-02
   214   -4.071223506454e-03
   215    4.098483931989e-01
   216    8.193771678191e-03
   217    4.152016553130e-03
   218    4.761571272707e-03
   219    7.099078691023e-03
   220    7.575297131482e-03
   221    2.326479443139e-01
   222    1.208840516855e-03
   223    6.024635264249e-03
   224   -5.039541611404e-03
   225   -4.268782039433e-02
   226   -9.934120230741e-02
   227   -1.005172773835e+00
   228   -1.064474195330e-02
   229   -5.747165117265e-03
   230   -3.045049967168e-03
   231    5.135440913625e-02
   232    1.086529251822e-02
   233    1.608793963682e+00
   234    7.454043266360e-04
   235    2.671271875572e-02
   236    8.438029975291e-03
   237    1.896319358350e-02
   238   -4.071223506398e-03
   239    4.098483931989e-01
   240   -8.193771678186e-03
   241   -4.152016553137e-03
   242    4.761571272699e-03
   243    7.099078691028e-03
   244    7.575297131557e-03
   245    2.326479443139e-01
   246   -1.208840516852e-03
   247   -6.024635264254e-03
   248   -5.039541611393e-03
   249    3.690080787934e-03
   250    9.530119682572e-03
   251   -2.030097579930e-02
   252    7.412940264280e-03
   253   -2.581159618658e-01
   254   -8.851968637258e-16
   255    3.178541956549e-15
   256   -1.959115137669e-02
   257    2.307724324135e-15
   258    8.040443311153e-15
   259   -1.379138550616e-02
   260    5.935356373055e-15
   261    2.085484562819e-14
   262   -1.432274263501e-01
   263    1.186761571991e-04
   264    1.650155706523e-16
   265    3.506309825818e-16
   266    1.840888635320e-03
   267    6.287037050769e-04
   268    7.203930330484e-04
   269   -4.657732532998e-16
   270   -2.569992829660e-15
   271    8.229487220684e-03
   272    4.315966514716e-03
   273   -9.035599993360e-05
   274    3.199480611005e-16
   275   -1.295621596120e-17
   276    4.302776397870e-04
   277    3.825808825401e-04
   278   -2.769323399071e-16
   279   -7.356311740314e-17
   280    4.628796132402e-04
   281   -4.684593510948e-03
   282   -1.149638570469e-01
   283    6.892432515987e-03
   284   -3.800707731210e-03
   285    1.791999210538e-04
   286    4.628796132423e-04
   287   -4.684593510911e-03
   288   -1.149638570468e-01
   289   -6.892432515984e-03
   290    3.800707731213e-03
   291    1.791999210566e-04
Sym=X
Ene= -0.127800
Spin=Alpha
Occup=0
     1   -2.162148078814e-02
     2    7.579491977149e-02
     3   -1.751615406607e-01
     4   -4.007430724735e-01
     5    3.779687699707e+00
     6   -4.422410019172e+00
     7   -4.095031605478e-15
     8    6.293658086007e-15
     9   -2.851631442845e-02
    10    1.732902016327e-14
    11   -1.917498278214e-14
    12    8.760439363371e-02
    13   -7.066569551739e-14
    14   -1.519097347913e-14
    15   -6.845329737025e-03
    16    9.114375920660e-13
    17    3.557015793021e-13
    18    1.135017236455e+00
    19    6.754633578452e-02
    20   -1.888333239775e-14
    21   -3.733938071931e-15
    22    1.398733543270e-02
    23    3.964759951022e-05
    24    2.485859063749e-02
    25    8.747343127613e-16
    26    1.272690720172e-15
    27    1.179908971382e-02
    28    8.153641622310e-03
    29    4.092803587001e-01
    30   -7.305267502034e-14
    31   -3.603714548994e-14
    32   -3.667787901165e-02
    33   -9.354046608173e-03
    34    2.336304038861e+00
    35    1.356501716510e-13
    36    6.874362190601e-14
    37   -1.652355664627e-01
    38   -6.525623961413e-02
    39   -4.462199971227e-03
    40   -5.610963083047e-15
    41   -1.564070054028e-15
    42   -1.865785691864e-04
    43   -1.076230417224e-03
    44   -1.027389978647e-15
    45   -8.769027171063e-15
    46    1.302822363699e-02
    47    3.033757317060e-02
    48   -1.514277990471e-02
    49   -2.812546091054e-01
    50    3.359689277761e-01
    51    5.813151157167e-02
    52    8.822938479260e-03
    53    7.341063481243e-04
    54    7.613670705237e-02
    55   -7.110206519205e-03
    56    3.726002487032e-03
    57   -8.999440874809e-02
    58    1.802568483327e-01
    59   -4.032143299798e-03
    60    2.012670226919e-03
    61   -6.442417869969e-04
    62   -5.539444924082e-05
    63    1.433828758379e-03
    64   -2.669386589509e-03
    65    1.485708148355e-03
    66    4.194241282652e-03
    67   -3.555898626829e-03
    68    4.867027624939e-03
    69   -1.597433063786e-02
    70   -9.926555061777e-05
    71    2.254602309539e-04
    72   -4.284066898931e-04
    73   -2.973907186074e-04
    74   -2.187333131260e-04
    75   -1.828299546457e-04
    76   -1.039925453837e-03
    77    1.298311943318e-02
    78    3.201227542228e-02
    79   -4.456224617137e-02
    80   -1.619108689839e-01
    81    2.931310723419e-02
    82   -2.085585641682e-03
    83    3.484582760764e-02
    84   -2.968701524174e-02
    85    1.852236273738e-02
    86    5.680143525735e-02
    87   -3.068249717824e-02
    88   -1.025333242199e-01
    89   -8.621303439574e-02
    90   -1.201856171092e-02
    91    1.207703014200e-03
    92   -3.221125587941e-04
    93   -7.449954274195e-04
    94   -1.540534783533e-03
    95    3.185878741010e-03
    96   -1.635547538709e-02
    97    2.268169517953e-03
    98    7.061539148818e-03
    99   -3.016016398728e-03
   100    8.075808884702e-03
   101   -2.561885851651e-04
   102   -4.157341175293e-04
   103   -5.692708607262e-04
   104    1.541761014495e-04
   105   -2.546609045601e-04
   106    5.897752095610e-04
   107    2.494066308304e-04
   108    1.298311943318e-02
   109    3.201227542228e-02
   110   -4.456224617131e-02
   111   -1.619108689842e-01
   112    2.931310723479e-02
   113    2.085585641719e-03
   114   -3.484582760763e-02
   115   -2.968701524174e-02
   116   -1.852236273737e-02
   117   -5.680143525738e-02
   118   -3.068249717826e-02
   119    1.025333242197e-01
   120    8.621303439643e-02
   121   -1.201856171085e-02
   122    1.207703014202e-03
   123    3.221125587974e-04
   124    7.449954274154e-04
   125   -1.540534783532e-03
   126    3.185878741007e-03
   127   -1.635547538710e-02
   128   -2.268169517966e-03
   129   -7.061539148802e-03
   130   -3.016016398725e-03
   131    8.075808884715e-03
   132   -2.561885851642e-04
   133    4.157341175307e-04
   134    5.692708607244e-04
   135    1.541761014517e-04
   136   -2.546609045589e-04
   137   -5.897752095598e-04
   138   -2.494066308314e-04
   139    1.302822363700e-02
   140    3.033757317061e-02
   141   -1.514277990461e-02
   142   -2.812546091061e-01
   143    3.359689277776e-01
   144   -5.813151157169e-02
   145   -8.822938479260e-03
   146    7.341063481106e-04
   147   -7.613670705241e-02
   148    7.110206519226e-03
   149    3.726002487015e-03
   150    8.999440874835e-02
   151   -1.802568483328e-01
   152   -4.032143299840e-03
   153    2.012670226917e-03
   154    6.442417869967e-04
   155    5.539444924261e-05
   156    1.433828758379e-03
   157   -2.669386589503e-03
   158    1.485708148357e-03
   159   -4.194241282658e-03
   160    3.555898626837e-03
   161    4.867027624930e-03
   162   -1.597433063789e-02
   163   -9.926555061870e-05
   164   -2.254602309549e-04
   165    4.284066898952e-04
   166   -2.973907186077e-04
   167   -2.187333131269e-04
   168    1.828299546455e-04
   169    1.039925453837e-03
   170    2.049235516206e-02
   171    5.349027130780e-02
   172   -1.165225783430e-01
   173    3.563086677524e-02
   174   -2.074065567837e+00
   175   -7.524579917484e-15
   176   -1.634629931413e-14
   177    5.106369704020e-02
   178    3.877106968808e-15
   179   -1.729432569375e-14
   180    1.379579411130e-01
   181   -1.666748336571e-13
   182   -4.443271922269e-14
   183    4.235814728866e-01
   184    2.756427652746e-03
   185   -1.785355717432e-15
   186   -2.703458117093e-16
   187   -5.013953697616e-04
   188   -6.990890676441e-05
   189   -2.614546474139e-02
   190    1.243189579059e-14
   191    1.296001066881e-15
   192   -5.012798717930e-04
   193   -1.732545889458e-03
   194    1.426894854779e-03
   195   -3.503057219301e-16
   196   -1.852359411691e-16
   197   -4.340584067152e-05
   198    1.533567708280e-05
   199    6.456423937151e-17
   200    2.072994553792e-16
   201    1.222111422949e-02
   202   -6.736095314033e-02
   203    1.211846612182e+00
   204   -1.145622261923e-02
   205   -1.136754263495e-02
   206    3.819106518442e-03
   207    4.752183786835e-03
   208   -7.188582514683e-02
   209    7.774305783263e-01
   210   -6.304665074859e-03
   211   -9.562304707631e-03
   212    5.646272327831e-03
   213    2.546373374772e-02
   214    5.260961337380e-02
   215    8.294802558059e-01
   216    4.632648503823e-03
   217   -9.481371009882e-04
   218    4.822431142992e-03
   219    2.235109320215e-02
   220    6.007859242330e-02
   221    5.163048901996e-01
   222    5.012117155361e-03
   223    1.444674795439e-03
   224   -3.163933644504e-03
   225    1.222111422949e-02
   226   -6.736095314013e-02
   227    1.211846612182e+00
   228    1.145622261922e-02
   229    1.136754263494e-02
   230    3.819106518444e-03
   231    4.752183786817e-03
   232   -7.188582514714e-02
   233    7.774305783263e-01
   234    6.304665074844e-03
   235    9.562304707656e-03
   236    5.646272327847e-03
   237    2.546373374773e-02
   238    5.260961337371e-02
   239    8.294802558059e-01
   240   -4.632648503829e-03
   241    9.481371009991e-04
   242    4.822431143002e-03
   243    2.235109320214e-02
   244    6.007859242309e-02
   245    5.163048901993e-01
   246   -5.012117155364e-03
   247   -1.444674795436e-03
   248   -3.163933644511e-03
   249    1.626095663115e-02
   250    4.032222279263e-02
   251   -6.120368206016e-02
   252   -1.256526457210e-01
   253   -3.960678602595e-01
   254    7.574236376984e-15
   255   -2.410311533696e-14
   256   -7.657089025721e-02
   257    1.367482516113e-14
   258   -3.376292301294e-14
   259   -7.725136963552e-02
   260   -1.028413465498e-13
   261   -5.551722276342e-14
   262   -2.553357477280e-01
   263    4.643512625867e-03
   264    1.555179596213e-15
   265   -2.768645772713e-16
   266    3.528924050488e-04
   267   -9.080104618064e-04
   268    1.993014723673e-03
   269   -1.350807486700e-14
   270   -1.759714336053e-15
   271   -1.299165594496e-03
   272    1.646424122296e-03
   273   -1.217491750447e-03
   274   -4.381803080100e-16
   275   -1.105615165392e-16
   276    6.522939996549e-04
   277   -8.728596381073e-04
   278    2.680012245113e-16
   279   -4.068468652252e-17
   280    1.248940889253e-02
   281    1.401097528052e-03
   282   -1.553949333701e-01
   283   -1.790524995101e-03
   284   -1.935899688252e-03
   285   -7.170173933182e-03
   286    1.248940889252e-02
   287    1.401097528001e-03
   288   -1.553949333705e-01
   289    1.790524995105e-03
   290    1.935899688253e-03
   291   -7.170173933177e-03
[5D7F]

======= END OF MOLDEN-FORMATTED INPUT FILE =======


        *************************************************************
        *                                                           *
        *  Thank you very much for using Q-Chem.  Have a nice day.  *
        *                                                           *
        *************************************************************


