                  Welcome to Q-Chem
     A Quantum Leap Into The Future Of Chemistry


 Q-Chem 6.0 (devel), Q-Chem, Inc., Pleasanton, CA (2022)

 E. Epifanovsky,  A. T. B. Gilbert,  Xintian Feng,  Joonho Lee,  Yuezhi Mao,  
 N. Mardirossian,  P. Pokhilko,  A. White,  M. Wormit,  M. P. Coons,  
 A. L. Dempwolff,  Zhengting Gan,  D. Hait,  P. R. Horn,  L. D. Jacobson,  
 I. Kaliman,  J. Kussmann,  A. W. Lange,  Ka Un Lao,  D. S. Levine,  Jie Liu,  
 S. C. McKenzie,  A. F. Morrison,  K. Nanda,  F. Plasser,  D. R. Rehn,  
 M. L. Vidal,  Zhi-Qiang You,  Ying Zhu,  B. Alam,  B. Albrecht,  
 A. Aldossary,  E. Alguire,  J. H. Andersen,  V. Athavale,  D. Barton,  
 K. Begam,  A. Behn,  N. Bellonzi,  Y. A. Bernard,  E. J. Berquist,  
 H. Burton,  A. Carreras,  K. Carter-Fenk,  Romit Chakraborty,  
 Chandrima Chakravarty,  Junhan Chen,  A. D. Chien,  K. D. Closser,  
 V. Cofer-Shabica,  L. Cunha,  S. Dasgupta,  Jia Deng,  M. de Wergifosse,  
 M. Diedenhofen,  Hainam Do,  S. Ehlert,  Po-Tung Fang,  S. Fatehi,  
 Qingguo Feng,  T. Friedhoff,  B. Ganoe,  J. Gayvert,  Qinghui Ge,  
 G. Gidofalvi,  M. Goldey,  J. Gomes,  C. Gonzalez-Espinoza,  S. Gulania,  
 A. Gunina,  J. A. Gyamfi,  M. W. D. Hanson-Heine,  P. H. P. Harbach,  
 A. W. Hauser,  M. F. Herbst,  M. Hernandez Vera,  M. Hodecker,  
 Z. C. Holden,  S. Houck,  Xunkun Huang,  Kerwin Hui,  B. C. Huynh,  
 K. Ikeda,  M. Ivanov,  Hyunjun Ji,  Zuxin Jin,  Hanjie Jiang,  B. Kaduk,  
 S. Kaehler,  R. Kang,  K. Khistyaev,  Jaehoon Kim,  Yongbin Kim,  
 P. Klunzinger,  Z. Koczor-Benda,  Joong Hoon Koh,  D. Kosenkov,  
 Saikiran Kotaru,  L. Koulias,  T. Kowalczyk,  C. M. Krauter,  K. Kue,  
 A. Kunitsa,  T. Kus,  A. Landau,  K. V. Lawler,  D. Lefrancois,  S. Lehtola,  
 Rain Li,  Shaozhi Li,  Yi-Pei Li,  Jiashu Liang,  M. Liebenthal,  
 Hung-Hsuan Lin,  You-Sheng Lin,  Fenglai Liu,  Kuan-Yu Liu,  
 M. Loipersberger,  A. Luenser,  C. Malbon,  A. Manjanath,  P. Manohar,  
 E. Mansoor,  S. F. Manzer,  Shan-Ping Mao,  A. V. Marenich,  T. Markovich,  
 S. Mason,  F. Matz,  S. A. Maurer,  P. F. McLaughlin,  M. F. S. J. Menger,  
 J.-M. Mewes,  S. A. Mewes,  P. Morgante,  Mohammad Mostafanejad,  
 J. W. Mullinax,  K. J. Oosterbaan,  G. Paran,  V. Parravicini,  
 Alexander C. Paul,  Suranjan K. Paul,  F. Pavosevic,  Zheng Pei,  S. Prager,  
 E. I. Proynov,  E. Ramos,  B. Rana,  A. E. Rask,  A. Rettig,  R. M. Richard,  
 F. Rob,  E. Rossomme,  T. Scheele,  M. Scheurer,  M. Schneider,  
 P. E. Schneider,  N. Sergueev,  S. M. Sharada,  Hengyuan Shen,  
 W. Skomorowski,  D. W. Small,  C. J. Stein,  Yingli Su,  Yu-Chuan Su,  
 E. J. Sundstrom,  Zhen Tao,  J. Thirman,  Hung-Yi Tsai,  T. Tsuchimochi,  
 N. M. Tubman,  C. Utku,  S. P. Veccham,  O. Vydrov,  J. Wenzel,  
 Jonathan Wong,  J. Witte,  A. Yamada,  Chou-Hsun Yang,  Kun Yao,  
 S. Yeganeh,  S. R. Yost,  A. Zech,  F. Zeller,  Igor Ying Zhang,  
 Xing Zhang,  Yu Zhang,  D. Zuev,  A. Aspuru-Guzik,  A. T. Bell,  
 N. A. Besley,  K. B. Bravaya,  B. R. Brooks,  D. Casanova,  Jeng-Da Chai,  
 Hsing-Ta Chen,  S. Coriani,  C. J. Cramer,  A. E. DePrince, III,  
 R. A. DiStasio Jr.,  A. Dreuw,  B. D. Dunietz,  T. R. Furlani,  
 W. A. Goddard III,  S. Grimme,  S. Hammes-Schiffer,  T. Head-Gordon,  
 W. J. Hehre,  Chao-Ping Hsu,  T.-C. Jagau,  Yousung Jung,  A. Klamt,  
 Jing Kong,  D. S. Lambrecht,  Xiangyuan Li,  WanZhen Liang,  N. J. Mayhall,  
 C. W. McCurdy,  J. B. Neaton,  T. Neudecker,  C. Ochsenfeld,  
 J. A. Parkhill,  R. Peverati,  V. A. Rassolov,  Haisheng Ren,  Yihan Shao,  
 L. V. Slipchenko,  R. P. Steele,  J. E. Subotnik,  A. J. W. Thom,  
 A. Tkatchenko,  D. G. Truhlar,  T. Van Voorhis,  Fan Wang,  
 T. A. Wesolowski,  K. B. Whaley,  H. L. Woodcock III,  P. M. Zimmerman,  
 S. Faraji,  P. M. W. Gill,  M. Head-Gordon,  J. M. Herbert,  A. I. Krylov

 Contributors to earlier versions of Q-Chem not listed above: 
 R. D. Adamson,  B. Austin,  R. Baer,  J. Baker,  G. J. O. Beran,  
 K. Brandhorst,  S. T. Brown,  E. F. C. Byrd,  Arup K. Chakraborty,  
 G. K. L. Chan,  Chun-Min Chang,  Yunqing Chen,  C.-L. Cheng,  
 Siu Hung Chien,  D. M. Chipman,  D. L. Crittenden,  H. Dachsel,  
 R. J. Doerksen,  A. D. Dutoi,  R. G. Edgar,  J. Fosso-Tande,  
 L. Fusti-Molnar,  D. Ghosh,  A. Ghysels,  A. Golubeva-Zadorozhnaya,  
 J. Gonthier,  M. S. Gordon,  S. R. Gwaltney,  G. Hawkins,  J. E. Herr,  
 A. Heyden,  S. Hirata,  E. G. Hohenstein,  G. Kedziora,  F. J. Keil,  
 C. Kelley,  Jihan Kim,  R. A. King,  R. Z. Khaliullin,  P. P. Korambath,  
 W. Kurlancheek,  A. Laurent,  A. M. Lee,  M. S. Lee,  S. V. Levchenko,  
 Ching Yeh Lin,  D. Liotard,  E. Livshits,  R. C. Lochan,  I. Lotan,  
 L. A. Martinez-Martinez,  P. E. Maslen,  N. Nair,  D. P. O'Neill,  
 D. Neuhauser,  E. Neuscamman,  C. M. Oana,  R. Olivares-Amaya,  R. Olson,  
 T. M. Perrine,  B. Peters,  P. A. Pieniazek,  A. Prociuk,  Y. M. Rhee,  
 J. Ritchie,  M. A. Rohrdanz,  E. Rosta,  N. J. Russ,  H. F. Schaefer III,  
 M. W. Schmidt,  N. E. Schultz,  S. Sharma,  N. Shenvi,  C. D. Sherrill,  
 A. C. Simmonett,  A. Sodt,  T. Stein,  D. Stuck,  K. S. Thanthiriwatte,  
 V. Vanovschi,  L. Vogt,  Tao Wang,  A. Warshel,  M. A. Watson,  
 C. F. Williams,  Q. Wu,  X. Xu,  Jun Yang,  W. Zhang,  Yan Zhao

   Please cite Q-Chem as follows:
  "Software for the frontiers of quantum chemistry:
   An overview of developments in the Q-Chem 5 package"
   J. Chem. Phys. 155, 084801 (2021)
   https://doi.org/10.1063/5.0055522 (open access)

 Q-Chem 6.0.1 for Intel X86 EM64T Linux

 Parts of Q-Chem use Armadillo 9.900.5 (Nocturnal Misbehaviour).
 http://arma.sourceforge.net/

 Q-Chem begins on Thu Dec 22 16:44:14 2022  

 Host: atlas-007
0

     Scratch files written to ./qchem12057//
 Processing $rem in /scratch/abel/SOFTWARE/qchem/config/preferences:
 Processing $rem in /dipc/acebg/.qchemrc:

 Checking the input file for inconsistencies... 	...done.

--------------------------------------------------------------
User input:
--------------------------------------------------------------
$comment
 RAS-SF CALCULATION
$end

$molecule
 READ vo_h2o5_2+.molecule 
$end

$rem
!**CALCULATION TYPE***     
JOBTYPE            sp    
EXCHANGE           HF
CORRELATION        RASCI    !RASCI=Casanova; RASCI2=Zimmerman
BASIS              def2-TZVP

!***SCF REFERENCE***
SKIP_SCFMAN        FALSE
UNRESTRICTED       FALSE
SCF_GUESS          core
SCF_GUESS_MIX      FALSE
MAX_SCF_CYCLES     500
SCF_CONVERGENCE    8
SCF_ALGORITHM      DIIS !DIIS,DM,DIIS_DM,GDM,DIIS_GDM,GD

SYMMETRY           TRUE !use of symmetry for calculating integrals
SYM_IGNORE         FALSE !turn off using symmetry
SYM_TOL            5 !tolerance for determining point group

!THRESH             14
SCF_FINAL_PRINT     1 !0,1,2,3

!****RAS-SF****
RAS_ROOTS          10       !number of RAS-CI roots to be computed
SET_ITER           100     !number of iterations in RASCI
RAS_ELEC           9       !number of electrons in RAS2
!RAS_ELEC_ALPHA            !spin-α electrons in RAS2 
!RAS_ELEC_BETA             !spin-β electrons in RAS2

RAS_ACT            10       !number of orbitals in RAS2 
RAS_ACT_ORB    [33,37,38,39,40,42,43,44,46,49]  !user-selected RAS2 orbitals
RAS_OCC            35       !number of orbitals in RAS1
N_FROZEN_CORE      25     !Number of frozen core orbitals
N_FROZEN_VIRTUAL   236      !Number of frozen virtual orbitals
RAS_NATORB         TRUE    !computation of the natural orbital occupancies
!RAS_NATORB_STATE  0      !Saves NO of i RAS computed state in .fchk ﬁle

RAS_DO_HOLE        TRUE   !presence of hole excitations in RAS-CI wave function
RAS_DO_PART        TRUE   !presence of particle excitations
RAS_AMPL_PRINT     10     !threshold (×10 2 ) for the CI amplitudes

RAS_GUESS_CS       0      !number of closed shell guess conﬁgurations
RAS_SPIN_MULT      0      !spin multiplicity: 0=any, 2n+1=defined 
RAS_SRDFT          FALSE  !short-range density functional RAS-CI
RAS_NFRAG          0     !fragments of excitation analysis in RASCI

RAS_PRINT          2      !level of information
RAS_NATORB         TRUE   !computation of the natural orbital occupancies
!RAS_NATORB_STATE  0      !Saves NO of i RAS computed state in .fchk ﬁle
RAS_FOD            TRUE

!****RAS-SOC****
CALC_SOC           TRUE   !calculate SOC for EOM-CC, RAS-CI, ADC, TDDFT/TDA and TDDFT
!RAS_SOC_2E        TRUE   !two-electron mean-ﬁeld contribution, default=true
RAS_SOC_SYM_DENS   TRUE   !averaging of α and β densities

!****MEMORY****
MEM_TOTAL          60000 !Default 2000 MB
MEM_STATIC         16000  !Default 64 MB

!**Molecular Properties and Analysis **                                                                                          
GUI                2
STATE_ANALYSIS     TRUE
MOLDEN_FORMAT      TRUE
PRINT_ORBITALS     20
$end                                           

--------------------------------------------------------------
 ----------------------------------------------------------------
             Standard Nuclear Orientation (Angstroms)
    I     Atom           X                Y                Z
 ----------------------------------------------------------------
    1      V       0.0000000000     0.0000000000     0.2869636272
    2      O       1.8746318165    -0.7961880992     0.0028610272
    3      O       0.8732355326     1.8164298115    -0.1051967728
    4      O      -0.8732355326    -1.8164298115    -0.1051967728
    5      O      -1.8746318165     0.7961880992     0.0028610272
    6      O       0.0000000000     0.0000000000     1.8690946272
    7      H      -1.8230087001    -1.8787393181     0.1205042272
    8      H      -0.4500218986    -2.6169756556     0.2621574272
    9      H       2.2719390311    -1.3617393431     0.6926305272
   10      H       2.0477725883    -1.2247043625    -0.8584699728
   11      H       1.8230087001     1.8787393181     0.1205042272
   12      H       0.4500218986     2.6169756556     0.2621574272
   13      H      -2.2719390311     1.3617393431     0.6926305272
   14      H      -2.0477725883     1.2247043625    -0.8584699728
   15      O       0.0000000000     0.0000000000    -1.9199747728
   16      H       0.3569568287     0.7008080581    -2.4946973728
   17      H      -0.3569568287    -0.7008080581    -2.4946973728
 ----------------------------------------------------------------
 Molecular Point Group                 C2    NOp =  2
 Largest Abelian Subgroup              C2    NOp =  2
 Nuclear Repulsion Energy =         623.27172641 hartrees
 There are       40 alpha and       39 beta electrons
 Requested basis set is def2-TZVP
 There are 121 shells and 291 basis functions

 Q-Chem warning in module libmdc/get_mega.C, line 167:

 Allowed MEM_STATIC has been capped at MEM_STATIC=8191.
 Reduce the value of MEM_STATIC to silence this warning.


 Total QAlloc Memory Limit  60000 MB
 Mega-Array Size      8007 MB
 MEM_STATIC part      8191 MB

 A cutoff of  1.0D-12 yielded   6586 shell pairs
 There are     39132 function pairs (     49803 Cartesian)
 Smallest overlap matrix eigenvalue = 1.12E-03

 Scale SEOQF with 1.000000e-01/1.000000e-01/1.000000e-01

 Standard Electronic Orientation quadrupole field applied
 Nucleus-field energy     =     0.0000000019 hartrees
 Guess MOs from core Hamiltonian diagonalization

 -----------------------------------------------------------------------
  General SCF calculation program by
  Eric Jon Sundstrom, Paul Horn, Yuezhi Mao, Dmitri Zuev, Alec White,
  David Stuck, Shaama M.S., Shane Yost, Joonho Lee, David Small,
  Daniel Levine, Susi Lehtola, Hugh Burton, Evgeny Epifanovsky,
  Bang C. Huynh
 -----------------------------------------------------------------------
 Hartree-Fock
 Orthonormalizing orbitals
 A restricted open-shell SCF calculation will be
 performed using DIIS
 SCF converges when DIIS error is below 1.0e-08
 ---------------------------------------
  Cycle       Energy         DIIS error
 ---------------------------------------
    1    -992.2491345230      1.89e-01  
    2    -906.3847152297      1.95e-01  
    3   -1360.1181212466      1.09e-01  
    4   -1382.9239049007      1.00e-01  
    5   -1396.2192862825      2.28e-02  
    6   -1396.7076668499      2.28e-02  
    7   -1397.3804796650      1.02e-02  
    8   -1397.5650845878      3.66e-03  
    9   -1397.5989014646      1.17e-03  
   10   -1397.6111351557      7.08e-04  
   11   -1397.6182161078      5.73e-04  
   12   -1397.6221869133      4.25e-04  
   13   -1397.6235536313      2.66e-04  
   14   -1397.6239947760      1.45e-04  
   15   -1397.6241912715      8.69e-05  
   16   -1397.6242438813      2.81e-05  
   17   -1397.6242488235      1.25e-05  
   18   -1397.6242493417      9.07e-06  
   19   -1397.6242495852      3.51e-06  
   20   -1397.6242496806      1.77e-06  
   21   -1397.6242497205      1.32e-06  
   22   -1397.6242497320      5.22e-07  
   23   -1397.6242497347      2.67e-07  
   24   -1397.6242497371      2.12e-07  
   25   -1397.6242497358      1.71e-07  
   26   -1397.6242497413      6.39e-08  
   27   -1397.6242497298      3.49e-08  
   28   -1397.6242497510      1.52e-08  
   29   -1397.6242496980      1.34e-08  
   30   -1397.6242497903      1.45e-08  
   31   -1397.6242497272      5.15e-09  Convergence criterion met
The disked orbital energies are calculated using alpha and beta Focks
 ---------------------------------------
 Alpha HF Exchange    Energy = -48.75193232805614
 Beta HF Exchange     Energy = -47.86939056845222
 Nuclear Attraction   Energy =   0.00000000000000
 One-Electron (alpha) Energy = -1584.48619924009017
 One-Electron (beta)  Energy = -1550.79143039418614
 Total Coulomb        Energy = 1211.00297639663518
 Final Alpha MO Eigenvalues
            1           2           3           4           5           6
    1-202.0014312 -24.4207083 -20.9616689 -20.9616679 -20.9594991 -20.9594982
            7           8           9          10          11          12
    1 -20.9454620 -20.8860450 -20.5640670 -20.5670152 -20.5670290  -3.7014420
           13          14          15          16          17          18
    1  -2.5264955  -2.5531892  -2.5534513  -1.7534950  -1.7432003  -1.7410157
           19          20          21          22          23          24
    1  -1.7410583  -1.7290813  -1.5373826  -1.1118379  -1.1103231  -1.1078942
           25          26          27          28          29          30
    1  -1.1053799  -1.1001278  -1.0497703  -1.0173955  -1.0103449  -0.9986627
           31          32          33          34          35          36
    1  -0.9977086  -0.9261039  -0.9251676  -0.9220745  -0.9122435  -0.8964926
           37          38          39          40          41          42
    1  -0.8427829  -0.8154259  -0.8099300  -0.9324173  -0.2216793  -0.2286087
           43          44          45          46          47          48
    1  -0.2230782  -0.1732952  -0.1683418  -0.1690510  -0.1510083  -0.1372678
           49          50          51          52          53          54
    1  -0.1062777  -0.1019577  -0.0956819  -0.0863623  -0.0811636  -0.0718765
           55          56          57          58          59          60
    1  -0.0460505  -0.0240860   0.0182026   0.0177048   0.0393922   0.0581872
           61          62          63          64          65          66
    1   0.1041522   0.1212343   0.1395595   0.1526168   0.1973111   0.2072441
           67          68          69          70          71          72
    1   0.2175631   0.2215837   0.2533067   0.2560409   0.2641577   0.2802972
           73          74          75          76          77          78
    1   0.3055532   0.3155898   0.3206235   0.3480960   0.3713202   0.3747808
           79          80          81          82          83          84
    1   0.3989067   0.3953488   0.4070851   0.4164513   0.4187935   0.4340005
           85          86          87          88          89          90
    1   0.4423846   0.4663605   0.4796297   0.4962769   0.5180143   0.5350156
           91          92          93          94          95          96
    1   0.5401481   0.5588854   0.5781511   0.6056466   0.6052606   0.6800268
           97          98          99         100         101         102
    1   0.6953894   0.7120389   0.7308781   0.7754877   0.8034456   0.8439852
          103         104         105         106         107         108
    1   0.8788040   0.9615528   0.9993237   1.0716661   1.0861356   1.1454943
          109         110         111         112         113         114
    1   1.1559702   1.1950022   1.2505776   1.2663175   1.2875181   1.3022742
          115         116         117         118         119         120
    1   1.3813459   1.3971010   1.4061816   1.4556594   1.4575159   1.4752914
          121         122         123         124         125         126
    1   1.4991962   1.5161685   1.5213734   1.5314085   1.5580284   1.5593268
          127         128         129         130         131         132
    1   1.5653067   1.6017398   1.6201473   1.6323746   1.6471009   1.6567784
          133         134         135         136         137         138
    1   1.6637821   1.7074261   1.7154298   1.7164905   1.7428943   1.7614674
          139         140         141         142         143         144
    1   1.7668223   1.8081804   1.8749427   1.8901550   1.8965220   1.9064570
          145         146         147         148         149         150
    1   1.9807689   2.0073395   2.0167954   2.0347861   2.0548931   2.0656410
          151         152         153         154         155         156
    1   2.0726012   2.0879407   2.1001620   2.1083878   2.1262287   2.1598399
          157         158         159         160         161         162
    1   2.1903251   2.2069750   2.2119779   2.2489082   2.2585948   2.3131102
          163         164         165         166         167         168
    1   2.3170896   2.3557066   2.3696740   2.3711440   2.4291930   2.4473739
          169         170         171         172         173         174
    1   2.4566996   2.4740212   2.4851472   2.4989270   2.5504612   2.5526941
          175         176         177         178         179         180
    1   2.5859101   2.5961215   2.6071325   2.6189052   2.6213355   2.6242298
          181         182         183         184         185         186
    1   2.6532626   2.6705626   2.6900693   2.7116323   2.7194024   2.7646584
          187         188         189         190         191         192
    1   2.7912075   2.8100463   2.8337165   2.8429031   2.8581067   2.8763672
          193         194         195         196         197         198
    1   2.9452193   2.9941152   3.0132498   3.0328662   3.1195077   3.1914085
          199         200         201         202         203         204
    1   3.2069011   3.2774773   3.2903139   3.3034595   3.6551972   3.6705704
          205         206         207         208         209         210
    1   3.7059993   3.7157479   3.7573295   3.9378636   3.9492829   3.9515782
          211         212         213         214         215         216
    1   3.9549062   3.9961937   4.1791097   5.1672408   5.1899572   5.1997841
          217         218         219         220         221         222
    1   5.2105757   5.2266229   5.2549305   5.2575938   5.2684703   5.2737381
          223         224         225         226         227         228
    1   5.2769465   5.2959039   5.3017908   5.3141566   5.3169334   5.4431401
          229         230         231         232         233         234
    1   5.4465254   5.4467892   5.4535191   5.4554271   5.4654107   5.4705308
          235         236         237         238         239         240
    1   5.4746139   5.4789242   5.4916407   5.5218654   5.5241814   5.5324726
          241         242         243         244         245         246
    1   5.5342677   5.5589318   5.5749840   5.5821219   6.0497965   6.0522725
          247         248         249         250         251         252
    1   6.0584053   6.0725700   6.0995474   6.1571505   6.3225290   6.3290286
          253         254         255         256         257         258
    1   6.3492922   6.3596830   6.3622384   6.4520743   6.4955882   6.5057753
          259         260         261         262         263         264
    1   6.5107842   6.5341257   6.5552235   6.5666257   6.5694368   6.5974483
          265         266         267         268         269         270
    1   6.6411754   6.6483976   6.7197192   6.7404172   6.7751327   6.7974488
          271         272         273         274         275         276
    1   6.8096107   6.8416113   6.8498740   6.8764709   7.0160004   7.0362626
          277         278         279         280         281         282
    1   7.0418044   7.0536298   7.0591567   7.1014797   7.1371566   7.1590485
          283         284         285         286         287         288
    1   7.1690835   7.2570383   7.3832820  44.5437646  44.6817527  44.6845960
          289         290         291
    1  44.7018946  44.7177662  44.9421359
 Final Beta MO Eigenvalues
            1           2           3           4           5           6
    1-202.0011995 -24.3977993 -20.9614128 -20.9614119 -20.9594507 -20.9594499
            7           8           9          10          11          12
    1 -20.9454620 -20.8860447 -20.5596731 -20.5348620 -20.5345492  -3.6276617
           13          14          15          16          17          18
    1  -2.5092087  -2.4275649  -2.4268256  -1.7526964  -1.7417423  -1.7403500
           19          20          21          22          23          24
    1  -1.7400379  -1.7289668  -1.5347676  -1.1112828  -1.1091806  -1.1062687
           25          26          27          28          29          30
    1  -1.1045199  -1.0997952  -1.0478344  -1.0156021  -1.0082778  -0.9967905
           31          32          33          34          35          36
    1  -0.9957073  -0.9240225  -0.9210458  -0.9200605  -0.9099838  -0.8958712
           37          38          39          40          41          42
    1  -0.8352042  -0.8102624  -0.8054901  -0.1377979  -0.2205844  -0.2065827
           43          44          45          46          47          48
    1  -0.2014233  -0.1623865  -0.1667466  -0.1584176  -0.1494211  -0.1274341
           49          50          51          52          53          54
    1  -0.1025744  -0.1015804  -0.0935837  -0.0858453  -0.0794299  -0.0710059
           55          56          57          58          59          60
    1  -0.0458272  -0.0238688   0.0185836   0.0224618   0.0398910   0.0585104
           61          62          63          64          65          66
    1   0.1084158   0.1291524   0.1432992   0.1578542   0.1980022   0.2074244
           67          68          69          70          71          72
    1   0.2228643   0.2222303   0.2546082   0.2590085   0.2663290   0.2825210
           73          74          75          76          77          78
    1   0.3079744   0.3167223   0.3237679   0.3500984   0.3760450   0.3754550
           79          80          81          82          83          84
    1   0.4001042   0.4127115   0.4074664   0.4174624   0.4207935   0.4352808
           85          86          87          88          89          90
    1   0.4434918   0.4696432   0.4808510   0.4973834   0.5211800   0.5361249
           91          92          93          94          95          96
    1   0.5546730   0.5615813   0.5803450   0.6079647   0.6104344   0.6825844
           97          98          99         100         101         102
    1   0.7002058   0.7122944   0.7333170   0.7784152   0.8052941   0.8457003
          103         104         105         106         107         108
    1   0.8808036   0.9710045   1.0093246   1.0720014   1.0870471   1.1483569
          109         110         111         112         113         114
    1   1.1581205   1.1973651   1.2541924   1.2675187   1.2887085   1.3034361
          115         116         117         118         119         120
    1   1.3838751   1.3997810   1.4084982   1.4590200   1.4606691   1.4767951
          121         122         123         124         125         126
    1   1.5010423   1.5188526   1.5228427   1.5323355   1.5626148   1.5600908
          127         128         129         130         131         132
    1   1.5691709   1.6068159   1.6214433   1.6363656   1.6490244   1.6595145
          133         134         135         136         137         138
    1   1.6696352   1.7116662   1.7167195   1.7242382   1.7554476   1.7622350
          139         140         141         142         143         144
    1   1.7745198   1.8102857   1.8850416   1.9105179   1.8986093   1.9082112
          145         146         147         148         149         150
    1   1.9842604   2.0122246   2.0206894   2.0352225   2.0577306   2.0710651
          151         152         153         154         155         156
    1   2.0737111   2.1060491   2.1126400   2.1122496   2.1308161   2.1636754
          157         158         159         160         161         162
    1   2.1919982   2.2126583   2.2206047   2.2613925   2.2641086   2.3188695
          163         164         165         166         167         168
    1   2.3227254   2.3615875   2.3812521   2.3796643   2.4316734   2.4612417
          169         170         171         172         173         174
    1   2.4886028   2.4843595   2.5369400   2.5155426   2.5621065   2.5587897
          175         176         177         178         179         180
    1   2.5919170   2.6016218   2.6119815   2.6193699   2.6222439   2.6268153
          181         182         183         184         185         186
    1   2.6559956   2.6742632   2.6953165   2.7135745   2.7205652   2.7696557
          187         188         189         190         191         192
    1   2.7927559   2.8132157   2.8375863   2.8473222   2.8665361   2.8794715
          193         194         195         196         197         198
    1   2.9464706   2.9975086   3.0214543   3.0353922   3.1211702   3.1963862
          199         200         201         202         203         204
    1   3.2082202   3.2811228   3.2910456   3.3043661   3.6553541   3.6716378
          205         206         207         208         209         210
    1   3.7065724   3.7167755   3.7578809   3.9381108   3.9495058   3.9518634
          211         212         213         214         215         216
    1   3.9550918   3.9962522   4.1811440   5.1672722   5.1906652   5.2001813
          217         218         219         220         221         222
    1   5.2113179   5.2269747   5.2553628   5.2581536   5.2685554   5.2739017
          223         224         225         226         227         228
    1   5.2772291   5.2963934   5.3020792   5.3142882   5.3170305   5.4434973
          229         230         231         232         233         234
    1   5.4467336   5.4468623   5.4536429   5.4555972   5.4656584   5.4707612
          235         236         237         238         239         240
    1   5.4748497   5.4792204   5.4917584   5.5220017   5.5243331   5.5326957
          241         242         243         244         245         246
    1   5.5344458   5.5589759   5.5761959   5.5832685   6.0500165   6.0524910
          247         248         249         250         251         252
    1   6.0586400   6.0727487   6.0996359   6.1587278   6.3229762   6.3294079
          253         254         255         256         257         258
    1   6.3496414   6.3597093   6.3625444   6.4522549   6.4959671   6.5058604
          259         260         261         262         263         264
    1   6.5111064   6.5345517   6.5555106   6.5669209   6.5700829   6.5976638
          265         266         267         268         269         270
    1   6.6414128   6.6487984   6.7201313   6.7411461   6.7757240   6.7978003
          271         272         273         274         275         276
    1   6.8100342   6.8418601   6.8502587   6.8768880   7.0162271   7.0364376
          277         278         279         280         281         282
    1   7.0421082   7.0537825   7.0593384   7.1017403   7.1373744   7.1593032
          283         284         285         286         287         288
    1   7.1691981   7.2572180   7.3841849  44.5438375  44.6817789  44.6847552
          289         290         291
    1  44.7019318  44.7178648  44.9421565
 SCF time:   CPU 406.24s  wall 407.00s 
<S^2> =          0.750000000
 SCF   energy in the final basis set =    -1397.6242497272
 Total energy in the final basis set =    -1397.6242497272

 Q-Chem warning in module 0, line  204:

 Quadrupole field failed to resolve orbital degeneracies.


 Q-Chem warning in module 0, line  204:

 Quadrupole field failed to resolve orbital degeneracies.

Setting RAS_srDFT_COR/EXC
  
     ##========================================##
     ||                                        ||
     ||              R A S M A N 2             ||
     ||________________________________________||
     ||                                        ||
     ||  Author:                               ||
     ||                                        ||
     ||        David Casanova (2010)           ||
     ||                                        ||
     ##========================================##
  
  ***************************************************
  *  RAS-CI Dimensions:                             *
  *                                                 *
  *  Active Elec.:   9 ( 5, 4)   Active Orb.:  10   *
  *  Doubly Occ. :  35           Doubly Vir.: 246   *
  *  Frozen Occ. :  25           Frozen Vir.: 236   *
  *                                                 *
  *  Total CI configurations:   1872360             * 
  *    Active configurations:     52920             * 
  *      Hole configurations:   1076040             * 
  *  Particle configurations:    743400             * 
  *                                                 *
  *   Requested states:       10                    *
  *  Spin multiplicity: Any multiplicity            *
  *                                                 *
  ***************************************************
-----------------------------------------
    Memory requirements of RASCI

 Each CI-vector requires     14.28 MiB 
 Max. subspace vectors           1000      

 Reduced Lists                0.01 MiB 
 Excitation Lists             0.02 MiB 
 Excitation Lists Sign        0.02 MiB 
 CI-space (Max)           14435.46 MiB 
 Integrals                  132.15 MiB 
 Memory required (Max)    14435.50 MiB 
 Memory available          7811.55 MiB 

 Q-Chem warning in module rasman2/ras_mem_check.C, line 162:

 Static memory may be insufficient to store the subspace vectors


    Disk requirements of RASCI

 Fock matrix                  1.29 MiB 
 2-electron integrals         1.22 MiB 
 CI-space                 28569.95 MiB 
 Disk required            28572.46 MiB 
-----------------------------------------
  
RAS1 HF-like energy:          -1376.3477019116
 Computing integrals
 Computing J and K matrices
 Computing addressing
 Making amplitude guesses
 
Direct CI diagonalization
 ---------------------------------------------------
 Iter    Rts Conv    Rts Left    Ttl Dev     Max Dev
 ---------------------------------------------------
   1         0          10      0.003136    0.000419
   2         0          10      0.001914    0.000251
   3         0          10      0.001230    0.000164
   4         0          10      0.000822    0.000111
   5         0          10      0.000598    0.000081
   6         0          10      0.000545    0.000081
   7         0          10      0.000802    0.000380
   8         0          10      0.000691    0.000285
   9         0          10      0.000793    0.000315
  10         0          10      0.001553    0.000376
  11         0          10      0.001341    0.000306
  12         0          10      0.001664    0.000288
  13         0          10      0.001844    0.000318
  14         0          10      0.001670    0.000286
  15         0          10      0.001277    0.000235
  16         0          10      0.000953    0.000192
  17         0          10      0.000746    0.000144
  18         0          10      0.000583    0.000110
  19         1           9      0.000599    0.000227
  20         1           9      0.000478    0.000178
  21         1           9      0.000412    0.000146
  22         1           9      0.000352    0.000121
  23         1           9      0.000313    0.000104
  24         1           9      0.000315    0.000122
  25         1           9      0.000275    0.000098
  26         1           9      0.000304    0.000075
  27         1           9      0.000272    0.000067
  28         1           9      0.000252    0.000060
  29         1           9      0.000210    0.000050
  30         1           9      0.000176    0.000041
  31         1           9      0.000150    0.000035
  32         2           8      0.000134    0.000033
  33         2           8      0.000125    0.000033
  34         2           8      0.000114    0.000029
  35         2           8      0.000110    0.000028
  36         2           8      0.000098    0.000022
  37         3           7      0.000094    0.000024
  38         4           6      0.000087    0.000027
  39         4           6      0.000079    0.000027
  40         4           6      0.000074    0.000026
  41         4           6      0.000072    0.000023
  42         4           6      0.000072    0.000023
  43         4           6      0.000075    0.000033
  44         4           6      0.000130    0.000051
  45         4           6      0.000112    0.000045
  46         4           6      0.000098    0.000047
  47         4           6      0.000089    0.000045
  48         4           6      0.000085    0.000042
  49         4           6      0.000093    0.000041
  50         5           5      0.000177    0.000065
  51         5           5      0.000136    0.000064
  52         5           5      0.000105    0.000047
  53         5           5      0.000085    0.000037
  54         5           5      0.000072    0.000030
  55         5           5      0.000064    0.000027
  56         5           5      0.000058    0.000025
  57         5           5      0.000052    0.000022
  58         5           5      0.000044    0.000019
  59         6           4      0.000036    0.000015
  60         6           4      0.000029    0.000012
  61         6           4      0.000022    0.000009
  62         6           4      0.000018    0.000007
  63         7           3      0.000015    0.000006
  64         8           2      0.000013    0.000005
  65         8           2      0.000012    0.000004
  66         8           2      0.000010    0.000003
  67         8           2      0.000009    0.000003
  68         8           2      0.000008    0.000002
  69         8           2      0.000007    0.000002
  70         9           1      0.000006    0.000001
  71         9           1      0.000005    0.000001
  72        10           0      0.000005    0.000001    Roots Converged
 ---------------------------------------------------
   
**************************************************
 RAS-CI total energy for state   1:  -1397.733711941413
  Excitation energy (eV) =  0.000000000000
  State symmetry: B     (C2       )
  <S^2>      :  0.7500
  Dipole Moment:    0.0000 X    -0.0000 Y     1.3930 Z
 NATURAL OCCUPATION NUMBERS (higher than 1.0E-05)
            1           2           3           4           5           6
    1   2.0000000   2.0000000   2.0000000   2.0000000   2.0000000   2.0000000
            7           8           9          10          11          12
    1   2.0000000   2.0000000   2.0000000   2.0000000   2.0000000   2.0000000
           13          14          15          16          17          18
    1   2.0000000   2.0000000   2.0000000   2.0000000   2.0000000   2.0000000
           19          20          21          22          23          24
    1   2.0000000   2.0000000   2.0000000   2.0000000   2.0000000   2.0000000
           25          26          27          28          29          30
    1   2.0000000   1.9999984   1.9999871   1.9999605   1.9999582   1.9999534
           31          32          33          34          35          36
    1   1.9999340   1.9998395   1.9994901   1.9989374   1.9988406   1.9980888
           37          38          39          40          41          42
    1   1.9575901   1.9213070   1.9133313   0.9985841   0.0857381   0.0779944
           43          44          45          46          47          48
    1   0.0406858   0.0033886   0.0027924   0.0019477   0.0013889   0.0001123
           49          50
    1   0.0000808   0.0000510
Natural Orbitals stored in FCHK

  Amplitudes : 
  
 | HOLE  | ALPHA      | BETA       | PART  |    AMPLITUDE 
--------------------------------------------------
 |       | 1111100000 | 1111000000 |       |     9.3753091015333E-01
--------------------------------------------------
*** Contributions RASCI wfn    Active:  96.11
                                 Hole:   0.83
                                 Part:   3.06

      Mulliken population analysis 
 ---------------------------------------------------
   Atom    Charge (a.u.)   Spin (a.u.)  
 ---------------------------------------------------
   1  V    1.309564        1.116333 
   2  O   -0.667064        0.002805 
   3  O   -0.662112        0.000751 
   4  O   -0.662112        0.000751 
   5  O   -0.667064        0.002805 
   6  O   -0.350747       -0.127752 
   7  H    0.447881        0.000492 
   8  H    0.436765        0.000185 
   9  H    0.451424        0.000585 
  10  H    0.429794        0.000325 
  11  H    0.447881        0.000492 
  12  H    0.436765        0.000185 
  13  H    0.451424        0.000585 
  14  H    0.429794        0.000325 
  15  O   -0.707401        0.002640 
  16  H    0.437604       -0.000754 
  17  H    0.437604       -0.000754 
 ---------------------------------------------------
   Sum:    2.000000        1.000000 
 ---------------------------------------------------
 
  
 NATURAL OCCUPATION NUMBERS (higher than 1.0E-05)
            1           2           3           4           5           6
    1   2.0000000   2.0000000   2.0000000   2.0000000   2.0000000   2.0000000
            7           8           9          10          11          12
    1   2.0000000   2.0000000   2.0000000   2.0000000   2.0000000   2.0000000
           13          14          15          16          17          18
    1   2.0000000   2.0000000   2.0000000   2.0000000   2.0000000   2.0000000
           19          20          21          22          23          24
    1   2.0000000   2.0000000   2.0000000   2.0000000   2.0000000   2.0000000
           25          26          27          28          29          30
    1   2.0000000   1.9999984   1.9999871   1.9999605   1.9999582   1.9999534
           31          32          33          34          35          36
    1   1.9999340   1.9998395   1.9994901   1.9989374   1.9988406   1.9980888
           37          38          39          40          41          42
    1   1.9575901   1.9213070   1.9133313   0.9985841   0.0857381   0.0779944
           43          44          45          46          47          48
    1   0.0406858   0.0033886   0.0027924   0.0019477   0.0013889   0.0001123
           49          50
    1   0.0000808   0.0000510
  
*** Unpaired Electrons
 Yamaguchi Nd:         1.82
 Head-Gordon Nu:       1.43
 Head-Gordon Nu_nl:    1.11
  
**************************************************
 RAS-CI total energy for state   2:  -1397.638996569710
  Excitation energy (eV) =  2.577336394833
  Warning: not all configurations have same symmetry
  State symmetry: *A     (C2       )
  <S^2>      :  0.7500
  Dipole Moment:    0.0000 X    -0.0000 Y     1.2332 Z
  Trans. Moment:    0.0000 X     0.0000 Y     0.0043 Z
  Strength   :  0.000001
  Natural transition orbitals ( 1 -> 2 ):
   e-/hole pair  1 alpha:  ampl =  0.983750 ( 96.8%)   [10 : 11]
   e-/hole pair  2 alpha:  ampl =  0.045880 (  0.2%)   [9 : 12]
   e-/hole pair  1 beta :  ampl =  0.010948 (  0.0%)   [10 : 11]
   e-/hole pair  2 beta :  ampl =  0.010181 (  0.0%)   [9 : 12]
   Sum of square amplitudes: 0.97

 NATURAL OCCUPATION NUMBERS (higher than 1.0E-05)
            1           2           3           4           5           6
    1   2.0000000   2.0000000   2.0000000   2.0000000   2.0000000   2.0000000
            7           8           9          10          11          12
    1   2.0000000   2.0000000   2.0000000   2.0000000   2.0000000   2.0000000
           13          14          15          16          17          18
    1   2.0000000   2.0000000   2.0000000   2.0000000   2.0000000   2.0000000
           19          20          21          22          23          24
    1   2.0000000   2.0000000   2.0000000   2.0000000   2.0000000   2.0000000
           25          26          27          28          29          30
    1   2.0000000   1.9999982   1.9999729   1.9999566   1.9999419   1.9999353
           31          32          33          34          35          36
    1   1.9999305   1.9998402   1.9993847   1.9990568   1.9989810   1.9987107
           37          38          39          40          41          42
    1   1.9614370   1.9174295   1.9089858   0.9897118   0.0897714   0.0824542
           43          44          45          46          47          48
    1   0.0370203   0.0084358   0.0031247   0.0023402   0.0018450   0.0013424
           49          50          51
    1   0.0003128   0.0000517   0.0000119
Natural Orbitals stored in FCHK

  Amplitudes : 
  
 | HOLE  | ALPHA      | BETA       | PART  |    AMPLITUDE 
--------------------------------------------------
 |       | 1111000100 | 1111000000 |       |    -1.7639620255723E-01
 |       | 1111000010 | 1111000000 |       |    -7.7432916666701E-01
 |       | 1111000001 | 1111000000 |       |    -3.9801038832501E-01
 |       | 1111000000 | 1111000000 |  49   |    -1.4230902788833E-01
 |       | 1111000000 | 1111000000 |  51   |    -2.3953780410786E-01
--------------------------------------------------
*** Contributions RASCI wfn    Active:  88.00
                                 Hole:   0.69
                                 Part:  11.31

      Mulliken population analysis 
 ---------------------------------------------------
   Atom    Charge (a.u.)   Spin (a.u.)  
 ---------------------------------------------------
   1  V    1.321036        1.029127 
   2  O   -0.674143        0.016672 
   3  O   -0.676979        0.019481 
   4  O   -0.676979        0.019481 
   5  O   -0.674143        0.016672 
   6  O   -0.311767       -0.117696 
   7  H    0.446616        0.002186 
   8  H    0.435335        0.002534 
   9  H    0.452065        0.000401 
  10  H    0.428049        0.002330 
  11  H    0.446616        0.002186 
  12  H    0.435335        0.002534 
  13  H    0.452065        0.000401 
  14  H    0.428049        0.002330 
  15  O   -0.708536        0.001912 
  16  H    0.438691       -0.000275 
  17  H    0.438691       -0.000275 
 ---------------------------------------------------
   Sum:    2.000000        1.000000 
 ---------------------------------------------------
 
  
 NATURAL OCCUPATION NUMBERS (higher than 1.0E-05)
            1           2           3           4           5           6
    1   2.0000000   2.0000000   2.0000000   2.0000000   2.0000000   2.0000000
            7           8           9          10          11          12
    1   2.0000000   2.0000000   2.0000000   2.0000000   2.0000000   2.0000000
           13          14          15          16          17          18
    1   2.0000000   2.0000000   2.0000000   2.0000000   2.0000000   2.0000000
           19          20          21          22          23          24
    1   2.0000000   2.0000000   2.0000000   2.0000000   2.0000000   2.0000000
           25          26          27          28          29          30
    1   2.0000000   1.9999982   1.9999729   1.9999566   1.9999419   1.9999353
           31          32          33          34          35          36
    1   1.9999305   1.9998402   1.9993847   1.9990568   1.9989810   1.9987107
           37          38          39          40          41          42
    1   1.9614370   1.9174295   1.9089858   0.9897118   0.0897714   0.0824542
           43          44          45          46          47          48
    1   0.0370203   0.0084358   0.0031247   0.0023402   0.0018450   0.0013424
           49          50          51
    1   0.0003128   0.0000517   0.0000119
  
*** Unpaired Electrons
 Yamaguchi Nd:         1.85
 Head-Gordon Nu:       1.43
 Head-Gordon Nu_nl:    1.12
  
**************************************************
 RAS-CI total energy for state   3:  -1397.627453780580
  Excitation energy (eV) =  2.891431667711
  Warning: not all configurations have same symmetry
  State symmetry: *B     (C2       )
  <S^2>      :  0.7500
  Dipole Moment:    0.0000 X    -0.0000 Y     1.3788 Z
  Trans. Moment:   -0.0159 X    -0.0533 Y     0.0000 Z
  Strength   :  0.000219
  Natural transition orbitals ( 1 -> 3 ):
   e-/hole pair  1 alpha:  ampl =  0.936198 ( 87.6%)   [10 : 11]
   e-/hole pair  2 alpha:  ampl =  0.070556 (  0.5%)   [9 : 12]
   e-/hole pair  1 beta :  ampl =  0.076308 (  0.6%)   [10 : 11]
   e-/hole pair  2 beta :  ampl =  0.048255 (  0.2%)   [9 : 12]
   Sum of square amplitudes: 0.90

 NATURAL OCCUPATION NUMBERS (higher than 1.0E-05)
            1           2           3           4           5           6
    1   2.0000000   2.0000000   2.0000000   2.0000000   2.0000000   2.0000000
            7           8           9          10          11          12
    1   2.0000000   2.0000000   2.0000000   2.0000000   2.0000000   2.0000000
           13          14          15          16          17          18
    1   2.0000000   2.0000000   2.0000000   2.0000000   2.0000000   2.0000000
           19          20          21          22          23          24
    1   2.0000000   2.0000000   2.0000000   2.0000000   2.0000000   2.0000000
           25          26          27          28          29          30
    1   2.0000000   1.9999982   1.9999759   1.9999450   1.9999422   1.9999125
           31          32          33          34          35          36
    1   1.9999120   1.9999028   1.9989604   1.9988350   1.9986330   1.9970786
           37          38          39          40          41          42
    1   1.9498565   1.9496660   1.8737773   1.0105234   0.1221402   0.0412559
           43          44          45          46          47          48
    1   0.0356531   0.0155977   0.0029504   0.0028691   0.0021461   0.0002575
           49          50          51          52
    1   0.0000999   0.0000541   0.0000337   0.0000110
Natural Orbitals stored in FCHK

  Amplitudes : 
  
 | HOLE  | ALPHA      | BETA       | PART  |    AMPLITUDE 
--------------------------------------------------
 |       | 1111010000 | 1111000000 |       |     8.7994079080122E-01
 |       | 1111010000 | 1110001000 |       |    -1.4299291100870E-01
 |       | 1110011000 | 1111000000 |       |     1.8893388402983E-01
 |       | 1110011000 | 1110001000 |       |     1.0996986678358E-01
 |       | 1111000000 | 1111000000 |  47   |     1.3723694161398E-01
--------------------------------------------------
*** Contributions RASCI wfn    Active:  91.81
                                 Hole:   1.12
                                 Part:   7.07

      Mulliken population analysis 
 ---------------------------------------------------
   Atom    Charge (a.u.)   Spin (a.u.)  
 ---------------------------------------------------
   1  V    1.298454        0.798038 
   2  O   -0.651584       -0.001129 
   3  O   -0.656778       -0.000923 
   4  O   -0.656778       -0.000923 
   5  O   -0.651584       -0.001129 
   6  O   -0.371768        0.192226 
   7  H    0.448314        0.000251 
   8  H    0.438053        0.000191 
   9  H    0.446071        0.004974 
  10  H    0.431233       -0.000402 
  11  H    0.448314        0.000251 
  12  H    0.438053        0.000191 
  13  H    0.446071        0.004974 
  14  H    0.431233       -0.000402 
  15  O   -0.713944        0.004300 
  16  H    0.438320       -0.000243 
  17  H    0.438320       -0.000243 
 ---------------------------------------------------
   Sum:    2.000000        1.000000 
 ---------------------------------------------------
 
  
 NATURAL OCCUPATION NUMBERS (higher than 1.0E-05)
            1           2           3           4           5           6
    1   2.0000000   2.0000000   2.0000000   2.0000000   2.0000000   2.0000000
            7           8           9          10          11          12
    1   2.0000000   2.0000000   2.0000000   2.0000000   2.0000000   2.0000000
           13          14          15          16          17          18
    1   2.0000000   2.0000000   2.0000000   2.0000000   2.0000000   2.0000000
           19          20          21          22          23          24
    1   2.0000000   2.0000000   2.0000000   2.0000000   2.0000000   2.0000000
           25          26          27          28          29          30
    1   2.0000000   1.9999982   1.9999759   1.9999450   1.9999422   1.9999125
           31          32          33          34          35          36
    1   1.9999120   1.9999028   1.9989604   1.9988350   1.9986330   1.9970786
           37          38          39          40          41          42
    1   1.9498565   1.9496660   1.8737773   1.0105234   0.1221402   0.0412559
           43          44          45          46          47          48
    1   0.0356531   0.0155977   0.0029504   0.0028691   0.0021461   0.0002575
           49          50          51          52
    1   0.0000999   0.0000541   0.0000337   0.0000110
  
*** Unpaired Electrons
 Yamaguchi Nd:         1.87
 Head-Gordon Nu:       1.45
 Head-Gordon Nu_nl:    1.14
  
**************************************************
 RAS-CI total energy for state   4:  -1397.625521781111
  Excitation energy (eV) =  2.944004048064
  State symmetry: B     (C2       )
  <S^2>      :  0.7500
  Dipole Moment:    0.0000 X    -0.0000 Y     1.3953 Z
  Trans. Moment:    0.0480 X    -0.0214 Y    -0.0000 Z
  Strength   :  0.000199
  Natural transition orbitals ( 1 -> 4 ):
   e-/hole pair  1 alpha:  ampl =  0.938474 ( 88.1%)   [10 : 11]
   e-/hole pair  2 alpha:  ampl =  0.073708 (  0.5%)   [9 : 12]
   e-/hole pair  1 beta :  ampl =  0.076119 (  0.6%)   [10 : 11]
   e-/hole pair  2 beta :  ampl =  0.046343 (  0.2%)   [9 : 12]
   Sum of square amplitudes: 0.90

 NATURAL OCCUPATION NUMBERS (higher than 1.0E-05)
            1           2           3           4           5           6
    1   2.0000000   2.0000000   2.0000000   2.0000000   2.0000000   2.0000000
            7           8           9          10          11          12
    1   2.0000000   2.0000000   2.0000000   2.0000000   2.0000000   2.0000000
           13          14          15          16          17          18
    1   2.0000000   2.0000000   2.0000000   2.0000000   2.0000000   2.0000000
           19          20          21          22          23          24
    1   2.0000000   2.0000000   2.0000000   2.0000000   2.0000000   2.0000000
           25          26          27          28          29          30
    1   2.0000000   1.9999981   1.9999825   1.9999422   1.9999282   1.9999222
           31          32          33          34          35          36
    1   1.9999208   1.9998056   1.9994656   1.9990290   1.9988904   1.9971890
           37          38          39          40          41          42
    1   1.9544569   1.9493911   1.8670530   1.0049438   0.1279097   0.0432982
           43          44          45          46          47          48
    1   0.0357014   0.0152476   0.0031305   0.0026821   0.0016564   0.0002599
           49          50          51
    1   0.0000982   0.0000536   0.0000220
Natural Orbitals stored in FCHK

  Amplitudes : 
  
 | HOLE  | ALPHA      | BETA       | PART  |    AMPLITUDE 
--------------------------------------------------
 |       | 1111001000 | 1111000000 |       |     8.6962138288713E-01
 |       | 1111001000 | 1101010000 |       |    -1.3953441682433E-01
 |       | 1101011000 | 1111000000 |       |    -1.8882047184644E-01
 |       | 1101011000 | 1101010000 |       |    -1.2374080705125E-01
 |       | 1111000000 | 1111000000 |  47   |     1.2103869290499E-01
 |       | 1111000000 | 1111000000 |  48   |     1.6575571310215E-01
--------------------------------------------------
*** Contributions RASCI wfn    Active:  90.42
                                 Hole:   0.78
                                 Part:   8.80

      Mulliken population analysis 
 ---------------------------------------------------
   Atom    Charge (a.u.)   Spin (a.u.)  
 ---------------------------------------------------
   1  V    1.303889        0.820011 
   2  O   -0.654287       -0.001742 
   3  O   -0.655818        0.000460 
   4  O   -0.655818        0.000460 
   5  O   -0.654287       -0.001742 
   6  O   -0.372255        0.166404 
   7  H    0.446794        0.001536 
   8  H    0.436029        0.002313 
   9  H    0.450901        0.000375 
  10  H    0.430789        0.000044 
  11  H    0.446794        0.001536 
  12  H    0.436029        0.002313 
  13  H    0.450901        0.000375 
  14  H    0.430789        0.000044 
  15  O   -0.713050        0.004612 
  16  H    0.436300        0.001500 
  17  H    0.436300        0.001500 
 ---------------------------------------------------
   Sum:    2.000000        1.000000 
 ---------------------------------------------------
 
  
 NATURAL OCCUPATION NUMBERS (higher than 1.0E-05)
            1           2           3           4           5           6
    1   2.0000000   2.0000000   2.0000000   2.0000000   2.0000000   2.0000000
            7           8           9          10          11          12
    1   2.0000000   2.0000000   2.0000000   2.0000000   2.0000000   2.0000000
           13          14          15          16          17          18
    1   2.0000000   2.0000000   2.0000000   2.0000000   2.0000000   2.0000000
           19          20          21          22          23          24
    1   2.0000000   2.0000000   2.0000000   2.0000000   2.0000000   2.0000000
           25          26          27          28          29          30
    1   2.0000000   1.9999981   1.9999825   1.9999422   1.9999282   1.9999222
           31          32          33          34          35          36
    1   1.9999208   1.9998056   1.9994656   1.9990290   1.9988904   1.9971890
           37          38          39          40          41          42
    1   1.9544569   1.9493911   1.8670530   1.0049438   0.1279097   0.0432982
           43          44          45          46          47          48
    1   0.0357014   0.0152476   0.0031305   0.0026821   0.0016564   0.0002599
           49          50          51
    1   0.0000982   0.0000536   0.0000220
  
*** Unpaired Electrons
 Yamaguchi Nd:         1.89
 Head-Gordon Nu:       1.46
 Head-Gordon Nu_nl:    1.15
  
**************************************************
 RAS-CI total energy for state   5:  -1397.549976699301
  Excitation energy (eV) =  4.999690314176
  Warning: not all configurations have same symmetry
  State symmetry: *A     (C2       )
  <S^2>      :  0.7500
  Dipole Moment:    0.0000 X    -0.0000 Y     1.2514 Z
  Trans. Moment:    0.0000 X    -0.0000 Y     0.0027 Z
  Strength   :  0.000001
  Natural transition orbitals ( 1 -> 5 ):
   e-/hole pair  1 alpha:  ampl =  0.590230 ( 34.8%)   [10 : 11]
   e-/hole pair  2 alpha:  ampl =  0.428290 ( 18.3%)   [9 : 12]
   e-/hole pair  1 beta :  ampl =  0.256123 (  6.6%)   [10 : 11]
   e-/hole pair  2 beta :  ampl =  0.096921 (  0.9%)   [9 : 12]
   Sum of square amplitudes: 0.70

 NATURAL OCCUPATION NUMBERS (higher than 1.0E-05)
            1           2           3           4           5           6
    1   2.0000000   2.0000000   2.0000000   2.0000000   2.0000000   2.0000000
            7           8           9          10          11          12
    1   2.0000000   2.0000000   2.0000000   2.0000000   2.0000000   2.0000000
           13          14          15          16          17          18
    1   2.0000000   2.0000000   2.0000000   2.0000000   2.0000000   2.0000000
           19          20          21          22          23          24
    1   2.0000000   2.0000000   2.0000000   2.0000000   2.0000000   2.0000000
           25          26          27          28          29          30
    1   2.0000000   1.9999985   1.9999873   1.9999617   1.9999472   1.9998971
           31          32          33          34          35          36
    1   1.9998436   1.9997896   1.9994164   1.9993808   1.9981114   1.9979407
           37          38          39          40          41          42
    1   1.9758400   1.8232321   1.3067322   0.8101223   0.6877313   0.2078145
           43          44          45          46          47          48
    1   0.1823224   0.0047816   0.0028407   0.0024545   0.0014564   0.0001091
           49          50          51          52
    1   0.0001054   0.0000841   0.0000656   0.0000210
Natural Orbitals stored in FCHK

  Amplitudes : 
  
 | HOLE  | ALPHA      | BETA       | PART  |    AMPLITUDE 
--------------------------------------------------
 |       | 1111100000 | 1110010000 |       |    -2.6500572092569E-01
 |       | 1111100000 | 1101001000 |       |    -1.0113919560123E-01
 |       | 1111010000 | 1110100000 |       |     3.2927669043237E-01
 |       | 1111001000 | 1101100000 |       |     1.6770533958392E-01
 |       | 1111000100 | 1111000000 |       |     2.9767411378881E-01
 |       | 1111000010 | 1111000000 |       |    -1.0218914151793E-01
 |       | 1110110000 | 1111000000 |       |     5.9428241135869E-01
 |       | 1110110000 | 1110001000 |       |     1.1132220443576E-01
 |       | 1110110000 | 1101010000 |       |     1.1444954509817E-01
 |       | 1101101000 | 1111000000 |       |     2.6884453518608E-01
 |       | 1111000000 | 1111000000 |  49   |     2.1762840451121E-01
--------------------------------------------------
*** Contributions RASCI wfn    Active:  83.91
                                 Hole:   2.54
                                 Part:  13.55

      Mulliken population analysis 
 ---------------------------------------------------
   Atom    Charge (a.u.)   Spin (a.u.)  
 ---------------------------------------------------
   1  V    1.312149        1.149028 
   2  O   -0.664829        0.001304 
   3  O   -0.654691       -0.000476 
   4  O   -0.654691       -0.000476 
   5  O   -0.664829        0.001304 
   6  O   -0.369027       -0.164448 
   7  H    0.447684        0.000142 
   8  H    0.436346        0.000270 
   9  H    0.448678        0.003714 
  10  H    0.430092        0.000931 
  11  H    0.447684        0.000142 
  12  H    0.436346        0.000270 
  13  H    0.448678        0.003714 
  14  H    0.430092        0.000931 
  15  O   -0.698950        0.001854 
  16  H    0.434634        0.000899 
  17  H    0.434634        0.000899 
 ---------------------------------------------------
   Sum:    2.000000        1.000000 
 ---------------------------------------------------
 
  
 NATURAL OCCUPATION NUMBERS (higher than 1.0E-05)
            1           2           3           4           5           6
    1   2.0000000   2.0000000   2.0000000   2.0000000   2.0000000   2.0000000
            7           8           9          10          11          12
    1   2.0000000   2.0000000   2.0000000   2.0000000   2.0000000   2.0000000
           13          14          15          16          17          18
    1   2.0000000   2.0000000   2.0000000   2.0000000   2.0000000   2.0000000
           19          20          21          22          23          24
    1   2.0000000   2.0000000   2.0000000   2.0000000   2.0000000   2.0000000
           25          26          27          28          29          30
    1   2.0000000   1.9999985   1.9999873   1.9999617   1.9999472   1.9998971
           31          32          33          34          35          36
    1   1.9998436   1.9997896   1.9994164   1.9993808   1.9981114   1.9979407
           37          38          39          40          41          42
    1   1.9758400   1.8232321   1.3067322   0.8101223   0.6877313   0.2078145
           43          44          45          46          47          48
    1   0.1823224   0.0047816   0.0028407   0.0024545   0.0014564   0.0001091
           49          50          51          52
    1   0.0001054   0.0000841   0.0000656   0.0000210
  
*** Unpaired Electrons
 Yamaguchi Nd:         3.88
 Head-Gordon Nu:       2.80
 Head-Gordon Nu_nl:    2.92
  
**************************************************
 RAS-CI total energy for state   6:  -1397.543865073017
  Excitation energy (eV) =  5.165996126730
  State symmetry: B     (C2       )
  <S^2>      :  0.7500
  Dipole Moment:    0.0000 X    -0.0000 Y     1.2407 Z
  Trans. Moment:    0.0000 X    -0.0000 Y     0.0040 Z
  Strength   :  0.000002
  Natural transition orbitals ( 1 -> 6 ):
   e-/hole pair  1 alpha:  ampl =  0.546405 ( 29.9%)   [10 : 11]
   e-/hole pair  2 alpha:  ampl =  0.470907 ( 22.2%)   [9 : 12]
   e-/hole pair  1 beta :  ampl =  0.221961 (  4.9%)   [10 : 11]
   e-/hole pair  2 beta :  ampl =  0.181788 (  3.3%)   [9 : 12]
   Sum of square amplitudes: 0.62

 NATURAL OCCUPATION NUMBERS (higher than 1.0E-05)
            1           2           3           4           5           6
    1   2.0000000   2.0000000   2.0000000   2.0000000   2.0000000   2.0000000
            7           8           9          10          11          12
    1   2.0000000   2.0000000   2.0000000   2.0000000   2.0000000   2.0000000
           13          14          15          16          17          18
    1   2.0000000   2.0000000   2.0000000   2.0000000   2.0000000   2.0000000
           19          20          21          22          23          24
    1   2.0000000   2.0000000   2.0000000   2.0000000   2.0000000   2.0000000
           25          26          27          28          29          30
    1   2.0000000   1.9999986   1.9999921   1.9999719   1.9999643   1.9999038
           31          32          33          34          35          36
    1   1.9998541   1.9997955   1.9996596   1.9994479   1.9990549   1.9982944
           37          38          39          40          41          42
    1   1.9862729   1.5716069   1.4305496   0.9826647   0.5692830   0.4278315
           43          44          45          46          47          48
    1   0.0187433   0.0115241   0.0027274   0.0012927   0.0012108   0.0001779
           49          50          51
    1   0.0000851   0.0000553   0.0000166
Natural Orbitals stored in FCHK

  Amplitudes : 
  
 | HOLE  | ALPHA      | BETA       | PART  |    AMPLITUDE 
--------------------------------------------------
 |       | 1111100000 | 1110001000 |       |     2.1816795993600E-01
 |       | 1111100000 | 1101010000 |       |    -2.0124476611906E-01
 |       | 1111010000 | 1101100000 |       |     3.1698418522685E-01
 |       | 1111001000 | 1110100000 |       |    -2.8797186847892E-01
 |       | 1110101000 | 1111000000 |       |    -5.0613982841264E-01
 |       | 1110101000 | 1110001000 |       |    -1.4069677544866E-01
 |       | 1101110000 | 1111000000 |       |     5.1822895134442E-01
 |       | 1101110000 | 1101010000 |       |     1.5346271474841E-01
--------------------------------------------------
*** Contributions RASCI wfn    Active:  89.67
                                 Hole:   2.10
                                 Part:   8.23

      Mulliken population analysis 
 ---------------------------------------------------
   Atom    Charge (a.u.)   Spin (a.u.)  
 ---------------------------------------------------
   1  V    1.320907        1.228635 
   2  O   -0.669218        0.001535 
   3  O   -0.656718        0.000194 
   4  O   -0.656718        0.000194 
   5  O   -0.669218        0.001535 
   6  O   -0.367911       -0.244312 
   7  H    0.446430        0.000786 
   8  H    0.434599        0.001000 
   9  H    0.451402        0.002165 
  10  H    0.431436        0.000087 
  11  H    0.446430        0.000786 
  12  H    0.434599        0.001000 
  13  H    0.451402        0.002165 
  14  H    0.431436        0.000087 
  15  O   -0.697838        0.004089 
  16  H    0.434490        0.000027 
  17  H    0.434490        0.000027 
 ---------------------------------------------------
   Sum:    2.000000        1.000000 
 ---------------------------------------------------
 
  
 NATURAL OCCUPATION NUMBERS (higher than 1.0E-05)
            1           2           3           4           5           6
    1   2.0000000   2.0000000   2.0000000   2.0000000   2.0000000   2.0000000
            7           8           9          10          11          12
    1   2.0000000   2.0000000   2.0000000   2.0000000   2.0000000   2.0000000
           13          14          15          16          17          18
    1   2.0000000   2.0000000   2.0000000   2.0000000   2.0000000   2.0000000
           19          20          21          22          23          24
    1   2.0000000   2.0000000   2.0000000   2.0000000   2.0000000   2.0000000
           25          26          27          28          29          30
    1   2.0000000   1.9999986   1.9999921   1.9999719   1.9999643   1.9999038
           31          32          33          34          35          36
    1   1.9998541   1.9997955   1.9996596   1.9994479   1.9990549   1.9982944
           37          38          39          40          41          42
    1   1.9862729   1.5716069   1.4305496   0.9826647   0.5692830   0.4278315
           43          44          45          46          47          48
    1   0.0187433   0.0115241   0.0027274   0.0012927   0.0012108   0.0001779
           49          50          51
    1   0.0000851   0.0000553   0.0000166
  
*** Unpaired Electrons
 Yamaguchi Nd:         4.08
 Head-Gordon Nu:       3.03
 Head-Gordon Nu_nl:    3.23
  
**************************************************
 RAS-CI total energy for state   7:  -1397.540024330807
  Excitation energy (eV) =  5.270508039661
  Warning: not all configurations have same symmetry
  State symmetry: *A     (C2       )
  <S^2>      :  0.7500
  Dipole Moment:    0.0000 X    -0.0000 Y     1.2412 Z
  Trans. Moment:   -0.0000 X    -0.0000 Y    -0.0034 Z
  Strength   :  0.000001
  Natural transition orbitals ( 1 -> 7 ):
   e-/hole pair  1 alpha:  ampl =  0.588543 ( 34.6%)   [10 : 11]
   e-/hole pair  2 alpha:  ampl =  0.374023 ( 14.0%)   [9 : 12]
   e-/hole pair  1 beta :  ampl =  0.290865 (  8.5%)   [10 : 11]
   e-/hole pair  2 beta :  ampl =  0.211314 (  4.5%)   [9 : 12]
   Sum of square amplitudes: 0.70

 NATURAL OCCUPATION NUMBERS (higher than 1.0E-05)
            1           2           3           4           5           6
    1   2.0000000   2.0000000   2.0000000   2.0000000   2.0000000   2.0000000
            7           8           9          10          11          12
    1   2.0000000   2.0000000   2.0000000   2.0000000   2.0000000   2.0000000
           13          14          15          16          17          18
    1   2.0000000   2.0000000   2.0000000   2.0000000   2.0000000   2.0000000
           19          20          21          22          23          24
    1   2.0000000   2.0000000   2.0000000   2.0000000   2.0000000   2.0000000
           25          26          27          28          29          30
    1   2.0000000   1.9999985   1.9999906   1.9999594   1.9999588   1.9998763
           31          32          33          34          35          36
    1   1.9998434   1.9996631   1.9995454   1.9994166   1.9990145   1.9986384
           37          38          39          40          41          42
    1   1.9789777   1.7285069   1.3243106   0.9259577   0.6509198   0.2956874
           43          44          45          46          47          48
    1   0.0895588   0.0044920   0.0021415   0.0018364   0.0013770   0.0001104
           49          50          51          52
    1   0.0000892   0.0000611   0.0000409   0.0000152
Natural Orbitals stored in FCHK

  Amplitudes : 
  
 | HOLE  | ALPHA      | BETA       | PART  |    AMPLITUDE 
--------------------------------------------------
 |       | 1111100000 | 1110010000 |       |     2.2061758531095E-01
 |       | 1111100000 | 1101001000 |       |    -2.9811545346794E-01
 |       | 1111010000 | 1110100000 |       |    -1.5908524808930E-01
 |       | 1111001000 | 1101100000 |       |     2.8347249246874E-01
 |       | 1111000100 | 1111000000 |       |     1.9583016991137E-01
 |       | 1110110000 | 1111000000 |       |    -3.7970283340197E-01
 |       | 1101110000 | 1111000000 |       |    -1.0662622855621E-01
 |       | 1101101000 | 1111000000 |       |     5.8158794593521E-01
 |       | 1101101000 | 1110001000 |       |     1.0171727341975E-01
 |       | 1101101000 | 1101010000 |       |     1.1713220218072E-01
 |       | 1111000000 | 1111000000 |  49   |     1.4369918099764E-01
 |       | 1101100000 | 1111000000 |  48   |     1.2265542799636E-01
--------------------------------------------------
*** Contributions RASCI wfn    Active:  87.35
                                 Hole:   1.67
                                 Part:  10.98

      Mulliken population analysis 
 ---------------------------------------------------
   Atom    Charge (a.u.)   Spin (a.u.)  
 ---------------------------------------------------
   1  V    1.317799        1.207324 
   2  O   -0.667593        0.001141 
   3  O   -0.658834        0.001496 
   4  O   -0.658834        0.001496 
   5  O   -0.667593        0.001141 
   6  O   -0.365683       -0.222573 
   7  H    0.446819        0.000567 
   8  H    0.434968        0.000867 
   9  H    0.451664        0.001594 
  10  H    0.431672        0.000031 
  11  H    0.446819        0.000567 
  12  H    0.434968        0.000867 
  13  H    0.451664        0.001594 
  14  H    0.431672        0.000031 
  15  O   -0.697603        0.002827 
  16  H    0.434047        0.000514 
  17  H    0.434047        0.000514 
 ---------------------------------------------------
   Sum:    2.000000        1.000000 
 ---------------------------------------------------
 
  
 NATURAL OCCUPATION NUMBERS (higher than 1.0E-05)
            1           2           3           4           5           6
    1   2.0000000   2.0000000   2.0000000   2.0000000   2.0000000   2.0000000
            7           8           9          10          11          12
    1   2.0000000   2.0000000   2.0000000   2.0000000   2.0000000   2.0000000
           13          14          15          16          17          18
    1   2.0000000   2.0000000   2.0000000   2.0000000   2.0000000   2.0000000
           19          20          21          22          23          24
    1   2.0000000   2.0000000   2.0000000   2.0000000   2.0000000   2.0000000
           25          26          27          28          29          30
    1   2.0000000   1.9999985   1.9999906   1.9999594   1.9999588   1.9998763
           31          32          33          34          35          36
    1   1.9998434   1.9996631   1.9995454   1.9994166   1.9990145   1.9986384
           37          38          39          40          41          42
    1   1.9789777   1.7285069   1.3243106   0.9259577   0.6509198   0.2956874
           43          44          45          46          47          48
    1   0.0895588   0.0044920   0.0021415   0.0018364   0.0013770   0.0001104
           49          50          51          52
    1   0.0000892   0.0000611   0.0000409   0.0000152
  
*** Unpaired Electrons
 Yamaguchi Nd:         3.98
 Head-Gordon Nu:       2.94
 Head-Gordon Nu_nl:    3.07
  
**************************************************
 RAS-CI total energy for state   8:  -1397.533319281286
  Excitation energy (eV) =  5.452961720094
  Warning: not all configurations have same symmetry
  State symmetry: *A     (C2       )
  <S^2>      :  0.7500
  Dipole Moment:    0.0000 X    -0.0000 Y     1.1181 Z
  Trans. Moment:   -0.0799 X     0.0272 Y    -0.0000 Z
  Strength   :  0.000952
  Natural transition orbitals ( 1 -> 8 ):
   e-/hole pair  1 alpha:  ampl =  0.693686 ( 48.1%)   [10 : 11]
   e-/hole pair  2 alpha:  ampl =  0.063315 (  0.4%)   [9 : 12]
   e-/hole pair  1 beta :  ampl =  0.290761 (  8.5%)   [10 : 11]
   e-/hole pair  2 beta :  ampl =  0.200562 (  4.0%)   [9 : 12]
   Sum of square amplitudes: 0.61

 NATURAL OCCUPATION NUMBERS (higher than 1.0E-05)
            1           2           3           4           5           6
    1   2.0000000   2.0000000   2.0000000   2.0000000   2.0000000   2.0000000
            7           8           9          10          11          12
    1   2.0000000   2.0000000   2.0000000   2.0000000   2.0000000   2.0000000
           13          14          15          16          17          18
    1   2.0000000   2.0000000   2.0000000   2.0000000   2.0000000   2.0000000
           19          20          21          22          23          24
    1   2.0000000   2.0000000   2.0000000   2.0000000   2.0000000   2.0000000
           25          26          27          28          29          30
    1   2.0000000   1.9999987   1.9999901   1.9999726   1.9999712   1.9999210
           31          32          33          34          35          36
    1   1.9998498   1.9998421   1.9996213   1.9995813   1.9987404   1.9978725
           37          38          39          40          41          42
    1   1.9879838   1.9243852   1.0731194   1.0410169   0.9258747   0.0306114
           43          44          45          46          47          48
    1   0.0116940   0.0050300   0.0024434   0.0013013   0.0008645   0.0001328
           49          50          51
    1   0.0000869   0.0000518   0.0000258
Natural Orbitals stored in FCHK

  Amplitudes : 
  
 | HOLE  | ALPHA      | BETA       | PART  |    AMPLITUDE 
--------------------------------------------------
 |       | 1111100000 | 1110100000 |       |     2.2275310055612E-01
 |       | 1111100000 | 1011010000 |       |    -3.0174136998669E-01
 |       | 1111010000 | 1011100000 |       |     4.0878708926619E-01
 |       | 1011110000 | 1111000000 |       |     7.1052845925124E-01
 |       | 1011110000 | 1110001000 |       |     1.0236603123504E-01
 |       | 1011110000 | 1101010000 |       |     1.3602407798314E-01
 |       | 1011100000 | 1111000000 |  47   |     1.0429997092580E-01
--------------------------------------------------
*** Contributions RASCI wfn    Active:  90.79
                                 Hole:   2.60
                                 Part:   6.61

      Mulliken population analysis 
 ---------------------------------------------------
   Atom    Charge (a.u.)   Spin (a.u.)  
 ---------------------------------------------------
   1  V    1.305842        1.148334 
   2  O   -0.667284        0.002269 
   3  O   -0.656489        0.000052 
   4  O   -0.656489        0.000052 
   5  O   -0.667284        0.002269 
   6  O   -0.371891       -0.161878 
   7  H    0.447559        0.000424 
   8  H    0.436650        0.000202 
   9  H    0.449161        0.003891 
  10  H    0.430545        0.000360 
  11  H    0.447559        0.000424 
  12  H    0.436650        0.000202 
  13  H    0.449161        0.003891 
  14  H    0.430545        0.000360 
  15  O   -0.691094        0.001848 
  16  H    0.438430       -0.001349 
  17  H    0.438430       -0.001349 
 ---------------------------------------------------
   Sum:    2.000000        1.000000 
 ---------------------------------------------------
 
  
 NATURAL OCCUPATION NUMBERS (higher than 1.0E-05)
            1           2           3           4           5           6
    1   2.0000000   2.0000000   2.0000000   2.0000000   2.0000000   2.0000000
            7           8           9          10          11          12
    1   2.0000000   2.0000000   2.0000000   2.0000000   2.0000000   2.0000000
           13          14          15          16          17          18
    1   2.0000000   2.0000000   2.0000000   2.0000000   2.0000000   2.0000000
           19          20          21          22          23          24
    1   2.0000000   2.0000000   2.0000000   2.0000000   2.0000000   2.0000000
           25          26          27          28          29          30
    1   2.0000000   1.9999987   1.9999901   1.9999726   1.9999712   1.9999210
           31          32          33          34          35          36
    1   1.9998498   1.9998421   1.9996213   1.9995813   1.9987404   1.9978725
           37          38          39          40          41          42
    1   1.9879838   1.9243852   1.0731194   1.0410169   0.9258747   0.0306114
           43          44          45          46          47          48
    1   0.0116940   0.0050300   0.0024434   0.0013013   0.0008645   0.0001328
           49          50          51
    1   0.0000869   0.0000518   0.0000258
  
*** Unpaired Electrons
 Yamaguchi Nd:         3.27
 Head-Gordon Nu:       2.96
 Head-Gordon Nu_nl:    3.00
  
**************************************************
 RAS-CI total energy for state   9:  -1397.529147364388
  Excitation energy (eV) =  5.566485354786
  State symmetry: A     (C2       )
  <S^2>      :  0.7500
  Dipole Moment:    0.0000 X    -0.0000 Y     1.1224 Z
  Trans. Moment:    0.0253 X     0.0784 Y     0.0000 Z
  Strength   :  0.000925
  Natural transition orbitals ( 1 -> 9 ):
   e-/hole pair  1 alpha:  ampl =  0.679843 ( 46.2%)   [10 : 11]
   e-/hole pair  2 alpha:  ampl =  0.058232 (  0.3%)   [9 : 12]
   e-/hole pair  1 beta :  ampl =  0.288159 (  8.3%)   [10 : 11]
   e-/hole pair  2 beta :  ampl =  0.243014 (  5.9%)   [9 : 12]
   Sum of square amplitudes: 0.61

 NATURAL OCCUPATION NUMBERS (higher than 1.0E-05)
            1           2           3           4           5           6
    1   2.0000000   2.0000000   2.0000000   2.0000000   2.0000000   2.0000000
            7           8           9          10          11          12
    1   2.0000000   2.0000000   2.0000000   2.0000000   2.0000000   2.0000000
           13          14          15          16          17          18
    1   2.0000000   2.0000000   2.0000000   2.0000000   2.0000000   2.0000000
           19          20          21          22          23          24
    1   2.0000000   2.0000000   2.0000000   2.0000000   2.0000000   2.0000000
           25          26          27          28          29          30
    1   2.0000000   1.9999986   1.9999924   1.9999735   1.9999474   1.9999292
           31          32          33          34          35          36
    1   1.9998723   1.9998352   1.9996364   1.9996271   1.9986585   1.9975354
           37          38          39          40          41          42
    1   1.9904597   1.8928770   1.0994078   1.0669264   0.8925686   0.0366417
           43          44          45          46          47          48
    1   0.0156306   0.0044771   0.0035934   0.0013250   0.0007693   0.0001406
           49          50          51
    1   0.0000877   0.0000584   0.0000124
Natural Orbitals stored in FCHK

  Amplitudes : 
  
 | HOLE  | ALPHA      | BETA       | PART  |    AMPLITUDE 
--------------------------------------------------
 |       | 1111100000 | 1101100000 |       |     2.7169921141019E-01
 |       | 1111100000 | 1011001000 |       |    -2.9565348617748E-01
 |       | 1111001000 | 1011100000 |       |     3.9179953991082E-01
 |       | 1011101000 | 1111000000 |       |     6.8745302608553E-01
 |       | 1011101000 | 1110001000 |       |     1.2073144000869E-01
 |       | 1011101000 | 1101010000 |       |     1.1139580852971E-01
[...]
   202    6.622446458786e-02
   203    9.242956702185e-01
   204   -9.927743207116e-03
   205   -4.748943300494e-03
   206    2.509770914954e-03
   207   -4.514364727077e-02
   208    5.038751723711e-02
   209   -1.764513059429e+00
   210   -1.667486724137e-04
   211    2.781099151218e-02
   212   -8.776634770868e-03
   213   -1.716466936222e-02
   214    1.335104583913e-02
   215   -4.496787104119e-01
   216   -6.794131296333e-03
   217   -5.277324571235e-03
   218   -6.457388792703e-03
   219   -1.109775005232e-02
   220    1.899682968540e-03
   221   -2.355290389924e-01
   222   -1.528347117680e-03
   223   -5.973478348270e-03
   224    6.320236885588e-03
   225    3.781512994719e-02
   226    6.622446457643e-02
   227    9.242956702926e-01
   228    9.927743210159e-03
   229    4.748943301711e-03
   230    2.509770915048e-03
   231   -4.514364725963e-02
   232    5.038751727827e-02
   233   -1.764513059403e+00
   234    1.667486741185e-04
   235   -2.781099151224e-02
   236   -8.776634769029e-03
   237   -1.716466938491e-02
   238    1.335104579665e-02
   239   -4.496787107477e-01
   240    6.794131300895e-03
   241    5.277324566817e-03
   242   -6.457388795370e-03
   243   -1.109775004216e-02
   244    1.899682998369e-03
   245   -2.355290388099e-01
   246    1.528347117541e-03
   247    5.973478347858e-03
   248    6.320236885881e-03
   249   -4.058885637998e-03
   250   -1.048899632748e-02
   251    2.240197463285e-02
   252   -3.298353157744e-03
   253    2.461802902574e-01
   254   -1.917669788156e-11
   255    8.610731051795e-12
   256    1.019629219057e-02
   257   -1.666063066588e-11
   258    7.462623184337e-12
   259    5.465193622482e-03
   260   -2.387473378718e-11
   261    3.682451218956e-11
   262    9.971533080904e-02
   263   -4.413608921122e-05
   264    9.685090186437e-13
   265    2.143608641286e-13
   266   -2.157383996772e-03
   267   -5.556288217611e-04
   268   -1.425636396042e-03
   269    4.081260069483e-12
   270   -1.323801311626e-12
   271   -6.858644165799e-03
   272   -5.429264748627e-03
   273   -1.926956586468e-05
   274    2.276453222975e-13
   275    8.309872972026e-14
   276   -4.676909772599e-04
   277   -3.231546894556e-04
   278   -2.984971211178e-14
   279   -1.922944225727e-13
   280   -1.314329063979e-03
   281    1.123650438106e-02
   282    4.178832679141e-02
   283   -8.278483462009e-03
   284    3.288800839299e-03
   285    1.397390977727e-03
   286   -1.314329058832e-03
   287    1.123650441224e-02
   288    4.178832679590e-02
   289    8.278483460723e-03
   290   -3.288800837316e-03
   291    1.397390978560e-03
Sym=X
Ene= 0.039392
Spin=Alpha
Occup=0
     1   -8.539701962876e-03
     2    3.045793337944e-02
     3   -6.725396310466e-02
     4   -1.351722895427e-01
     5    1.606390319404e+00
     6   -4.146828168454e+00
     7    2.312255205014e-13
     8   -6.370961700905e-15
     9   -1.110315250628e-02
    10   -6.851030159849e-13
    11    1.754298746201e-14
    12    3.417745837385e-02
    13   -9.190564975725e-14
    14   -1.408985775275e-14
    15   -4.637133510022e-03
    16    1.273287031367e-12
    17    4.134331765826e-13
    18    2.438707674735e-01
    19   -2.090471279885e-03
    20   -7.293457396189e-12
    21    9.256430257704e-14
    22    2.065425782053e-02
    23   -1.860725270811e-02
    24   -5.528935962928e-03
    25   -5.456018449534e-12
    26    7.110696580159e-14
    27    1.667968310230e-02
    28   -1.128933680688e-02
    29    1.116517516650e-01
    30   -4.830448541160e-12
    31    3.794013714309e-14
    32   -4.296274920051e-02
    33    2.701067846899e-02
    34    3.517634391513e+00
    35    9.071857848264e-13
    36    5.847058948127e-14
    37   -7.153833193523e-01
    38    2.235538356290e-01
    39    1.973139835828e-03
    40    2.053539630009e-13
    41   -2.656078482155e-15
    42   -4.405398576657e-04
    43   -1.148290559652e-03
    44    2.553946637507e-15
    45    3.222509065148e-14
    46    5.644980981270e-03
    47    1.176123700368e-02
    48    1.555986805228e-02
    49   -2.324645751527e-01
    50    5.914548037499e-01
    51    1.597243923218e-02
    52    4.025275115211e-02
    53    7.029917928746e-03
    54    3.700173708398e-02
    55    1.278645521359e-02
    56    8.076157019590e-03
    57   -2.185649362960e-01
    58    3.323271247471e-01
    59    1.618743876686e-01
    60    3.249644133778e-03
    61    8.130316644337e-04
    62   -1.781646171072e-04
    63    1.193049624933e-03
    64   -2.590221997694e-03
    65    1.427723501427e-03
    66    7.243465200998e-03
    67   -1.354045864130e-02
    68    5.921611527246e-03
    69   -1.632517588110e-02
    70   -9.327601391048e-07
    71    5.636264431755e-04
    72   -6.124726930910e-04
    73   -4.643027180285e-04
    74   -1.332043981723e-03
    75   -3.185524051214e-04
    76   -5.292979356460e-04
    77    5.670101158252e-03
    78    1.471637253656e-02
    79   -3.336855587302e-02
    80   -2.412770906236e-02
    81   -3.989353049336e-02
    82   -3.373573962960e-02
    83   -1.180833204590e-02
    84   -4.805499258889e-03
    85   -6.353385149028e-03
    86    1.285477383280e-02
    87   -3.869266345697e-03
    88   -1.289639966118e-01
    89   -1.105554821887e-01
    90    9.929345501558e-02
    91    2.819450783387e-03
    92   -7.172361637533e-06
    93   -1.811451580771e-04
    94   -1.771231234499e-03
    95    3.618790205633e-03
    96   -1.282833999102e-02
    97    3.618357062110e-03
    98    6.789825852741e-03
    99    3.341421261884e-03
   100    5.246628531567e-03
   101   -7.359471721276e-04
   102   -3.959887054271e-04
   103   -5.394894922617e-05
   104    3.860136103127e-04
   105   -2.282213176814e-04
   106    1.203495437758e-03
   107    4.293461162431e-04
   108    5.670101158106e-03
   109    1.471637253619e-02
   110   -3.336855587238e-02
   111   -2.412770906194e-02
   112   -3.989353048919e-02
   113    3.373573962957e-02
   114    1.180833204615e-02
   115   -4.805499259051e-03
   116    6.353385149073e-03
   117   -1.285477383255e-02
   118   -3.869266345841e-03
   119    1.289639966122e-01
   120    1.105554821887e-01
   121    9.929345501603e-02
   122    2.819450783407e-03
   123    7.172361635751e-06
   124    1.811451581023e-04
   125   -1.771231234461e-03
   126    3.618790205642e-03
   127   -1.282833999099e-02
   128   -3.618357062107e-03
   129   -6.789825852602e-03
   130    3.341421261972e-03
   131    5.246628531574e-03
   132   -7.359471721367e-04
   133    3.959887054286e-04
   134    5.394894923727e-05
   135    3.860136103021e-04
   136   -2.282213176805e-04
   137   -1.203495437761e-03
   138   -4.293461162343e-04
   139    5.644980981018e-03
   140    1.176123700304e-02
   141    1.555986805339e-02
   142   -2.324645751516e-01
   143    5.914548037552e-01
   144   -1.597243923168e-02
   145   -4.025275115219e-02
   146    7.029917928895e-03
   147   -3.700173708323e-02
   148   -1.278645521384e-02
   149    8.076157019677e-03
   150    2.185649362961e-01
   151   -3.323271247467e-01
   152    1.618743876708e-01
   153    3.249644133812e-03
   154   -8.130316643847e-04
   155    1.781646170534e-04
   156    1.193049624922e-03
   157   -2.590221997652e-03
   158    1.427723501416e-03
   159   -7.243465200736e-03
   160    1.354045864118e-02
   161    5.921611527227e-03
   162   -1.632517588097e-02
   163   -9.327601530268e-07
   164   -5.636264431623e-04
   165    6.124726930847e-04
   166   -4.643027180074e-04
   167   -1.332043981740e-03
   168    3.185524051145e-04
   169    5.292979356482e-04
   170    1.128151372967e-02
   171    3.136043139386e-02
   172   -9.480546929111e-02
   173    1.566364032424e-01
   174   -1.451564506595e+00
   175    2.892172531197e-12
   176   -5.199725199023e-14
   177   -3.078579750383e-02
   178    2.855652021273e-12
   179   -2.747346621035e-14
   180    4.934951149390e-02
   181    3.463764865208e-12
   182   -1.955727246816e-13
   183   -2.623772514660e-01
   184   -1.084964291460e-04
   185    8.500351030699e-14
   186   -2.978194947600e-15
   187   -1.486122301345e-03
   188    3.592778387211e-04
   189    1.362714980474e-04
   190    1.880873928828e-14
   191    7.806255641896e-15
   192    1.615322628505e-03
   193   -3.125040244173e-03
   194    3.101451986974e-04
   195   -1.427205792784e-14
   196    1.375581506341e-16
   197   -1.857375805075e-04
   198    2.393685206609e-04
   199    3.733721231497e-16
   200   -7.264696656739e-16
   201    7.720287611758e-03
   202   -1.652390697620e-01
   203    1.623317480309e+00
   204   -1.777307948312e-02
   205   -1.192717442505e-02
   206    6.629221455325e-03
   207   -4.571507663829e-03
   208   -1.473217737751e-01
   209    7.833070132978e-01
   210   -5.803600266936e-03
   211   -1.002280394053e-02
   212    9.044324666555e-03
   213    3.347262847406e-02
   214    1.773351356528e-02
   215    1.309485509183e+00
   216    9.039107650823e-03
   217   -7.385362567206e-03
   218    8.892297576947e-03
   219    1.626686228613e-02
   220    1.090555227864e-01
   221    6.883618043039e-01
   222    2.056889530305e-03
   223    4.408252098138e-03
   224   -1.671358154300e-03
   225    7.720287611779e-03
   226   -1.652390697620e-01
   227    1.623317480311e+00
   228    1.777307948317e-02
   229    1.192717442509e-02
   230    6.629221455359e-03
   231   -4.571507663452e-03
   232   -1.473217737737e-01
   233    7.833070133001e-01
   234    5.803600266990e-03
   235    1.002280394053e-02
   236    9.044324666563e-03
   237    3.347262847338e-02
   238    1.773351356348e-02
   239    1.309485509177e+00
   240   -9.039107650716e-03
   241    7.385362567132e-03
   242    8.892297576869e-03
   243    1.626686228631e-02
   244    1.090555227875e-01
   245    6.883618043034e-01
   246   -2.056889530260e-03
   247   -4.408252098210e-03
   248   -1.671358154186e-03
   249    1.229869267189e-02
   250    3.142718042255e-02
   251   -6.068166750934e-02
   252   -1.079235249168e-02
   253   -7.849616464226e-01
   254   -6.042963438674e-13
   255    2.818784160079e-13
   256   -3.371121830907e-02
   257   -6.188313750322e-13
   258    2.494757872507e-13
   259   -1.467873175221e-02
   260   -2.392816847441e-13
   261    6.085791592891e-13
   262   -2.698612868321e-01
   263    8.467506788071e-04
   264    2.982434178095e-14
   265    7.845015869562e-15
   266   -3.918101232274e-04
   267   -3.823786386300e-04
   268   -4.141507052612e-03
   269    1.801059301698e-13
   270   -8.371233393978e-15
   271    2.309102186883e-03
   272   -4.431825362356e-03
   273   -9.271114600436e-04
   274    8.757751468469e-15
   275   -5.516420653606e-16
   276   -1.294783074016e-04
   277    1.355245303203e-04
   278    2.407525134113e-15
   279   -4.583627314508e-15
   280    8.576917379441e-03
   281    3.576575370511e-02
   282   -3.892439309387e-01
   283   -1.803804855539e-03
   284    7.916708828353e-04
   285    5.062317812666e-04
   286    8.576917379646e-03
   287    3.576575370582e-02
   288   -3.892439309377e-01
   289    1.803804855438e-03
   290   -7.916708827941e-04
   291    5.062317812469e-04
Sym=X
Ene= 0.058187
Spin=Alpha
Occup=0
     1   -2.177939364672e-03
     2    9.016696434338e-03
     3   -1.495105674620e-02
     4   -5.715508605610e-02
     5    8.331180752579e-01
     6   -4.417383358404e-01
     7    1.153790713145e-12
     8   -3.140765642354e-14
     9    1.407178578375e-03
    10   -3.427935019173e-12
    11    6.625472739885e-14
    12   -3.624035660118e-03
    13   -3.607496246172e-13
    14    1.713872099796e-13
    15   -2.122198128790e-02
    16    5.235478717225e-12
    17   -3.962941086399e-13
    18    1.057555783905e+00
    19   -4.073004151423e-03
    20   -3.647468004714e-11
    21    4.120699007709e-13
    22    8.258035652551e-03
    23    1.823926809186e-02
    24   -1.385918389656e-02
    25   -2.729826716237e-11
    26    2.912644084252e-13
    27    1.672561367771e-02
    28   -1.849416551761e-04
    29    2.976556243755e-01
    30   -2.411427004259e-11
    31    2.867844850485e-13
    32   -5.025886464705e-02
    33    6.182539410007e-02
    34    6.475109595881e-01
    35    3.757133493210e-12
    36    1.159523865812e-12
    37    2.309004980926e+00
    38   -3.689464233252e+00
    39    1.808432582155e-03
    40    1.033806720785e-12
    41   -7.350240208148e-15
    42    4.161668287460e-03
    43   -7.629318523336e-03
    44    3.036503340437e-14
    45    1.617346664581e-13
    46    6.965852785760e-03
    47    1.710734242918e-02
    48   -1.855235206582e-02
    49   -6.123594931736e-02
    50   -4.970221867394e-01
    51    4.292489211688e-02
    52   -1.879897196971e-02
    53   -4.250515732677e-03
    54    1.569841357266e-02
    55    1.330949872013e-02
    56    4.317216971398e-03
    57    1.084351310371e-01
    58    1.562735227093e-02
    59   -2.108419108215e-01
    60    5.023009029314e-03
    61   -2.754242941041e-04
    62   -9.660938580134e-04
    63   -8.672456983965e-04
    64    1.770924423624e-04
    65   -4.299252191113e-03
    66   -1.331773539789e-02
    67    1.661672473238e-02
    68    4.348139847345e-03
    69    1.443868266360e-02
    70    2.200959093519e-04
    71   -1.278667608254e-03
    72    1.905142185317e-03
    73    8.227013075737e-04
    74    1.982926054880e-03
    75    1.089786406571e-03
    76   -3.028075967570e-06
    77   -6.516672736290e-04
    78   -3.589858436725e-03
    79    3.333848149621e-02
    80   -1.665620274250e-01
    81    8.758020935640e-01
    82   -1.596104871509e-03
    83   -1.626918325728e-02
    84    4.685007580045e-03
    85    1.307148466795e-02
    86    1.098969910286e-02
    87    8.289086947791e-03
    88   -8.625127662232e-02
    89   -3.372174863711e-01
    90   -4.379809420378e-03
    91   -2.472043186611e-03
    92   -6.144200596041e-04
    93    2.305974710455e-04
    94    6.386522184259e-04
    95   -4.922543720373e-04
    96   -1.926214700688e-02
    97    2.811297546659e-05
    98    2.778237238997e-03
    99    2.965243388272e-03
   100   -4.853489954213e-04
   101   -1.341613252105e-03
   102   -7.039496757161e-04
   103    1.825232451435e-04
   104    4.785531396366e-04
   105   -3.898820320470e-04
   106    1.186688094665e-03
   107    1.222333482826e-04
   108   -6.516672743721e-04
   109   -3.589858438590e-03
   110    3.333848149943e-02
   111   -1.665620274218e-01
   112    8.758020935801e-01
   113    1.596104871436e-03
   114    1.626918325852e-02
   115    4.685007579239e-03
   116   -1.307148466744e-02
   117   -1.098969910145e-02
   118    8.289086946964e-03
   119    8.625127662349e-02
   120    3.372174863706e-01
   121   -4.379809418736e-03
   122   -2.472043186530e-03
   123    6.144200595943e-04
   124   -2.305974709237e-04
   125    6.386522186222e-04
   126   -4.922543719903e-04
   127   -1.926214700658e-02
   128   -2.811297545551e-05
   129   -2.778237238197e-03
   130    2.965243388676e-03
   131   -4.853489953377e-04
   132   -1.341613252134e-03
   133    7.039496757180e-04
   134   -1.825232450880e-04
   135    4.785531395834e-04
   136   -3.898820320326e-04
   137   -1.186688094653e-03
   138   -1.222333482375e-04
   139    6.965852784495e-03
   140    1.710734242602e-02
   141   -1.855235206042e-02
   142   -6.123594931166e-02
   143   -4.970221867116e-01
   144   -4.292489211445e-02
   145    1.879897196933e-02
   146   -4.250515731888e-03
   147   -1.569841356923e-02
   148   -1.330949872119e-02
   149    4.317216971699e-03
   150   -1.084351310362e-01
   151   -1.562735226781e-02
   152   -2.108419108108e-01
   153    5.023009029468e-03
   154    2.754242943536e-04
   155    9.660938577468e-04
   156   -8.672456984534e-04
   157    1.770924425705e-04
   158   -4.299252190992e-03
   159    1.331773539921e-02
   160   -1.661672473307e-02
   161    4.348139847230e-03
   162    1.443868266417e-02
   163    2.200959092664e-04
   164    1.278667608304e-03
   165   -1.905142185314e-03
   166    8.227013076850e-04
   167    1.982926054794e-03
   168   -1.089786406591e-03
   169    3.028075981246e-06
   170    5.516677760458e-03
   171    1.560145029109e-02
   172   -5.256892359768e-02
   173    1.413871888956e-01
   174   -1.329826954453e+00
   175    1.452526467161e-11
   176   -2.828696478441e-13
   177   -1.416991830532e-02
   178    1.430669818725e-11
   179   -1.634525848004e-13
   180    2.965015740097e-02
   181    1.775094307654e-11
   182   -7.662256246155e-13
   183    3.005961048391e-01
   184    1.358230920794e-03
   185    4.279222917854e-13
   186   -7.711496372020e-15
   187    3.512996362083e-03
   188   -5.668564071185e-03
   189   -1.253751253950e-02
   190    7.197324333741e-14
   191    1.346665834401e-14
   192   -3.892592282805e-04
   193   -2.602565607260e-03
   194   -9.155407425712e-05
   195   -7.046034762592e-14
   196    2.316194653608e-16
   197   -2.578684606434e-04
   198    5.230939380588e-04
   199    1.018174260181e-15
   200   -4.173744683200e-15
   201    1.621046330952e-02
   202   -1.846322658537e-02
   203    1.142863314385e+00
   204   -1.085351047936e-02
   205    4.959882719150e-04
   206   -5.196659637096e-03
   207    1.368696325490e-02
   208    2.587046267990e-02
   209    1.040406998942e+00
   210    6.884447974546e-03
   211   -5.986478272457e-03
   212   -3.993504380616e-03
   213   -5.537947606832e-03
   214    2.701279616738e-01
   215   -1.339571408798e+00
   216   -2.049000437670e-02
   217    2.430884552243e-02
   218   -6.806028812788e-03
   219    2.151339027735e-02
   220    1.404226293766e-01
   221   -9.212871552686e-01
   222   -9.100619329151e-04
   223    6.671602584635e-03
   224    2.252665214831e-03
   225    1.621046330962e-02
   226   -1.846322658649e-02
   227    1.142863314394e+00
   228    1.085351047977e-02
   229   -4.959882717409e-04
   230   -5.196659636915e-03
   231    1.368696325682e-02
   232    2.587046268585e-02
   233    1.040406998954e+00
   234   -6.884447974368e-03
   235    5.986478272630e-03
   236   -3.993504380498e-03
   237   -5.537947610237e-03
   238    2.701279616636e-01
   239   -1.339571408830e+00
   240    2.049000437717e-02
   241   -2.430884552275e-02
   242   -6.806028813055e-03
   243    2.151339027824e-02
   244    1.404226293807e-01
   245   -9.212871552699e-01
   246    9.100619330763e-04
   247   -6.671602584878e-03
   248    2.252665215130e-03
   249    1.163692444046e-04
   250    1.361319760416e-03
   251   -2.122346679118e-02
   252    6.463223400953e-02
   253   -3.065080577449e-02
   254   -3.086101686700e-12
   255    1.372823946535e-12
   256    8.249966159827e-04
   257   -3.086284700027e-12
   258    1.367174602696e-12
   259   -1.513755910978e-02
   260   -9.059732131167e-13
   261    3.828548589269e-12
   262   -1.106930103866e-01
   263    1.508458832055e-03
   264    1.557115439192e-13
   265    4.816763307658e-14
   266    3.415558775280e-03
   267   -4.971811739078e-03
   268    1.202009812991e-03
   269    8.354185670068e-13
   270   -1.583117317794e-13
   271   -4.496987263927e-03
   272    8.199564537180e-03
   273    3.313338104420e-04
   274    4.778480128947e-14
   275    6.930762387614e-15
   276    1.190241893350e-03
   277   -1.452254438311e-03
   278    5.228022875725e-16
   279   -2.574275428241e-14
   280   -1.328971544787e-02
   281   -1.985163968511e-01
   282    1.649366102179e-01
   283    3.092633256486e-03
   284    4.730196337176e-03
   285   -1.460990480583e-02
   286   -1.328971544683e-02
   287   -1.985163968463e-01
   288    1.649366102219e-01
   289   -3.092633256916e-03
   290   -4.730196336805e-03
   291   -1.460990480577e-02
[5D7F]

======= END OF MOLDEN-FORMATTED INPUT FILE =======


        *************************************************************
        *                                                           *
        *  Thank you very much for using Q-Chem.  Have a nice day.  *
        *                                                           *
        *************************************************************


