                  Welcome to Q-Chem
     A Quantum Leap Into The Future Of Chemistry


 Q-Chem 6.0 (devel), Q-Chem, Inc., Pleasanton, CA (2022)

 E. Epifanovsky,  A. T. B. Gilbert,  Xintian Feng,  Joonho Lee,  Yuezhi Mao,  
 N. Mardirossian,  P. Pokhilko,  A. White,  M. Wormit,  M. P. Coons,  
 A. L. Dempwolff,  Zhengting Gan,  D. Hait,  P. R. Horn,  L. D. Jacobson,  
 I. Kaliman,  J. Kussmann,  A. W. Lange,  Ka Un Lao,  D. S. Levine,  Jie Liu,  
 S. C. McKenzie,  A. F. Morrison,  K. Nanda,  F. Plasser,  D. R. Rehn,  
 M. L. Vidal,  Zhi-Qiang You,  Ying Zhu,  B. Alam,  B. Albrecht,  
 A. Aldossary,  E. Alguire,  J. H. Andersen,  V. Athavale,  D. Barton,  
 K. Begam,  A. Behn,  N. Bellonzi,  Y. A. Bernard,  E. J. Berquist,  
 H. Burton,  A. Carreras,  K. Carter-Fenk,  Romit Chakraborty,  
 Chandrima Chakravarty,  Junhan Chen,  A. D. Chien,  K. D. Closser,  
 V. Cofer-Shabica,  L. Cunha,  S. Dasgupta,  Jia Deng,  M. de Wergifosse,  
 M. Diedenhofen,  Hainam Do,  S. Ehlert,  Po-Tung Fang,  S. Fatehi,  
 Qingguo Feng,  T. Friedhoff,  B. Ganoe,  J. Gayvert,  Qinghui Ge,  
 G. Gidofalvi,  M. Goldey,  J. Gomes,  C. Gonzalez-Espinoza,  S. Gulania,  
 A. Gunina,  J. A. Gyamfi,  M. W. D. Hanson-Heine,  P. H. P. Harbach,  
 A. W. Hauser,  M. F. Herbst,  M. Hernandez Vera,  M. Hodecker,  
 Z. C. Holden,  S. Houck,  Xunkun Huang,  Kerwin Hui,  B. C. Huynh,  
 K. Ikeda,  M. Ivanov,  Hyunjun Ji,  Zuxin Jin,  Hanjie Jiang,  B. Kaduk,  
 S. Kaehler,  R. Kang,  K. Khistyaev,  Jaehoon Kim,  Yongbin Kim,  
 P. Klunzinger,  Z. Koczor-Benda,  Joong Hoon Koh,  D. Kosenkov,  
 Saikiran Kotaru,  L. Koulias,  T. Kowalczyk,  C. M. Krauter,  K. Kue,  
 A. Kunitsa,  T. Kus,  A. Landau,  K. V. Lawler,  D. Lefrancois,  S. Lehtola,  
 Rain Li,  Shaozhi Li,  Yi-Pei Li,  Jiashu Liang,  M. Liebenthal,  
 Hung-Hsuan Lin,  You-Sheng Lin,  Fenglai Liu,  Kuan-Yu Liu,  
 M. Loipersberger,  A. Luenser,  C. Malbon,  A. Manjanath,  P. Manohar,  
 E. Mansoor,  S. F. Manzer,  Shan-Ping Mao,  A. V. Marenich,  T. Markovich,  
 S. Mason,  F. Matz,  S. A. Maurer,  P. F. McLaughlin,  M. F. S. J. Menger,  
 J.-M. Mewes,  S. A. Mewes,  P. Morgante,  Mohammad Mostafanejad,  
 J. W. Mullinax,  K. J. Oosterbaan,  G. Paran,  V. Parravicini,  
 Alexander C. Paul,  Suranjan K. Paul,  F. Pavosevic,  Zheng Pei,  S. Prager,  
 E. I. Proynov,  E. Ramos,  B. Rana,  A. E. Rask,  A. Rettig,  R. M. Richard,  
 F. Rob,  E. Rossomme,  T. Scheele,  M. Scheurer,  M. Schneider,  
 P. E. Schneider,  N. Sergueev,  S. M. Sharada,  Hengyuan Shen,  
 W. Skomorowski,  D. W. Small,  C. J. Stein,  Yingli Su,  Yu-Chuan Su,  
 E. J. Sundstrom,  Zhen Tao,  J. Thirman,  Hung-Yi Tsai,  T. Tsuchimochi,  
 N. M. Tubman,  C. Utku,  S. P. Veccham,  O. Vydrov,  J. Wenzel,  
 Jonathan Wong,  J. Witte,  A. Yamada,  Chou-Hsun Yang,  Kun Yao,  
 S. Yeganeh,  S. R. Yost,  A. Zech,  F. Zeller,  Igor Ying Zhang,  
 Xing Zhang,  Yu Zhang,  D. Zuev,  A. Aspuru-Guzik,  A. T. Bell,  
 N. A. Besley,  K. B. Bravaya,  B. R. Brooks,  D. Casanova,  Jeng-Da Chai,  
 Hsing-Ta Chen,  S. Coriani,  C. J. Cramer,  A. E. DePrince, III,  
 R. A. DiStasio Jr.,  A. Dreuw,  B. D. Dunietz,  T. R. Furlani,  
 W. A. Goddard III,  S. Grimme,  S. Hammes-Schiffer,  T. Head-Gordon,  
 W. J. Hehre,  Chao-Ping Hsu,  T.-C. Jagau,  Yousung Jung,  A. Klamt,  
 Jing Kong,  D. S. Lambrecht,  Xiangyuan Li,  WanZhen Liang,  N. J. Mayhall,  
 C. W. McCurdy,  J. B. Neaton,  T. Neudecker,  C. Ochsenfeld,  
 J. A. Parkhill,  R. Peverati,  V. A. Rassolov,  Haisheng Ren,  Yihan Shao,  
 L. V. Slipchenko,  R. P. Steele,  J. E. Subotnik,  A. J. W. Thom,  
 A. Tkatchenko,  D. G. Truhlar,  T. Van Voorhis,  Fan Wang,  
 T. A. Wesolowski,  K. B. Whaley,  H. L. Woodcock III,  P. M. Zimmerman,  
 S. Faraji,  P. M. W. Gill,  M. Head-Gordon,  J. M. Herbert,  A. I. Krylov

 Contributors to earlier versions of Q-Chem not listed above: 
 R. D. Adamson,  B. Austin,  R. Baer,  J. Baker,  G. J. O. Beran,  
 K. Brandhorst,  S. T. Brown,  E. F. C. Byrd,  Arup K. Chakraborty,  
 G. K. L. Chan,  Chun-Min Chang,  Yunqing Chen,  C.-L. Cheng,  
 Siu Hung Chien,  D. M. Chipman,  D. L. Crittenden,  H. Dachsel,  
 R. J. Doerksen,  A. D. Dutoi,  R. G. Edgar,  J. Fosso-Tande,  
 L. Fusti-Molnar,  D. Ghosh,  A. Ghysels,  A. Golubeva-Zadorozhnaya,  
 J. Gonthier,  M. S. Gordon,  S. R. Gwaltney,  G. Hawkins,  J. E. Herr,  
 A. Heyden,  S. Hirata,  E. G. Hohenstein,  G. Kedziora,  F. J. Keil,  
 C. Kelley,  Jihan Kim,  R. A. King,  R. Z. Khaliullin,  P. P. Korambath,  
 W. Kurlancheek,  A. Laurent,  A. M. Lee,  M. S. Lee,  S. V. Levchenko,  
 Ching Yeh Lin,  D. Liotard,  E. Livshits,  R. C. Lochan,  I. Lotan,  
 L. A. Martinez-Martinez,  P. E. Maslen,  N. Nair,  D. P. O'Neill,  
 D. Neuhauser,  E. Neuscamman,  C. M. Oana,  R. Olivares-Amaya,  R. Olson,  
 T. M. Perrine,  B. Peters,  P. A. Pieniazek,  A. Prociuk,  Y. M. Rhee,  
 J. Ritchie,  M. A. Rohrdanz,  E. Rosta,  N. J. Russ,  H. F. Schaefer III,  
 M. W. Schmidt,  N. E. Schultz,  S. Sharma,  N. Shenvi,  C. D. Sherrill,  
 A. C. Simmonett,  A. Sodt,  T. Stein,  D. Stuck,  K. S. Thanthiriwatte,  
 V. Vanovschi,  L. Vogt,  Tao Wang,  A. Warshel,  M. A. Watson,  
 C. F. Williams,  Q. Wu,  X. Xu,  Jun Yang,  W. Zhang,  Yan Zhao

   Please cite Q-Chem as follows:
  "Software for the frontiers of quantum chemistry:
   An overview of developments in the Q-Chem 5 package"
   J. Chem. Phys. 155, 084801 (2021)
   https://doi.org/10.1063/5.0055522 (open access)

 Q-Chem 6.0.1 for Intel X86 EM64T Linux

 Parts of Q-Chem use Armadillo 9.900.5 (Nocturnal Misbehaviour).
 http://arma.sourceforge.net/

 Q-Chem begins on Thu Sep  5 17:05:30 2024  

 Host: hyperion-073
0

     Scratch files written to ./qchem1567232//
 Processing $rem in /scratch/abel/SOFTWARE/qchem/config/preferences:
 Processing $rem in /home/acebg/.qchemrc:

 Checking the input file for inconsistencies... 	...done.

--------------------------------------------------------------
User input:
--------------------------------------------------------------
$comment
 RAS-SF CALCULATION
$end

$molecule
READ nbr.molecule
$end

$rem
!**CALCULATION TYPE***     
JOBTYPE            sp    
EXCHANGE           HF
CORRELATION        RASCI    !RASCI=Casanova; RASCI2=Zimmerman
BASIS              def2-TZVP
!BASIS2             STO-3G

!***SCF REFERENCE***
!SKIP_SCFMAN        FALSE
UNRESTRICTED       FALSE
!SCF_GUESS          core
!SCF_GUESS_MIX      FALSE
!SCF_GUESS_ALWAYS   FALSE
MAX_SCF_CYCLES     500
!SCF_CONVERGENCE    10
SCF_ALGORITHM      DIIS_GDM !DIIS,DM,DIIS_DM,GDM,DIIS_GDM,GD

!SYMMETRY           TRUE   !use of symmetry for calculating integrals
!SYM_IGNORE         FALSE  !turn off using symmetry
!SYM_TOL            5      !tolerance for determining point group
!USE_ABELIAN_SUBGROUP      !define to use abelian group

!THRESH             14
!SCF_FINAL_PRINT     1 !0,1,2,3

!****RAS-SF****
RAS_ROOTS          30       !number of RAS-CI roots to be computed
SET_ITER           100     !number of iterations in RASCI
RAS_ELEC 4
RAS_ELEC_ALPHA 3
RAS_ELEC_BETA 1

RAS_ACT 3
RAS_ACT_ORB [18, 21, 22]
RAS_OCC 19
!N_FROZEN_CORE      FC     !Number of frozen core orbitals
!N_FROZEN_VIRTUAL   0      !Number of frozen virtual orbitals

!RAS_DO_HOLE        TRUE   !presence of hole excitations in RAS-CI wave function
!RAS_DO_PART        TRUE   !presence of particle excitations
!RAS_AMPL_PRINT     10     !threshold (×10 2 ) for the CI amplitudes

!RAS_GUESS_CS       0      !number of closed shell guess conﬁgurations
!RAS_SPIN_MULT      0      !spin multiplicity. Only for Ms = 0 
!RAS_SRDFT          FALSE  !short-range density functional RAS-CI
!RAS_NFRAG          0     !fragments of excitation analysis in RASCI

RAS_PRINT          2      !level of information
!RAS_NATORB         TRUE   !computation of the natural orbital occupancies
!RAS_NATORB_STATE  0      !Saves NO of i RAS computed state in .fchk ﬁle
!RAS_FOD            TRUE

!****RAS-SOC****
CALC_SOC           TRUE   !calculate SOC for EOM-CC, RAS-CI, ADC, TDDFT/TDA and TDDFT
!RAS_SOC_2E        TRUE   !two-electron mean-ﬁeld contribution, default=true
RAS_SOC_SYM_DENS   TRUE   !averaging of α and β densities

!****MEMORY****
MEM_TOTAL          50000 !Default 2000 MB
MEM_STATIC         2000  !Default 64 MB

!**Molecular Properties and Analysis **                                                                                          
GUI                0       !Checkpoints generation
STATE_ANALYSIS     TRUE
$end
--------------------------------------------------------------
 ----------------------------------------------------------------
             Standard Nuclear Orientation (Angstroms)
    I     Atom           X                Y                Z
 ----------------------------------------------------------------
    1      N       0.0000000000     0.0000000000    -1.4891666667
    2      Br      0.0000000000     0.0000000000     0.2978333333
 ----------------------------------------------------------------
 Molecular Point Group                 C2v   NOp =  4
 Largest Abelian Subgroup              C2v   NOp =  4
 Nuclear Repulsion Energy =          72.55087669 hartrees
 There are       22 alpha and       20 beta electrons
 Requested basis set is def2-TZVP
 There are 27 shells and 79 basis functions

 Total QAlloc Memory Limit  50000 MB
 Mega-Array Size      1956 MB
 MEM_STATIC part      2000 MB


                       Distance Matrix (Angstroms)
             N (  1)
   Br(  2)  1.787000
 
 A cutoff of  1.0D-09 yielded    370 shell pairs
 There are      3270 function pairs (      4373 Cartesian)
 Smallest overlap matrix eigenvalue = 5.53E-03

 Scale SEOQF with 1.000000e+00/1.000000e+00/1.000000e-01

 Standard Electronic Orientation quadrupole field applied
 Nucleus-field energy     =    -0.0000000020 hartrees
 Guess from superposition of atomic densities
 Warning:  Energy on first SCF cycle will be non-variational
 SAD guess density has 42.000000 electrons

 -----------------------------------------------------------------------
  General SCF calculation program by
  Eric Jon Sundstrom, Paul Horn, Yuezhi Mao, Dmitri Zuev, Alec White,
  David Stuck, Shaama M.S., Shane Yost, Joonho Lee, David Small,
  Daniel Levine, Susi Lehtola, Hugh Burton, Evgeny Epifanovsky,
  Bang C. Huynh
 -----------------------------------------------------------------------
 Hartree-Fock
 Orthonormalizing orbitals
 A restricted open-shell SCF calculation will be
 performed using DIIS, GDM
 SCF converges when RMS gradient is below 1.0e-05
 ---------------------------------------
  Cycle       Energy         DIIS error
 ---------------------------------------
    1   -2625.6267966184      1.01e-01  
    2   -2626.3175877124      7.07e-02  
    3   -2626.6743911226      2.57e-02  
    4   -2626.7583748304      1.12e-02  
    5   -2626.7823408924      4.00e-03  Done DIIS. Switching to GDM
 ---------------------------------------
  Cycle       Energy        RMS Gradient
 ---------------------------------------
    1   -2626.7823408924      6.25e-02   Normal BFGS step
    2   -2626.7914382359      8.48e-02   Normal BFGS step
    3   -2626.7957273724      2.35e-02   Normal BFGS step
    4   -2626.7964610461      6.30e-03   Normal BFGS step
    5   -2626.7965156267      2.08e-03   Normal BFGS step
    6   -2626.7965234575      2.80e-04   Normal BFGS step
    7   -2626.7965237192      1.14e-04   Normal BFGS step
    8   -2626.7965237591      2.72e-05   Normal BFGS step
    9   -2626.7965237899      8.06e-06  Convergence criterion met
The disked orbital energies are calculated using alpha and beta Focks
 ---------------------------------------
 SCF time:   CPU 4.46s  wall 5.00s 
<S^2> =          2.000000000
 SCF   energy in the final basis set =    -2626.7965237899
 Total energy in the final basis set =    -2626.7965237899
  
     ##========================================##
     ||                                        ||
     ||              R A S M A N 2             ||
     ||________________________________________||
     ||                                        ||
     ||  Author:                               ||
     ||                                        ||
     ||        David Casanova (2010)           ||
     ||                                        ||
     ##========================================##
  
Setting single-point xc-functionals (if necessary)

  ***************************************************
  *  RAS-CI Dimensions:                             *
  *                                                 *
  *  Active Elec.:   4 ( 3, 1)   Active Orb.:   3   *
  *  Doubly Occ. :  19           Doubly Vir.:  57   *
  *  Frozen Occ. :   0           Frozen Vir.:   0   *
  *                                                 *
  *  Total CI configurations:       630             * 
  *    Active configurations:         3             * 
  *      Hole configurations:        57             * 
  *  Particle configurations:       570             * 
  *                                                 *
  *   Requested states:       30                    *
  *  Spin multiplicity: Any multiplicity            *
  *                                                 *
  ***************************************************
-----------------------------------------
    Memory requirements of RASCI

 Each CI-vector requires      0.00 MiB 
 Max. subspace vectors            630      

 Reduced Lists                0.00 MiB 
 Excitation Lists             0.00 MiB 
 Excitation Lists Sign        0.00 MiB 
 CI-space (Max)               6.21 MiB 
 Integrals                    1.21 MiB 
 Memory required (Max)        6.21 MiB 
 Memory available          1907.35 MiB 

    Disk requirements of RASCI

 Fock matrix                  0.10 MiB 
 2-electron integrals         1.17 MiB 
 CI-space                     6.06 MiB 
 Disk required                7.32 MiB 
-----------------------------------------
  
RAS1 HF-like energy:          -2621.7837420543
 Computing integrals
 Computing J and K matrices
 Computing addressing
 Making amplitude guesses
 
Direct CI diagonalization
 ---------------------------------------------------
 Iter    Rts Conv    Rts Left    Ttl Dev     Max Dev
 ---------------------------------------------------
   1         0          30      0.142031    0.009466
   2         0          30      0.150124    0.015086
   3         0          30      0.097962    0.011134
   4         0          30      0.080415    0.012980
   5         0          30      0.052544    0.006246
   6         0          30      0.045538    0.007343
   7         0          30      0.054891    0.010652
   8         0          30      0.024399    0.007372
   9         2          28      0.014950    0.005579
  10         3          27      0.013857    0.007430
  11         8          22      0.009363    0.004851
  12        11          19      0.008489    0.003312
  13        16          14      0.005930    0.002958
  14        22           8      0.002650    0.001171
  15        22           8      0.001763    0.000820
  16        26           4      0.000618    0.000308
  17        27           3      0.000357    0.000284
  18        27           3      0.000171    0.000150
  19        28           2      0.000085    0.000078
  20        29           1      0.000056    0.000051
  21        29           1      0.000036    0.000031
  22        29           1      0.000037    0.000032
  23        29           1      0.000023    0.000018
  24        29           1      0.000021    0.000017
  25        29           1      0.000012    0.000007
  26        29           1      0.000008    0.000004
  27        29           1      0.000007    0.000002
  28        29           1      0.000006    0.000001
  29        30           0      0.000005    0.000001    Roots Converged
 ---------------------------------------------------
   
**************************************************
 RAS-CI total energy for state   1:  -2626.801288473293
  Excitation energy (eV) =  0.000000000000
  State symmetry: A2    (C2v      )
  <S^2>      :  2.0000
  Dipole Moment:   -0.0000 X     0.0000 Y    -0.2427 Z
 NATURAL OCCUPATION NUMBERS (higher than 1.0E-05)
            1           2           3           4           5           6
    1   2.0000000   2.0000000   2.0000000   2.0000000   2.0000000   2.0000000
            7           8           9          10          11          12
    1   2.0000000   2.0000000   2.0000000   2.0000000   2.0000000   2.0000000
           13          14          15          16          17          18
    1   2.0000000   2.0000000   2.0000000   2.0000000   2.0000000   2.0000000
           19          20          21          22          23          24
    1   2.0000000   1.9952031   1.0002040   1.0002040   0.0029695   0.0005057
           25          26          27
    1   0.0005057   0.0002040   0.0002040

 Head-Gordon Nu:    2.01
 Head-Gordon Nu_nl: 2.00
 Created directory ./qchem1567232/plots

  Amplitudes : 
  
 | HOLE  | ALPHA | BETA  | PART  |    AMPLITUDE 
--------------------------------------------------
 |       | 111   | 100   |       |     9.9779500957774E-01
--------------------------------------------------
*** Contributions RASCI wfn    Active:  99.56
                                 Hole:   0.00
                                 Part:   0.44

      Mulliken population analysis 
 ---------------------------------------------------
   Atom    Charge (a.u.)   Spin (a.u.)  
 ---------------------------------------------------
   1  N   -0.050375        1.914444 
   2 Br    0.050375        0.085556 
 ---------------------------------------------------
   Sum:    0.000000        2.000000 
 ---------------------------------------------------
 
*** Unpaired Electrons
 Yamaguchi Nd:         2.02
  
**************************************************
 RAS-CI total energy for state   2:  -2626.641566199251
  Excitation energy (eV) =  4.346264207720
  State symmetry: B1    (C2v      )
  <S^2>      :  2.0000
  Dipole Moment:   -0.0000 X     0.0000 Y    -0.2607 Z
  Trans. Moment:   -0.0017 X    -0.1659 Y    -0.0000 Z
  Strength   :  0.002931
  Natural transition orbitals ( 1 -> 2 ):
   e-/hole pair  1 alpha:  ampl =  0.055811 (  0.3%)   [3 : 4]
   e-/hole pair  2 alpha:  ampl =  0.030503 (  0.1%)   [2 : 5]
   e-/hole pair  1 beta :  ampl =  0.988112 ( 97.6%)   [3 : 4]
   e-/hole pair  2 beta :  ampl =  0.023440 (  0.1%)   [2 : 5]
   Sum of square amplitudes: 0.98

 NATURAL OCCUPATION NUMBERS (higher than 1.0E-05)
            1           2           3           4           5           6
    1   2.0000000   2.0000000   2.0000000   2.0000000   2.0000000   2.0000000
            7           8           9          10          11          12
    1   2.0000000   2.0000000   2.0000000   2.0000000   2.0000000   2.0000000
           13          14          15          16          17          18
    1   2.0000000   2.0000000   2.0000000   2.0000000   2.0000000   1.9998876
           19          20          21          22          23          24
    1   1.9987984   1.9890637   1.0048195   0.9994585   0.0032524   0.0028132
           25          26          27          28          29          30
    1   0.0008865   0.0004277   0.0003592   0.0001509   0.0000514   0.0000208
           31
    1   0.0000103

 Head-Gordon Nu:    2.01
 Head-Gordon Nu_nl: 2.00

  Amplitudes : 
  
 | HOLE  | ALPHA | BETA  | PART  |    AMPLITUDE 
--------------------------------------------------
 |       | 111   | 001   |       |     9.6271810740355E-01
 |  17   | 111   | 101   |       |     2.0651599780374E-01
 |       | 111   | 000   |  32   |     1.0771588592149E-01
--------------------------------------------------
*** Contributions RASCI wfn    Active:  92.69
                                 Hole:   4.43
                                 Part:   2.87

      Mulliken population analysis 
 ---------------------------------------------------
   Atom    Charge (a.u.)   Spin (a.u.)  
 ---------------------------------------------------
   1  N   -0.194065        1.608011 
   2 Br    0.194065        0.391989 
 ---------------------------------------------------
   Sum:    0.000000        2.000000 
 ---------------------------------------------------
 
*** Unpaired Electrons
 Yamaguchi Nd:         2.04
  
**************************************************
 RAS-CI total energy for state   3:  -2626.641566176401
  Excitation energy (eV) =  4.346264829476
  State symmetry: B2    (C2v      )
  <S^2>      :  2.0000
  Dipole Moment:    0.0000 X     0.0000 Y    -0.2607 Z
  Trans. Moment:   -0.1659 X     0.0017 Y    -0.0000 Z
  Strength   :  0.002931
  Natural transition orbitals ( 1 -> 3 ):
   e-/hole pair  1 alpha:  ampl =  0.055811 (  0.3%)   [3 : 4]
   e-/hole pair  2 alpha:  ampl =  0.030503 (  0.1%)   [2 : 5]
   e-/hole pair  1 beta :  ampl =  0.988112 ( 97.6%)   [3 : 4]
   e-/hole pair  2 beta :  ampl =  0.023440 (  0.1%)   [2 : 5]
   Sum of square amplitudes: 0.98

 NATURAL OCCUPATION NUMBERS (higher than 1.0E-05)
            1           2           3           4           5           6
    1   2.0000000   2.0000000   2.0000000   2.0000000   2.0000000   2.0000000
            7           8           9          10          11          12
    1   2.0000000   2.0000000   2.0000000   2.0000000   2.0000000   2.0000000
           13          14          15          16          17          18
    1   2.0000000   2.0000000   2.0000000   2.0000000   2.0000000   1.9998876
           19          20          21          22          23          24
    1   1.9987984   1.9890637   1.0048195   0.9994584   0.0032524   0.0028131
           25          26          27          28          29          30
    1   0.0008865   0.0004277   0.0003592   0.0001509   0.0000514   0.0000208
           31
    1   0.0000103

 Head-Gordon Nu:    2.01
 Head-Gordon Nu_nl: 2.00

  Amplitudes : 
  
 | HOLE  | ALPHA | BETA  | PART  |    AMPLITUDE 
--------------------------------------------------
 |       | 111   | 010   |       |     9.6271828280965E-01
 |  17   | 111   | 110   |       |     2.0651608489995E-01
 |       | 111   | 000   |  31   |    -1.0771434753972E-01
--------------------------------------------------
*** Contributions RASCI wfn    Active:  92.69
                                 Hole:   4.43
                                 Part:   2.87

      Mulliken population analysis 
 ---------------------------------------------------
   Atom    Charge (a.u.)   Spin (a.u.)  
 ---------------------------------------------------
   1  N   -0.194065        1.608012 
   2 Br    0.194065        0.391988 
 ---------------------------------------------------
   Sum:    0.000000        2.000000 
 ---------------------------------------------------
 
*** Unpaired Electrons
 Yamaguchi Nd:         2.04
  
**************************************************
 RAS-CI total energy for state   4:  -2626.578582126540
  Excitation energy (eV) =  6.060148025855
  State symmetry: A2    (C2v      )
  <S^2>      :  6.0000
  Dipole Moment:    0.0000 X    -0.0000 Y     0.7304 Z
  Trans. Moment:    0.0000 X     0.0000 Y    -0.0000 Z
  Strength   :  0.000000
  Natural transition orbitals ( 1 -> 4 ):
   e-/hole pair  1 alpha:  ampl =  0.499183 ( 24.9%)   [3 : 4]
   e-/hole pair  2 alpha:  ampl =  0.010285 (  0.0%)   [2 : 5]
   e-/hole pair  1 beta :  ampl =  0.499183 ( 24.9%)   [3 : 4]
   e-/hole pair  2 beta :  ampl =  0.010285 (  0.0%)   [2 : 5]
   Sum of square amplitudes: 0.50

 NATURAL OCCUPATION NUMBERS (higher than 1.0E-05)
            1           2           3           4           5           6
    1   2.0000000   2.0000000   2.0000000   2.0000000   2.0000000   2.0000000
            7           8           9          10          11          12
    1   2.0000000   2.0000000   2.0000000   2.0000000   2.0000000   2.0000000
           13          14          15          16          17          18
    1   2.0000000   2.0000000   2.0000000   2.0000000   2.0000000   2.0000000
           19          20          21          22          23
    1   2.0000000   1.0000000   1.0000000   1.0000000   1.0000000

 Head-Gordon Nu:    4.00
 Head-Gordon Nu_nl: 4.00

  Amplitudes : 
  
 | HOLE  | ALPHA | BETA  | PART  |    AMPLITUDE 
--------------------------------------------------
 |       | 011   | 100   |  23   |    -4.7359460894884E-01
 |       | 011   | 100   |  27   |    -1.0608162259148E-01
 |       | 101   | 010   |  23   |     4.7359460896767E-01
 |       | 101   | 010   |  27   |     1.0608162223184E-01
 |       | 110   | 001   |  23   |    -4.7359460898342E-01
 |       | 110   | 001   |  27   |    -1.0608162200316E-01
 |       | 111   | 000   |  23   |     4.7359460898363E-01
 |       | 111   | 000   |  27   |     1.0608162227499E-01
--------------------------------------------------
*** Contributions RASCI wfn    Active:   0.00
                                 Hole:   0.00
                                 Part: 100.00

      Mulliken population analysis 
 ---------------------------------------------------
   Atom    Charge (a.u.)   Spin (a.u.)  
 ---------------------------------------------------
   1  N    0.161407        1.402332 
   2 Br   -0.161407        0.597668 
 ---------------------------------------------------
   Sum:    0.000000        2.000000 
 ---------------------------------------------------
 
*** Unpaired Electrons
 Yamaguchi Nd:         4.00
  
**************************************************
 RAS-CI total energy for state   5:  -2626.545097849914
  Excitation energy (eV) =  6.971301550894
  State symmetry: B2    (C2v      )
  <S^2>      :  2.0000
  Dipole Moment:    0.0000 X     0.0000 Y     1.4978 Z
  Trans. Moment:   -0.1017 X     0.0017 Y     0.0000 Z
  Strength   :  0.001765
  Natural transition orbitals ( 1 -> 5 ):
   e-/hole pair  1 alpha:  ampl =  0.982128 ( 96.5%)   [3 : 4]
   e-/hole pair  2 alpha:  ampl =  0.014196 (  0.0%)   [2 : 5]
   e-/hole pair  1 beta :  ampl =  0.130698 (  1.7%)   [3 : 4]
   e-/hole pair  2 beta :  ampl =  0.019915 (  0.0%)   [2 : 5]
   Sum of square amplitudes: 0.98

 NATURAL OCCUPATION NUMBERS (higher than 1.0E-05)
            1           2           3           4           5           6
    1   2.0000000   2.0000000   2.0000000   2.0000000   2.0000000   2.0000000
            7           8           9          10          11          12
    1   2.0000000   2.0000000   2.0000000   2.0000000   2.0000000   2.0000000
           13          14          15          16          17          18
    1   2.0000000   2.0000000   2.0000000   2.0000000   2.0000000   1.9999749
           19          20          21          22          23          24
    1   1.9837000   1.9713416   1.0002488   0.9817850   0.0618382   0.0003028
           25          26          27          28          29
    1   0.0002961   0.0002710   0.0002083   0.0000166   0.0000160

 Head-Gordon Nu:    2.09
 Head-Gordon Nu_nl: 2.02

  Amplitudes : 
  
 | HOLE  | ALPHA | BETA  | PART  |    AMPLITUDE 
--------------------------------------------------
 |  17   | 111   | 110   |       |     1.1260616965281E-01
 |       | 101   | 100   |  23   |     9.2223955559265E-01
 |       | 101   | 100   |  24   |    -2.0827737075853E-01
 |       | 101   | 100   |  27   |     1.8784437845832E-01
 |       | 101   | 100   |  35   |     1.8328199532719E-01
 |       | 011   | 010   |  23   |    -1.1020248627197E-01
--------------------------------------------------
*** Contributions RASCI wfn    Active:   0.03
                                 Hole:   1.68
                                 Part:  98.29

      Mulliken population analysis 
 ---------------------------------------------------
   Atom    Charge (a.u.)   Spin (a.u.)  
 ---------------------------------------------------
   1  N    0.465179        1.347139 
   2 Br   -0.465179        0.652861 
 ---------------------------------------------------
   Sum:    0.000000        2.000000 
 ---------------------------------------------------
 
*** Unpaired Electrons
 Yamaguchi Nd:         2.21
  
**************************************************
 RAS-CI total energy for state   6:  -2626.545097651072
  Excitation energy (eV) =  6.971306961638
  State symmetry: B1    (C2v      )
  <S^2>      :  2.0000
  Dipole Moment:   -0.0000 X     0.0000 Y     1.4978 Z
  Trans. Moment:    0.0017 X     0.1017 Y    -0.0000 Z
  Strength   :  0.001765
  Natural transition orbitals ( 1 -> 6 ):
   e-/hole pair  1 alpha:  ampl =  0.982128 ( 96.5%)   [3 : 4]
   e-/hole pair  2 alpha:  ampl =  0.014196 (  0.0%)   [2 : 5]
   e-/hole pair  1 beta :  ampl =  0.130698 (  1.7%)   [3 : 4]
   e-/hole pair  2 beta :  ampl =  0.019915 (  0.0%)   [2 : 5]
   Sum of square amplitudes: 0.98

 NATURAL OCCUPATION NUMBERS (higher than 1.0E-05)
            1           2           3           4           5           6
    1   2.0000000   2.0000000   2.0000000   2.0000000   2.0000000   2.0000000
            7           8           9          10          11          12
    1   2.0000000   2.0000000   2.0000000   2.0000000   2.0000000   2.0000000
           13          14          15          16          17          18
    1   2.0000000   2.0000000   2.0000000   2.0000000   2.0000000   1.9999749
           19          20          21          22          23          24
    1   1.9836999   1.9713416   1.0002488   0.9817849   0.0618383   0.0003028
           25          26          27          28          29
    1   0.0002961   0.0002710   0.0002083   0.0000166   0.0000160

 Head-Gordon Nu:    2.09
 Head-Gordon Nu_nl: 2.02

  Amplitudes : 
  
 | HOLE  | ALPHA | BETA  | PART  |    AMPLITUDE 
--------------------------------------------------
 |  17   | 111   | 101   |       |    -1.1260634643455E-01
 |       | 110   | 100   |  23   |     9.2223945857057E-01
 |       | 110   | 100   |  24   |    -2.0827741610059E-01
 |       | 110   | 100   |  27   |     1.8784454910136E-01
 |       | 110   | 100   |  35   |     1.8328217673632E-01
 |       | 011   | 001   |  23   |     1.1020249650326E-01
--------------------------------------------------
*** Contributions RASCI wfn    Active:   0.03
                                 Hole:   1.68
                                 Part:  98.29

      Mulliken population analysis 
 ---------------------------------------------------
   Atom    Charge (a.u.)   Spin (a.u.)  
 ---------------------------------------------------
   1  N    0.465180        1.347138 
   2 Br   -0.465180        0.652862 
 ---------------------------------------------------
   Sum:    0.000000        2.000000 
 ---------------------------------------------------
 
*** Unpaired Electrons
 Yamaguchi Nd:         2.21
  
**************************************************
 RAS-CI total energy for state   7:  -2626.483792156535
  Excitation energy (eV) =  8.639514343748
  State symmetry: A2    (C2v      )
  <S^2>      :  2.0000
  Dipole Moment:    0.0000 X    -0.0000 Y     0.8088 Z
  Trans. Moment:    0.0000 X     0.0000 Y     0.3952 Z
  Strength   :  0.033059
  Natural transition orbitals ( 1 -> 7 ):
   e-/hole pair  1 alpha:  ampl =  0.314143 (  9.9%)   [3 : 4]
   e-/hole pair  2 alpha:  ampl =  0.035218 (  0.1%)   [2 : 5]
   e-/hole pair  1 beta :  ampl =  0.645770 ( 41.7%)   [3 : 4]
   e-/hole pair  2 beta :  ampl =  0.106589 (  1.1%)   [2 : 5]
   Sum of square amplitudes: 0.54

 NATURAL OCCUPATION NUMBERS (higher than 1.0E-05)
            1           2           3           4           5           6
    1   2.0000000   2.0000000   2.0000000   2.0000000   2.0000000   2.0000000
            7           8           9          10          11          12
    1   2.0000000   2.0000000   2.0000000   2.0000000   2.0000000   2.0000000
           13          14          15          16          17          18
    1   2.0000000   2.0000000   2.0000000   2.0000000   2.0000000   1.9887147
           19          20          21          22          23          24
    1   1.9887132   1.0293087   1.0103744   1.0103730   0.9666533   0.0023096
           25          26          27          28          29          30
    1   0.0012198   0.0012198   0.0004139   0.0004139   0.0001428   0.0001428

 Head-Gordon Nu:    3.95
 Head-Gordon Nu_nl: 4.00

  Amplitudes : 
  
 | HOLE  | ALPHA | BETA  | PART  |    AMPLITUDE 
--------------------------------------------------
 |  18   | 111   | 110   |       |     1.0633068822581E-01
 |  19   | 111   | 101   |       |    -1.0632374254662E-01
 |       | 011   | 100   |  23   |    -2.8974203973513E-01
 |       | 101   | 010   |  23   |    -4.5918828746610E-01
 |       | 110   | 001   |  23   |     4.5918881603070E-01
 |       | 111   | 000   |  23   |     6.2863506377084E-01
 |       | 111   | 000   |  24   |    -1.0333128580956E-01
--------------------------------------------------
*** Contributions RASCI wfn    Active:   0.17
                                 Hole:   2.26
                                 Part:  97.57

      Mulliken population analysis 
 ---------------------------------------------------
   Atom    Charge (a.u.)   Spin (a.u.)  
 ---------------------------------------------------
   1  N    0.173669        1.475169 
   2 Br   -0.173669        0.524831 
 ---------------------------------------------------
   Sum:    0.000000        2.000000 
 ---------------------------------------------------
 
*** Unpaired Electrons
 Yamaguchi Nd:         4.05
  
**************************************************
 RAS-CI total energy for state   8:  -2626.476287522238
  Excitation energy (eV) =  8.843725832924
  State symmetry: A2    (C2v      )
  <S^2>      :  2.0000
  Dipole Moment:   -0.0000 X     0.0000 Y    -2.4433 Z
  Trans. Moment:    0.0000 X     0.0000 Y     0.0001 Z
  Strength   :  0.000000
  Natural transition orbitals ( 1 -> 8 ):
   e-/hole pair  1 alpha:  ampl =  0.014876 (  0.0%)   [3 : 4]
   e-/hole pair  2 alpha:  ampl =  0.014852 (  0.0%)   [2 : 5]
   e-/hole pair  1 beta :  ampl =  0.641452 ( 41.1%)   [3 : 4]
   e-/hole pair  2 beta :  ampl =  0.640489 ( 41.0%)   [2 : 5]
   Sum of square amplitudes: 0.82

 NATURAL OCCUPATION NUMBERS (higher than 1.0E-05)
            1           2           3           4           5           6
    1   2.0000000   2.0000000   2.0000000   2.0000000   2.0000000   2.0000000
            7           8           9          10          11          12
    1   2.0000000   2.0000000   2.0000000   2.0000000   2.0000000   2.0000000
           13          14          15          16          17          18
    1   2.0000000   2.0000000   2.0000000   2.0000000   2.0000000   1.8252058
           19          20          21          22          23          24
    1   1.5880062   1.5867672   1.4132435   1.4120042   0.1737580   0.0003315
           25          26          27          28          29          30
    1   0.0003303   0.0002055   0.0000461   0.0000459   0.0000430   0.0000131

 Head-Gordon Nu:    2.35
 Head-Gordon Nu_nl: 2.44

  Amplitudes : 
  
 | HOLE  | ALPHA | BETA  | PART  |    AMPLITUDE 
--------------------------------------------------
 |  18   | 111   | 110   |       |     6.4261013557592E-01
 |  19   | 111   | 101   |       |     6.4164570964288E-01
 |       | 101   | 010   |  23   |     2.7943330584836E-01
 |       | 110   | 001   |  23   |     2.7924240026088E-01
--------------------------------------------------
*** Contributions RASCI wfn    Active:   0.00
                                 Hole:  82.52
                                 Part:  17.48

      Mulliken population analysis 
 ---------------------------------------------------
   Atom    Charge (a.u.)   Spin (a.u.)  
 ---------------------------------------------------
   1  N   -0.747679        0.974896 
   2 Br    0.747679        1.025104 
 ---------------------------------------------------
   Sum:    0.000000        2.000000 
 ---------------------------------------------------
 
*** Unpaired Electrons
 Yamaguchi Nd:         3.61
  
**************************************************
 RAS-CI total energy for state   9:  -2626.476287522044
  Excitation energy (eV) =  8.843725838191
  State symmetry: A1    (C2v      )
  <S^2>      :  2.0000
  Dipole Moment:   -0.0000 X    -0.0000 Y    -2.4433 Z
  Trans. Moment:    0.0000 X    -0.0000 Y     0.0000 Z
  Strength   :  0.000000
  Natural transition orbitals ( 1 -> 9 ):
   e-/hole pair  1 alpha:  ampl =  0.014864 (  0.0%)   [3 : 4]
   e-/hole pair  2 alpha:  ampl =  0.014864 (  0.0%)   [2 : 5]
   e-/hole pair  1 beta :  ampl =  0.640996 ( 41.1%)   [3 : 4]
   e-/hole pair  2 beta :  ampl =  0.640945 ( 41.1%)   [2 : 5]
   Sum of square amplitudes: 0.82

 NATURAL OCCUPATION NUMBERS (higher than 1.0E-05)
            1           2           3           4           5           6
    1   2.0000000   2.0000000   2.0000000   2.0000000   2.0000000   2.0000000
            7           8           9          10          11          12
    1   2.0000000   2.0000000   2.0000000   2.0000000   2.0000000   2.0000000
           13          14          15          16          17          18
    1   2.0000000   2.0000000   2.0000000   2.0000000   2.0000000   1.8252058
           19          20          21          22          23          24
    1   1.5874198   1.5873535   1.4126588   1.4125889   0.1737579   0.0003309
           25          26          27          28          29          30
    1   0.0003309   0.0002055   0.0000460   0.0000460   0.0000430   0.0000131

 Head-Gordon Nu:    2.35
 Head-Gordon Nu_nl: 2.44

  Amplitudes : 
  
 | HOLE  | ALPHA | BETA  | PART  |    AMPLITUDE 
--------------------------------------------------
 |  19   | 111   | 110   |       |     6.4215392920918E-01
 |  18   | 111   | 101   |       |    -6.4210232956112E-01
 |       | 110   | 010   |  23   |     2.7933931149935E-01
 |       | 101   | 001   |  23   |    -2.7933658288705E-01
--------------------------------------------------
*** Contributions RASCI wfn    Active:   0.00
                                 Hole:  82.52
                                 Part:  17.48

      Mulliken population analysis 
 ---------------------------------------------------
   Atom    Charge (a.u.)   Spin (a.u.)  
 ---------------------------------------------------
   1  N   -0.747679        0.974896 
   2 Br    0.747679        1.025104 
 ---------------------------------------------------
   Sum:    0.000000        2.000000 
 ---------------------------------------------------
 
*** Unpaired Electrons
 Yamaguchi Nd:         3.61
  
**************************************************
 RAS-CI total energy for state  10:  -2626.476002866378
  Excitation energy (eV) =  8.851471712985
  State symmetry: A2    (C2v      )
  <S^2>      :  2.0000
  Dipole Moment:    0.0000 X    -0.0000 Y    -2.0143 Z
  Trans. Moment:    0.0000 X     0.0000 Y    -0.0708 Z
  Strength   :  0.001086
  Natural transition orbitals ( 1 -> 10 ):
   e-/hole pair  1 alpha:  ampl =  0.454548 ( 20.7%)   [3 : 4]
   e-/hole pair  2 alpha:  ampl =  0.017405 (  0.0%)   [2 : 5]
   e-/hole pair  1 beta :  ampl =  0.597896 ( 35.7%)   [3 : 4]
   e-/hole pair  2 beta :  ampl =  0.596867 ( 35.6%)   [2 : 5]
   Sum of square amplitudes: 0.96

 NATURAL OCCUPATION NUMBERS (higher than 1.0E-05)
            1           2           3           4           5           6
    1   2.0000000   2.0000000   2.0000000   2.0000000   2.0000000   2.0000000
            7           8           9          10          11          12
    1   2.0000000   2.0000000   2.0000000   2.0000000   2.0000000   2.0000000
           13          14          15          16          17          18
    1   2.0000000   2.0000000   2.0000000   2.0000000   2.0000000   1.7170457
           19          20          21          22          23          24
    1   1.6423224   1.6410896   1.3588929   1.3576599   0.2806877   0.0009917
           25          26          27          28          29          30
    1   0.0004480   0.0004468   0.0001294   0.0001292   0.0000783   0.0000783

 Head-Gordon Nu:    2.57
 Head-Gordon Nu_nl: 2.68

  Amplitudes : 
  
 | HOLE  | ALPHA | BETA  | PART  |    AMPLITUDE 
--------------------------------------------------
 |  18   | 111   | 110   |       |    -5.9817594895606E-01
 |  19   | 111   | 101   |       |     5.9920652265827E-01
 |       | 011   | 100   |  23   |    -4.3503486163179E-01
 |       | 101   | 010   |  23   |    -1.1561763265915E-01
 |       | 110   | 001   |  23   |     1.1607701512408E-01
 |       | 111   | 000   |  23   |    -2.0334021384338E-01
--------------------------------------------------
*** Contributions RASCI wfn    Active:   0.01
                                 Hole:  71.69
                                 Part:  28.30

      Mulliken population analysis 
 ---------------------------------------------------
   Atom    Charge (a.u.)   Spin (a.u.)  
 ---------------------------------------------------
   1  N   -0.625397        1.164992 
   2 Br    0.625397        0.835008 
 ---------------------------------------------------
   Sum:    0.000000        2.000000 
 ---------------------------------------------------
 
*** Unpaired Electrons
 Yamaguchi Nd:         3.89
  
**************************************************
 RAS-CI total energy for state  11:  -2626.470414075673
  Excitation energy (eV) =  9.003550445560
  State symmetry: A1    (C2v      )
  <S^2>      :  2.0000
  Dipole Moment:   -0.0000 X    -0.0000 Y    -3.1078 Z
  Trans. Moment:    0.0000 X    -0.0000 Y    -0.0000 Z
  Strength   :  0.000000
  Natural transition orbitals ( 1 -> 11 ):
   e-/hole pair  1 alpha:  ampl =  0.002033 (  0.0%)   [3 : 4]
   e-/hole pair  2 alpha:  ampl =  0.002031 (  0.0%)   [2 : 5]
   e-/hole pair  1 beta :  ampl =  0.703745 ( 49.5%)   [3 : 4]
   e-/hole pair  2 beta :  ampl =  0.703707 ( 49.5%)   [2 : 5]
   Sum of square amplitudes: 0.99

 NATURAL OCCUPATION NUMBERS (higher than 1.0E-05)
            1           2           3           4           5           6
    1   2.0000000   2.0000000   2.0000000   2.0000000   2.0000000   2.0000000
            7           8           9          10          11          12
    1   2.0000000   2.0000000   2.0000000   2.0000000   2.0000000   2.0000000
           13          14          15          16          17          18
    1   2.0000000   2.0000000   2.0000000   2.0000000   1.9997278   1.9944638
           19          20          21          22          23          24
    1   1.5026093   1.5025548   1.4979071   1.4978453   0.0043160   0.0001915
           25          26          27
    1   0.0001915   0.0000958   0.0000958

 Head-Gordon Nu:    2.01
 Head-Gordon Nu_nl: 2.25

  Amplitudes : 
  
 | HOLE  | ALPHA | BETA  | PART  |    AMPLITUDE 
--------------------------------------------------
 |  19   | 111   | 110   |       |     7.0525740621420E-01
 |  18   | 111   | 101   |       |     7.0529604729718E-01
--------------------------------------------------
*** Contributions RASCI wfn    Active:   0.00
                                 Hole:  99.51
                                 Part:   0.49

      Mulliken population analysis 
 ---------------------------------------------------
   Atom    Charge (a.u.)   Spin (a.u.)  
 ---------------------------------------------------
   1  N   -0.936885        0.986276 
   2 Br    0.936885        1.013724 
 ---------------------------------------------------
   Sum:    0.000000        2.000000 
 ---------------------------------------------------
 
*** Unpaired Electrons
 Yamaguchi Nd:         3.02
  
**************************************************
 RAS-CI total energy for state  12:  -2626.462983004944
  Excitation energy (eV) =  9.205760168232
  State symmetry: A2    (C2v      )
  <S^2>      :  2.0000
  Dipole Moment:    0.0000 X    -0.0000 Y     0.1156 Z
  Trans. Moment:   -0.0000 X     0.0000 Y     0.0000 Z
  Strength   :  0.000000
  Natural transition orbitals ( 1 -> 12 ):
   e-/hole pair  1 alpha:  ampl =  0.020423 (  0.0%)   [3 : 4]
   e-/hole pair  2 alpha:  ampl =  0.019148 (  0.0%)   [2 : 5]
   e-/hole pair  1 beta :  ampl =  0.294458 (  8.7%)   [3 : 4]
   e-/hole pair  2 beta :  ampl =  0.294448 (  8.7%)   [2 : 5]
   Sum of square amplitudes: 0.17

 NATURAL OCCUPATION NUMBERS (higher than 1.0E-05)
            1           2           3           4           5           6
    1   2.0000000   2.0000000   2.0000000   2.0000000   2.0000000   2.0000000
            7           8           9          10          11          12
    1   2.0000000   2.0000000   2.0000000   2.0000000   2.0000000   2.0000000
           13          14          15          16          17          18
    1   2.0000000   2.0000000   2.0000000   2.0000000   2.0000000   1.9130908
           19          20          21          22          23          24
    1   1.9130854   1.1739529   1.0868501   1.0868447   0.8248201   0.0006208
           25          26          27          28          29          30
    1   0.0002855   0.0002855   0.0000933   0.0000297   0.0000297   0.0000114

 Head-Gordon Nu:    3.65
 Head-Gordon Nu_nl: 3.91

  Amplitudes : 
  
 | HOLE  | ALPHA | BETA  | PART  |    AMPLITUDE 
--------------------------------------------------
 |  18   | 111   | 110   |       |    -2.9479939161304E-01
 |  19   | 111   | 101   |       |    -2.9480859510084E-01
 |       | 101   | 010   |  23   |     6.1205453032490E-01
 |       | 101   | 010   |  24   |    -1.2306775662997E-01
 |       | 101   | 010   |  27   |     1.2819274642148E-01
 |       | 110   | 001   |  23   |     6.1205435062108E-01
 |       | 110   | 001   |  24   |    -1.2306762876343E-01
 |       | 110   | 001   |  27   |     1.2819263725177E-01
--------------------------------------------------
*** Contributions RASCI wfn    Active:   0.00
                                 Hole:  17.38
                                 Part:  82.62

      Mulliken population analysis 
 ---------------------------------------------------
   Atom    Charge (a.u.)   Spin (a.u.)  
 ---------------------------------------------------
   1  N   -0.018354        0.926675 
   2 Br    0.018354        1.073325 
 ---------------------------------------------------
   Sum:    0.000000        2.000000 
 ---------------------------------------------------
 
*** Unpaired Electrons
 Yamaguchi Nd:         4.26
  
**************************************************
 RAS-CI total energy for state  13:  -2626.462983004899
  Excitation energy (eV) =  9.205760169439
  State symmetry: A1    (C2v      )
  <S^2>      :  2.0000
  Dipole Moment:   -0.0000 X    -0.0000 Y     0.1156 Z
  Trans. Moment:   -0.0000 X    -0.0000 Y     0.0000 Z
  Strength   :  0.000000
  Natural transition orbitals ( 1 -> 13 ):
   e-/hole pair  1 alpha:  ampl =  0.020423 (  0.0%)   [3 : 4]
   e-/hole pair  2 alpha:  ampl =  0.019148 (  0.0%)   [2 : 5]
   e-/hole pair  1 beta :  ampl =  0.294463 (  8.7%)   [3 : 4]
   e-/hole pair  2 beta :  ampl =  0.294443 (  8.7%)   [2 : 5]
   Sum of square amplitudes: 0.17

 NATURAL OCCUPATION NUMBERS (higher than 1.0E-05)
            1           2           3           4           5           6
    1   2.0000000   2.0000000   2.0000000   2.0000000   2.0000000   2.0000000
            7           8           9          10          11          12
    1   2.0000000   2.0000000   2.0000000   2.0000000   2.0000000   2.0000000
           13          14          15          16          17          18
    1   2.0000000   2.0000000   2.0000000   2.0000000   2.0000000   1.9130940
           19          20          21          22          23          24
    1   1.9130822   1.1739529   1.0868514   1.0868433   0.8248202   0.0006208
           25          26          27          28          29          30
    1   0.0002855   0.0002855   0.0000933   0.0000297   0.0000297   0.0000114

 Head-Gordon Nu:    3.65
 Head-Gordon Nu_nl: 3.91

  Amplitudes : 
  
 | HOLE  | ALPHA | BETA  | PART  |    AMPLITUDE 
--------------------------------------------------
 |  19   | 111   | 110   |       |    -2.9479401245196E-01
 |  18   | 111   | 101   |       |     2.9481397345005E-01
 |       | 110   | 010   |  23   |     6.1205509742122E-01
 |       | 110   | 010   |  24   |    -1.2306778081771E-01
 |       | 110   | 010   |  27   |     1.2819293703661E-01
 |       | 101   | 001   |  23   |    -6.1205379059087E-01
 |       | 101   | 001   |  24   |     1.2306752920698E-01
 |       | 101   | 001   |  27   |    -1.2819238441615E-01
--------------------------------------------------
*** Contributions RASCI wfn    Active:   0.00
                                 Hole:  17.38
                                 Part:  82.62

      Mulliken population analysis 
 ---------------------------------------------------
   Atom    Charge (a.u.)   Spin (a.u.)  
 ---------------------------------------------------
   1  N   -0.018354        0.926675 
   2 Br    0.018354        1.073325 
 ---------------------------------------------------
   Sum:    0.000000        2.000000 
 ---------------------------------------------------
 
*** Unpaired Electrons
 Yamaguchi Nd:         4.26
  
**************************************************
 RAS-CI total energy for state  14:  -2626.403876197656
  Excitation energy (eV) = 10.814138226247
  State symmetry: A1    (C2v      )
  <S^2>      :  2.0000
  Dipole Moment:   -0.0000 X    -0.0000 Y     0.7272 Z
  Trans. Moment:   -0.0000 X    -0.0000 Y     0.0000 Z
  Strength   :  0.000000
  Natural transition orbitals ( 1 -> 14 ):
   e-/hole pair  1 alpha:  ampl =  0.024290 (  0.1%)   [3 : 4]
   e-/hole pair  2 alpha:  ampl =  0.024288 (  0.1%)   [2 : 5]
   e-/hole pair  1 beta :  ampl =  0.046766 (  0.2%)   [3 : 4]
   e-/hole pair  2 beta :  ampl =  0.046766 (  0.2%)   [2 : 5]
   Sum of square amplitudes: 0.01

 NATURAL OCCUPATION NUMBERS (higher than 1.0E-05)
            1           2           3           4           5           6
    1   2.0000000   2.0000000   2.0000000   2.0000000   2.0000000   2.0000000
            7           8           9          10          11          12
    1   2.0000000   2.0000000   2.0000000   2.0000000   2.0000000   2.0000000
           13          14          15          16          17          18
    1   2.0000000   2.0000000   2.0000000   2.0000000   1.9980077   1.9980076
           19          20          21          22          23          24
    1   1.9879374   1.0137929   1.0137927   1.0045092   0.9826864   0.0004797
           25          26          27          28          29
    1   0.0004795   0.0001328   0.0001328   0.0000207   0.0000206

 Head-Gordon Nu:    3.97
 Head-Gordon Nu_nl: 4.00

  Amplitudes : 
  
 | HOLE  | ALPHA | BETA  | PART  |    AMPLITUDE 
--------------------------------------------------
 |       | 110   | 010   |  23   |     6.6708785207494E-01
 |       | 110   | 010   |  24   |    -1.3556467054648E-01
 |       | 110   | 010   |  27   |     1.4256540037953E-01
 |       | 101   | 001   |  23   |     6.6708796714924E-01
 |       | 101   | 001   |  24   |    -1.3556440143944E-01
 |       | 101   | 001   |  27   |     1.4256500762347E-01
--------------------------------------------------
*** Contributions RASCI wfn    Active:   0.00
                                 Hole:   1.60
                                 Part:  98.40

      Mulliken population analysis 
 ---------------------------------------------------
   Atom    Charge (a.u.)   Spin (a.u.)  
 ---------------------------------------------------
   1  N    0.159404        0.924922 
   2 Br   -0.159404        1.075078 
 ---------------------------------------------------
   Sum:    0.000000        2.000000 
 ---------------------------------------------------
 
*** Unpaired Electrons
 Yamaguchi Nd:         4.03
  
**************************************************
 RAS-CI total energy for state  15:  -2626.355637040385
  Excitation energy (eV) = 12.126792481341
  State symmetry: A2    (C2v      )
  <S^2>      :  2.0000
  Dipole Moment:   -0.0000 X    -0.0000 Y     0.0105 Z
  Trans. Moment:   -0.0000 X     0.0000 Y     2.1846 Z
  Strength   :  1.417942
  Natural transition orbitals ( 1 -> 15 ):
   e-/hole pair  1 alpha:  ampl =  0.635118 ( 40.3%)   [3 : 4]
   e-/hole pair  2 alpha:  ampl =  0.235379 (  5.5%)   [2 : 5]
   e-/hole pair  1 beta :  ampl =  0.506219 ( 25.6%)   [3 : 4]
   e-/hole pair  2 beta :  ampl =  0.326806 ( 10.7%)   [2 : 5]
   Sum of square amplitudes: 0.98

 NATURAL OCCUPATION NUMBERS (higher than 1.0E-05)
            1           2           3           4           5           6
    1   2.0000000   2.0000000   2.0000000   2.0000000   2.0000000   2.0000000
            7           8           9          10          11          12
    1   2.0000000   2.0000000   2.0000000   2.0000000   2.0000000   2.0000000
           13          14          15          16          17          18
    1   2.0000000   2.0000000   2.0000000   2.0000000   2.0000000   1.8927268
           19          20          21          22          23          24
    1   1.8927262   1.3254623   1.0518199   1.0518187   0.6669388   0.0557189
           25          26          27          28          29          30
    1   0.0557184   0.0066075   0.0001218   0.0001218   0.0001095   0.0001095

 Head-Gordon Nu:    3.57
 Head-Gordon Nu_nl: 3.69

  Amplitudes : 
  
 | HOLE  | ALPHA | BETA  | PART  |    AMPLITUDE 
--------------------------------------------------
 |  18   | 111   | 110   |       |    -3.2752543733341E-01
 |  19   | 111   | 101   |       |     3.2752638778352E-01
 |       | 110   | 100   |  32   |    -2.2553892037148E-01
 |       | 101   | 100   |  31   |    -2.2553994308409E-01
 |       | 011   | 100   |  23   |     6.2528433680720E-01
 |       | 111   | 000   |  23   |     5.0076397938968E-01
--------------------------------------------------
*** Contributions RASCI wfn    Active:   0.00
                                 Hole:  21.45
                                 Part:  78.55

      Mulliken population analysis 
 ---------------------------------------------------
   Atom    Charge (a.u.)   Spin (a.u.)  
 ---------------------------------------------------
   1  N   -0.010476        1.638421 
   2 Br    0.010476        0.361579 
 ---------------------------------------------------
   Sum:    0.000000        2.000000 
 ---------------------------------------------------
 
*** Unpaired Electrons
 Yamaguchi Nd:         4.41
  
**************************************************
 RAS-CI total energy for state  16:  -2626.331463462151
  Excitation energy (eV) = 12.784589012750
  State symmetry: B2    (C2v      )
  <S^2>      :  2.0000
  Dipole Moment:   -0.0000 X    -0.0000 Y    -0.6312 Z
  Trans. Moment:   -0.4506 X     0.0019 Y    -0.0000 Z
  Strength   :  0.063592
  Natural transition orbitals ( 1 -> 16 ):
   e-/hole pair  1 alpha:  ampl =  0.197233 (  3.9%)   [3 : 4]
   e-/hole pair  2 alpha:  ampl =  0.105202 (  1.1%)   [2 : 5]
   e-/hole pair  1 beta :  ampl =  0.818715 ( 67.0%)   [3 : 4]
   e-/hole pair  2 beta :  ampl =  0.024435 (  0.1%)   [2 : 5]
   Sum of square amplitudes: 0.73

 NATURAL OCCUPATION NUMBERS (higher than 1.0E-05)
            1           2           3           4           5           6
    1   2.0000000   2.0000000   2.0000000   2.0000000   2.0000000   2.0000000
            7           8           9          10          11          12
    1   2.0000000   2.0000000   2.0000000   2.0000000   2.0000000   2.0000000
           13          14          15          16          17          18
    1   2.0000000   2.0000000   2.0000000   2.0000000   2.0000000   1.9999969
           19          20          21          22          23          24
    1   1.8970683   1.5266247   1.2676884   0.9896055   0.2754129   0.0194385
           25          26          27          28          29          30
    1   0.0126918   0.0062516   0.0044358   0.0007051   0.0000563   0.0000127
           31
    1   0.0000116

 Head-Gordon Nu:    2.62
 Head-Gordon Nu_nl: 2.65

  Amplitudes : 
  
 | HOLE  | ALPHA | BETA  | PART  |    AMPLITUDE 
--------------------------------------------------
 |       | 111   | 010   |       |    -1.4717647255208E-01
 |  16   | 111   | 110   |       |     3.1816466406846E-01
 |  17   | 111   | 110   |       |     7.4370127582309E-01
 |       | 101   | 100   |  23   |    -1.5524705753911E-01
 |       | 011   | 010   |  23   |    -4.6799383210030E-01
 |       | 011   | 010   |  27   |    -1.5525210335806E-01
--------------------------------------------------
*** Contributions RASCI wfn    Active:   2.17
                                 Hole:  65.43
                                 Part:  32.40

      Mulliken population analysis 
 ---------------------------------------------------
   Atom    Charge (a.u.)   Spin (a.u.)  
 ---------------------------------------------------
   1  N   -0.186056        1.433649 
   2 Br    0.186056        0.566351 
 ---------------------------------------------------
   Sum:    0.000000        2.000000 
 ---------------------------------------------------
 
*** Unpaired Electrons
 Yamaguchi Nd:         3.41
  
**************************************************
 RAS-CI total energy for state  17:  -2626.331463225274
  Excitation energy (eV) = 12.784595458494
  State symmetry: B1    (C2v      )
  <S^2>      :  2.0000
  Dipole Moment:    0.0000 X     0.0000 Y    -0.6312 Z
  Trans. Moment:   -0.0019 X    -0.4506 Y     0.0000 Z
  Strength   :  0.063592
  Natural transition orbitals ( 1 -> 17 ):
   e-/hole pair  1 alpha:  ampl =  0.197234 (  3.9%)   [3 : 4]
   e-/hole pair  2 alpha:  ampl =  0.105202 (  1.1%)   [2 : 5]
   e-/hole pair  1 beta :  ampl =  0.818715 ( 67.0%)   [3 : 4]
   e-/hole pair  2 beta :  ampl =  0.024434 (  0.1%)   [2 : 5]
   Sum of square amplitudes: 0.73

 NATURAL OCCUPATION NUMBERS (higher than 1.0E-05)
            1           2           3           4           5           6
    1   2.0000000   2.0000000   2.0000000   2.0000000   2.0000000   2.0000000
            7           8           9          10          11          12
    1   2.0000000   2.0000000   2.0000000   2.0000000   2.0000000   2.0000000
           13          14          15          16          17          18
    1   2.0000000   2.0000000   2.0000000   2.0000000   2.0000000   1.9999969
           19          20          21          22          23          24
    1   1.8970681   1.5266247   1.2676886   0.9896055   0.2754130   0.0194385
           25          26          27          28          29          30
    1   0.0126918   0.0062515   0.0044358   0.0007051   0.0000563   0.0000127
           31
    1   0.0000116

 Head-Gordon Nu:    2.62
 Head-Gordon Nu_nl: 2.65

  Amplitudes : 
  
 | HOLE  | ALPHA | BETA  | PART  |    AMPLITUDE 
--------------------------------------------------
 |       | 111   | 001   |       |    -1.4717627536863E-01
 |  16   | 111   | 101   |       |     3.1816489751815E-01
 |  17   | 111   | 101   |       |     7.4370121773141E-01
 |       | 110   | 100   |  23   |     1.5524720666014E-01
 |       | 011   | 001   |  23   |    -4.6799378321500E-01
 |       | 011   | 001   |  27   |    -1.5525200625415E-01
--------------------------------------------------
*** Contributions RASCI wfn    Active:   2.17
                                 Hole:  65.43
                                 Part:  32.40

      Mulliken population analysis 
 ---------------------------------------------------
   Atom    Charge (a.u.)   Spin (a.u.)  
 ---------------------------------------------------
   1  N   -0.186057        1.433648 
   2 Br    0.186057        0.566352 
 ---------------------------------------------------
   Sum:    0.000000        2.000000 
 ---------------------------------------------------
 
*** Unpaired Electrons
 Yamaguchi Nd:         3.41
  
**************************************************
 RAS-CI total energy for state  18:  -2626.236697367234
  Excitation energy (eV) = 15.363305656438
  State symmetry: A2    (C2v      )
  <S^2>      :  6.0000
  Dipole Moment:    0.0000 X    -0.0000 Y     0.0482 Z
  Trans. Moment:    0.0000 X    -0.0000 Y    -0.0000 Z
  Strength   :  0.000000
  Natural transition orbitals ( 1 -> 18 ):
   e-/hole pair  1 alpha:  ampl =  0.499110 ( 24.9%)   [3 : 4]
   e-/hole pair  2 alpha:  ampl =  0.003476 (  0.0%)   [2 : 5]
   e-/hole pair  1 beta :  ampl =  0.499110 ( 24.9%)   [3 : 4]
   e-/hole pair  2 beta :  ampl =  0.003476 (  0.0%)   [2 : 5]
   Sum of square amplitudes: 0.50

 NATURAL OCCUPATION NUMBERS (higher than 1.0E-05)
            1           2           3           4           5           6
    1   2.0000000   2.0000000   2.0000000   2.0000000   2.0000000   2.0000000
            7           8           9          10          11          12
    1   2.0000000   2.0000000   2.0000000   2.0000000   2.0000000   2.0000000
           13          14          15          16          17          18
    1   2.0000000   2.0000000   2.0000000   2.0000000   2.0000000   2.0000000
           19          20          21          22          23
    1   2.0000000   1.0000000   1.0000000   1.0000000   1.0000000

 Head-Gordon Nu:    4.00
 Head-Gordon Nu_nl: 4.00

  Amplitudes : 
  
 | HOLE  | ALPHA | BETA  | PART  |    AMPLITUDE 
--------------------------------------------------
 |       | 011   | 100   |  24   |    -3.8027879497106E-01
 |       | 011   | 100   |  27   |    -3.1050465276799E-01
 |       | 101   | 010   |  24   |     3.8027879873380E-01
 |       | 101   | 010   |  27   |     3.1050464796550E-01
 |       | 110   | 001   |  24   |    -3.8027880516478E-01
 |       | 110   | 001   |  27   |    -3.1050466290920E-01
 |       | 111   | 000   |  24   |     3.8027879871172E-01
 |       | 111   | 000   |  27   |     3.1050466078774E-01
--------------------------------------------------
*** Contributions RASCI wfn    Active:   0.00
                                 Hole:   0.00
                                 Part: 100.00

      Mulliken population analysis 
 ---------------------------------------------------
   Atom    Charge (a.u.)   Spin (a.u.)  
 ---------------------------------------------------
   1  N   -0.723619        1.844845 
   2 Br    0.723619        0.155155 
 ---------------------------------------------------
   Sum:    0.000000        2.000000 
 ---------------------------------------------------
 
*** Unpaired Electrons
 Yamaguchi Nd:         4.00
  
**************************************************
 RAS-CI total energy for state  19:  -2626.232879284416
  Excitation energy (eV) = 15.467200975951
  State symmetry: B2    (C2v      )
  <S^2>      :  2.0000
  Dipole Moment:    0.0000 X    -0.0000 Y    -0.5416 Z
  Trans. Moment:   -0.4618 X     0.0050 Y    -0.0000 Z
  Strength   :  0.080826
  Natural transition orbitals ( 1 -> 19 ):
   e-/hole pair  1 alpha:  ampl =  0.793995 ( 63.0%)   [3 : 4]
   e-/hole pair  2 alpha:  ampl =  0.054839 (  0.3%)   [2 : 5]
   e-/hole pair  1 beta :  ampl =  0.238781 (  5.7%)   [3 : 4]
   e-/hole pair  2 beta :  ampl =  0.130038 (  1.7%)   [2 : 5]
   Sum of square amplitudes: 0.71

 NATURAL OCCUPATION NUMBERS (higher than 1.0E-05)
            1           2           3           4           5           6
    1   2.0000000   2.0000000   2.0000000   2.0000000   2.0000000   2.0000000
            7           8           9          10          11          12
    1   2.0000000   2.0000000   2.0000000   2.0000000   2.0000000   2.0000000
           13          14          15          16          17          18
    1   2.0000000   2.0000000   2.0000000   2.0000000   2.0000000   1.9863939
           19          20          21          22          23          24
    1   1.9471969   1.4474218   1.0101735   0.6781188   0.6350386   0.2369518
           25          26          27          28          29
    1   0.0467127   0.0097279   0.0010890   0.0007187   0.0004463

 Head-Gordon Nu:    3.22
 Head-Gordon Nu_nl: 3.39

  Amplitudes : 
  
 | HOLE  | ALPHA | BETA  | PART  |    AMPLITUDE 
--------------------------------------------------
 |  16   | 111   | 110   |       |     1.3621521850540E-01
 |  17   | 111   | 110   |       |     1.8560771686641E-01
 |  19   | 111   | 011   |       |    -1.1675554207387E-01
 |       | 101   | 100   |  24   |    -3.7941415830997E-01
 |       | 101   | 100   |  27   |    -5.7902728737524E-01
 |       | 101   | 100   |  28   |     3.8096503935655E-01
 |       | 101   | 010   |  31   |    -1.5451876635626E-01
 |       | 011   | 010   |  23   |     4.7625987108729E-01
 |       | 111   | 000   |  31   |     1.2541215604667E-01
--------------------------------------------------
*** Contributions RASCI wfn    Active:   0.20
                                 Hole:   6.66
                                 Part:  93.14

      Mulliken population analysis 
 ---------------------------------------------------
   Atom    Charge (a.u.)   Spin (a.u.)  
 ---------------------------------------------------
   1  N   -0.247342        1.819803 
   2 Br    0.247342        0.180197 
 ---------------------------------------------------
   Sum:    0.000000        2.000000 
 ---------------------------------------------------
 
*** Unpaired Electrons
 Yamaguchi Nd:         4.23
  
**************************************************
 RAS-CI total energy for state  20:  -2626.232879113496
  Excitation energy (eV) = 15.467205626933
  State symmetry: B1    (C2v      )
  <S^2>      :  2.0000
  Dipole Moment:    0.0000 X    -0.0000 Y    -0.5416 Z
  Trans. Moment:   -0.0050 X    -0.4618 Y     0.0000 Z
  Strength   :  0.080826
  Natural transition orbitals ( 1 -> 20 ):
   e-/hole pair  1 alpha:  ampl =  0.793993 ( 63.0%)   [3 : 4]
   e-/hole pair  2 alpha:  ampl =  0.054839 (  0.3%)   [2 : 5]
   e-/hole pair  1 beta :  ampl =  0.238782 (  5.7%)   [3 : 4]
   e-/hole pair  2 beta :  ampl =  0.130038 (  1.7%)   [2 : 5]
   Sum of square amplitudes: 0.71

 NATURAL OCCUPATION NUMBERS (higher than 1.0E-05)
            1           2           3           4           5           6
    1   2.0000000   2.0000000   2.0000000   2.0000000   2.0000000   2.0000000
            7           8           9          10          11          12
    1   2.0000000   2.0000000   2.0000000   2.0000000   2.0000000   2.0000000
           13          14          15          16          17          18
    1   2.0000000   2.0000000   2.0000000   2.0000000   2.0000000   1.9863937
           19          20          21          22          23          24
    1   1.9471965   1.4474166   1.0101736   0.6781252   0.6350353   0.2369541
           25          26          27          28          29
    1   0.0467129   0.0097280   0.0010890   0.0007187   0.0004463

 Head-Gordon Nu:    3.22
 Head-Gordon Nu_nl: 3.39

  Amplitudes : 
  
 | HOLE  | ALPHA | BETA  | PART  |    AMPLITUDE 
--------------------------------------------------
 |  16   | 111   | 101   |       |     1.3621589535807E-01
 |  17   | 111   | 101   |       |     1.8560839147404E-01
 |  18   | 111   | 011   |       |    -1.1675659454812E-01
 |       | 110   | 100   |  24   |     3.7941271299279E-01
 |       | 110   | 100   |  27   |     5.7902537295187E-01
 |       | 110   | 100   |  28   |    -3.8096498496951E-01
 |       | 110   | 001   |  32   |    -1.5451921672681E-01
 |       | 011   | 001   |  23   |     4.7626227824354E-01
 |       | 111   | 000   |  32   |    -1.2541257289000E-01
--------------------------------------------------
*** Contributions RASCI wfn    Active:   0.20
                                 Hole:   6.66
                                 Part:  93.14

      Mulliken population analysis 
 ---------------------------------------------------
   Atom    Charge (a.u.)   Spin (a.u.)  
 ---------------------------------------------------
   1  N   -0.247341        1.819798 
   2 Br    0.247341        0.180202 
 ---------------------------------------------------
   Sum:    0.000000        2.000000 
 ---------------------------------------------------
 
*** Unpaired Electrons
 Yamaguchi Nd:         4.23
  
**************************************************
 RAS-CI total energy for state  21:  -2626.224627762864
  Excitation energy (eV) = 15.691736301385
  State symmetry: B2    (C2v      )
  <S^2>      :  2.0000
  Dipole Moment:   -0.0000 X    -0.0000 Y    -0.2971 Z
  Trans. Moment:   -0.0371 X     0.0001 Y     0.0000 Z
  Strength   :  0.000531
  Natural transition orbitals ( 1 -> 21 ):
   e-/hole pair  1 alpha:  ampl =  0.604117 ( 36.5%)   [3 : 4]
   e-/hole pair  2 alpha:  ampl =  0.046676 (  0.2%)   [2 : 5]
   e-/hole pair  1 beta :  ampl =  0.366341 ( 13.4%)   [3 : 4]
   e-/hole pair  2 beta :  ampl =  0.151403 (  2.3%)   [2 : 5]
   Sum of square amplitudes: 0.53

 NATURAL OCCUPATION NUMBERS (higher than 1.0E-05)
            1           2           3           4           5           6
    1   2.0000000   2.0000000   2.0000000   2.0000000   2.0000000   2.0000000
            7           8           9          10          11          12
    1   2.0000000   2.0000000   2.0000000   2.0000000   2.0000000   2.0000000
           13          14          15          16          17          18
    1   2.0000000   2.0000000   2.0000000   2.0000000   2.0000000   1.9691029
           19          20          21          22          23          24
    1   1.8712298   1.2212873   1.0891648   1.0149505   0.4367351   0.3381278
           25          26          27          28          29
    1   0.0396034   0.0153853   0.0021942   0.0016024   0.0006017

 Head-Gordon Nu:    3.67
 Head-Gordon Nu_nl: 3.74

  Amplitudes : 
  
 | HOLE  | ALPHA | BETA  | PART  |    AMPLITUDE 
--------------------------------------------------
 |  16   | 111   | 110   |       |     2.0954125154661E-01
 |  17   | 111   | 110   |       |     2.9221088926927E-01
 |  19   | 111   | 011   |       |    -1.7606998513435E-01
 |       | 101   | 100   |  24   |     2.7687594954126E-01
 |       | 101   | 100   |  27   |     5.1691443326366E-01
 |       | 101   | 100   |  28   |    -1.2893458374305E-01
 |       | 110   | 010   |  32   |    -1.1457846255166E-01
 |       | 101   | 010   |  31   |    -1.1109330065876E-01
 |       | 011   | 010   |  23   |     6.2816497101100E-01
 |       | 011   | 010   |  24   |    -1.2087856763538E-01
 |       | 111   | 000   |  31   |     1.4551720957085E-01
--------------------------------------------------
*** Contributions RASCI wfn    Active:   0.32
                                 Hole:  16.03
                                 Part:  83.65

      Mulliken population analysis 
 ---------------------------------------------------
   Atom    Charge (a.u.)   Spin (a.u.)  
 ---------------------------------------------------
   1  N   -0.217854        1.618619 
   2 Br    0.217854        0.381381 
 ---------------------------------------------------
   Sum:    0.000000        2.000000 
 ---------------------------------------------------
 
*** Unpaired Electrons
 Yamaguchi Nd:         4.61
  
**************************************************
 RAS-CI total energy for state  22:  -2626.224627567415
  Excitation energy (eV) = 15.691741619810
  State symmetry: B1    (C2v      )
  <S^2>      :  2.0000
  Dipole Moment:    0.0000 X     0.0000 Y    -0.2971 Z
  Trans. Moment:   -0.0001 X    -0.0371 Y     0.0000 Z
  Strength   :  0.000530
  Natural transition orbitals ( 1 -> 22 ):
   e-/hole pair  1 alpha:  ampl =  0.604120 ( 36.5%)   [3 : 4]
   e-/hole pair  2 alpha:  ampl =  0.046676 (  0.2%)   [2 : 5]
   e-/hole pair  1 beta :  ampl =  0.366340 ( 13.4%)   [3 : 4]
   e-/hole pair  2 beta :  ampl =  0.151402 (  2.3%)   [2 : 5]
   Sum of square amplitudes: 0.53

 NATURAL OCCUPATION NUMBERS (higher than 1.0E-05)
            1           2           3           4           5           6
    1   2.0000000   2.0000000   2.0000000   2.0000000   2.0000000   2.0000000
            7           8           9          10          11          12
    1   2.0000000   2.0000000   2.0000000   2.0000000   2.0000000   2.0000000
           13          14          15          16          17          18
    1   2.0000000   2.0000000   2.0000000   2.0000000   2.0000000   1.9691029
           19          20          21          22          23          24
    1   1.8712303   1.2212814   1.0891697   1.0149505   0.4367350   0.3381288
           25          26          27          28          29
    1   0.0396029   0.0153853   0.0021942   0.0016024   0.0006017

 Head-Gordon Nu:    3.67
 Head-Gordon Nu_nl: 3.74

  Amplitudes : 
  
 | HOLE  | ALPHA | BETA  | PART  |    AMPLITUDE 
--------------------------------------------------
 |  16   | 111   | 101   |       |     2.0954079237105E-01
 |  17   | 111   | 101   |       |     2.9221026752971E-01
 |  18   | 111   | 011   |       |    -1.7607023299122E-01
 |       | 110   | 100   |  24   |    -2.7687701045561E-01
 |       | 110   | 100   |  27   |    -5.1691592705879E-01
 |       | 110   | 100   |  28   |     1.2893691044624E-01
 |       | 110   | 001   |  32   |    -1.1109212749519E-01
 |       | 101   | 001   |  31   |    -1.1457877108031E-01
 |       | 011   | 001   |  23   |     6.2816320092646E-01
 |       | 011   | 001   |  24   |    -1.2087834491879E-01
 |       | 111   | 000   |  32   |    -1.4551624670105E-01
--------------------------------------------------
*** Contributions RASCI wfn    Active:   0.32
                                 Hole:  16.03
                                 Part:  83.65

      Mulliken population analysis 
 ---------------------------------------------------
   Atom    Charge (a.u.)   Spin (a.u.)  
 ---------------------------------------------------
   1  N   -0.217855        1.618620 
   2 Br    0.217855        0.381380 
 ---------------------------------------------------
   Sum:    0.000000        2.000000 
 ---------------------------------------------------
 
*** Unpaired Electrons
 Yamaguchi Nd:         4.61
  
**************************************************
 RAS-CI total energy for state  23:  -2626.203727056457
  Excitation energy (eV) = 16.260473459136
  State symmetry: A2    (C2v      )
  <S^2>      :  2.0000
  Dipole Moment:    0.0000 X    -0.0000 Y     1.9515 Z
  Trans. Moment:    0.0000 X     0.0000 Y     0.1707 Z
  Strength   :  0.011606
  Natural transition orbitals ( 1 -> 23 ):
   e-/hole pair  1 alpha:  ampl =  0.224084 (  5.0%)   [3 : 4]
   e-/hole pair  2 alpha:  ampl =  0.040363 (  0.2%)   [2 : 5]
   e-/hole pair  1 beta :  ampl =  0.858948 ( 73.8%)   [3 : 4]
   e-/hole pair  2 beta :  ampl =  0.018178 (  0.0%)   [2 : 5]
   Sum of square amplitudes: 0.79

 NATURAL OCCUPATION NUMBERS (higher than 1.0E-05)
            1           2           3           4           5           6
    1   2.0000000   2.0000000   2.0000000   2.0000000   2.0000000   2.0000000
            7           8           9          10          11          12
    1   2.0000000   2.0000000   2.0000000   2.0000000   2.0000000   2.0000000
           13          14          15          16          17          18
    1   2.0000000   2.0000000   2.0000000   2.0000000   2.0000000   1.9996683
           19          20          21          22          23          24
    1   1.9996683   1.0039257   0.9987653   0.9987652   0.9935731   0.0018653
           25          26          27          28          29          30
    1   0.0016603   0.0016603   0.0001787   0.0001787   0.0000456   0.0000456

 Head-Gordon Nu:    3.99
 Head-Gordon Nu_nl: 4.00

  Amplitudes : 
  
 | HOLE  | ALPHA | BETA  | PART  |    AMPLITUDE 
--------------------------------------------------
 |       | 011   | 100   |  24   |     2.0456514832726E-01
 |       | 101   | 010   |  24   |    -3.0204623054890E-01
 |       | 110   | 001   |  24   |     3.0204642485630E-01
 |       | 111   | 000   |  24   |     8.0865781590237E-01
 |       | 111   | 000   |  27   |     2.6868687105723E-01
--------------------------------------------------
*** Contributions RASCI wfn    Active:   0.00
                                 Hole:   0.07
                                 Part:  99.93

      Mulliken population analysis 
 ---------------------------------------------------
   Atom    Charge (a.u.)   Spin (a.u.)  
 ---------------------------------------------------
   1  N   -0.536857        1.477058 
   2 Br    0.536857        0.522942 
 ---------------------------------------------------
   Sum:    0.000000        2.000000 
 ---------------------------------------------------
 
*** Unpaired Electrons
 Yamaguchi Nd:         4.01
  
**************************************************
 RAS-CI total energy for state  24:  -2626.203356498543
  Excitation energy (eV) = 16.270556853022
  State symmetry: A2    (C2v      )
  <S^2>      :  6.0000
  Dipole Moment:   -0.0000 X     0.0000 Y     0.8004 Z
  Trans. Moment:    0.0000 X     0.0000 Y     0.0000 Z
  Strength   :  0.000000
  Natural transition orbitals ( 1 -> 24 ):
   e-/hole pair  1 alpha:  ampl =  0.499124 ( 24.9%)   [3 : 4]
   e-/hole pair  2 alpha:  ampl =  0.004993 (  0.0%)   [2 : 5]
   e-/hole pair  1 beta :  ampl =  0.499124 ( 24.9%)   [3 : 4]
   e-/hole pair  2 beta :  ampl =  0.004993 (  0.0%)   [2 : 5]
   Sum of square amplitudes: 0.50

 NATURAL OCCUPATION NUMBERS (higher than 1.0E-05)
            1           2           3           4           5           6
    1   2.0000000   2.0000000   2.0000000   2.0000000   2.0000000   2.0000000
            7           8           9          10          11          12
    1   2.0000000   2.0000000   2.0000000   2.0000000   2.0000000   2.0000000
           13          14          15          16          17          18
    1   2.0000000   2.0000000   2.0000000   2.0000000   2.0000000   2.0000000
           19          20          21          22          23
    1   2.0000000   1.0000000   1.0000000   1.0000000   1.0000000

 Head-Gordon Nu:    4.00
 Head-Gordon Nu_nl: 4.00

  Amplitudes : 
  
 | HOLE  | ALPHA | BETA  | PART  |    AMPLITUDE 
--------------------------------------------------
 |       | 011   | 100   |  23   |     1.3687674292592E-01
 |       | 011   | 100   |  24   |     2.8982889981017E-01
 |       | 011   | 100   |  27   |    -2.8234485971030E-01
 |       | 011   | 100   |  28   |     2.5502870048180E-01
 |       | 101   | 010   |  23   |    -1.3687674613762E-01
 |       | 101   | 010   |  24   |    -2.8982890784373E-01
 |       | 101   | 010   |  27   |     2.8234486925092E-01
 |       | 101   | 010   |  28   |    -2.5502870210214E-01
 |       | 110   | 001   |  23   |     1.3687674710054E-01
 |       | 110   | 001   |  24   |     2.8982891809678E-01
 |       | 110   | 001   |  27   |    -2.8234485586841E-01
 |       | 110   | 001   |  28   |     2.5502873878009E-01
 |       | 111   | 000   |  23   |    -1.3687674488423E-01
 |       | 111   | 000   |  24   |    -2.8982889243106E-01
 |       | 111   | 000   |  27   |     2.8234485736954E-01
 |       | 111   | 000   |  28   |    -2.5502871935942E-01
--------------------------------------------------
*** Contributions RASCI wfn    Active:   0.00
                                 Hole:   0.00
                                 Part: 100.00

      Mulliken population analysis 
 ---------------------------------------------------
   Atom    Charge (a.u.)   Spin (a.u.)  
 ---------------------------------------------------
   1  N    0.204585        1.380743 
   2 Br   -0.204585        0.619257 
 ---------------------------------------------------
   Sum:    0.000000        2.000000 
 ---------------------------------------------------
 
*** Unpaired Electrons
 Yamaguchi Nd:         4.00
  
**************************************************
 RAS-CI total energy for state  25:  -2626.181553441080
  Excitation energy (eV) = 16.863848232310
  State symmetry: A2    (C2v      )
  <S^2>      :  2.0000
  Dipole Moment:    0.0000 X    -0.0000 Y    -0.3181 Z
  Trans. Moment:    0.0000 X     0.0000 Y     0.0000 Z
  Strength   :  0.000000
  Natural transition orbitals ( 1 -> 25 ):
   e-/hole pair  1 alpha:  ampl =  0.680074 ( 46.3%)   [3 : 4]
   e-/hole pair  2 alpha:  ampl =  0.680061 ( 46.2%)   [2 : 5]
   e-/hole pair  1 beta :  ampl =  0.013100 (  0.0%)   [3 : 4]
   e-/hole pair  2 beta :  ampl =  0.010265 (  0.0%)   [2 : 5]
[...]
 <Sz= 2.00|      0.000000      0.000000i       0.000000      0.000000i    -206.973457     -8.461374i
Mean-Field SOCC =   378.195746306 cm-1
   
**************************************************
State A: Root 30
State B: Root 25
  
Angular momentum components (a.u.)
< B | Lx | A > =     0.002037370i
< B | Ly | A > =    -0.047038380i
< B | Lz | A > =    -0.000000000i
  
Norm of one-particle transition density matrix
||gamma^AB||_total       =  0.202323
||gamma^AB||_symmetrized =  0.153815
||gamma^AB||_anti-symm   =  0.131436
  
Spin-orbit couplings
 Using HF (reference) density for the 2-elec mean-field SOC contribution
KET: S',Sz' (Root  30) =  1.000 1.000
BRA: S ,Sz  (Root  25) =  1.000 1.000
Clebsh-Gordan coefficient: < 1.000, 1.000; 1.000, 0.000| 1.000, 1.000> =  0.707
 Reading 1e-SO integrals
 1e Reduced matrix elements (cm-1)
<S|| Hso(L-) ||S'> =   -54.7472937027     2.3689962230i
<S|| Hso(L0) ||S'> =     0.0000000000    -0.0000000008i
<S|| Hso(L+) ||S'> =   -54.7472937027    -2.3689962230i
 1-elec SOC matrix (cm-1): < B(S,Sz) | Hso(1e) | A(S',Sz') >
                       |Sz'=-1.00>                |Sz'= 0.00>                |Sz'= 1.00>
 <Sz=-1.00|      0.000000      0.000000i     -38.712183     -1.675133i      -0.000000     -0.000000i
 <Sz= 0.00|     38.712183     -1.675133i       0.000000      0.000000i     -38.712183     -1.675133i
 <Sz= 1.00|     -0.000000      0.000000i      38.712183     -1.675133i       0.000000     -0.000000i
1-elec SOCC =    77.496816849 cm-1
 Reading 2e-SOMF integrals
 2e-SOMF Reduced matrix elements (cm-1)
<S|| Hso(L-) ||S'> =     7.6745295762    -0.3320754367i
<S|| Hso(L0) ||S'> =     0.0000000000     0.0000000001i
<S|| Hso(L+) ||S'> =     7.6745295762     0.3320754367i
 2-elec mean-field SOC matrix (cm-1): < B(S,Sz) | Hso(2e-mf) | A(S',Sz') >
                       |Sz'=-1.00>                |Sz'= 0.00>                |Sz'= 1.00>
 <Sz=-1.00|     -0.000000     -0.000000i       5.426712      0.234813i       0.000000      0.000000i
 <Sz= 0.00|     -5.426712      0.234813i      -0.000000     -0.000000i       5.426712      0.234813i
 <Sz= 1.00|      0.000000     -0.000000i      -5.426712      0.234813i      -0.000000      0.000000i
 Total mean-field SOC matrix (cm-1): < B(S,Sz) | Hsomf | A(S',Sz') >
                       |Sz'=-1.00>                |Sz'= 0.00>                |Sz'= 1.00>
 <Sz=-1.00|      0.000000      0.000000i     -33.285471     -1.440321i      -0.000000     -0.000000i
 <Sz= 0.00|     33.285471     -1.440321i       0.000000      0.000000i     -33.285471     -1.440321i
 <Sz= 1.00|     -0.000000      0.000000i      33.285471     -1.440321i       0.000000     -0.000000i
Mean-Field SOCC =    66.633237484 cm-1
   
**************************************************
State A: Root 30
State B: Root 26
  
Angular momentum components (a.u.)
< B | Lx | A > =    -0.047054964i
< B | Ly | A > =    -0.002034299i
< B | Lz | A > =     0.000000000i
  
Norm of one-particle transition density matrix
||gamma^AB||_total       =  0.202314
||gamma^AB||_symmetrized =  0.153809
||gamma^AB||_anti-symm   =  0.131430
  
Spin-orbit couplings
 Using HF (reference) density for the 2-elec mean-field SOC contribution
KET: S',Sz' (Root  30) =  1.000 1.000
BRA: S ,Sz  (Root  26) =  1.000 1.000
Clebsh-Gordan coefficient: < 1.000, 1.000; 1.000, 0.000| 1.000, 1.000> =  0.707
 Reading 1e-SO integrals
 1e Reduced matrix elements (cm-1)
<S|| Hso(L-) ||S'> =    -2.3689089012   -54.7434537343i
<S|| Hso(L0) ||S'> =     0.0000000000     0.0000000001i
<S|| Hso(L+) ||S'> =    -2.3689089012    54.7434537343i
 1-elec SOC matrix (cm-1): < B(S,Sz) | Hso(1e) | A(S',Sz') >
                       |Sz'=-1.00>                |Sz'= 0.00>                |Sz'= 1.00>
 <Sz=-1.00|      0.000000     -0.000000i      -1.675072     38.709467i      -0.000000      0.000000i
 <Sz= 0.00|      1.675072     38.709467i       0.000000     -0.000000i      -1.675072     38.709467i
 <Sz= 1.00|     -0.000000     -0.000000i       1.675072     38.709467i       0.000000      0.000000i
1-elec SOCC =    77.491386052 cm-1
 Reading 2e-SOMF integrals
 2e-SOMF Reduced matrix elements (cm-1)
<S|| Hso(L-) ||S'> =     0.3320846580     7.6737683771i
<S|| Hso(L0) ||S'> =     0.0000000000    -0.0000000000i
<S|| Hso(L+) ||S'> =     0.3320846580    -7.6737683771i
 2-elec mean-field SOC matrix (cm-1): < B(S,Sz) | Hso(2e-mf) | A(S',Sz') >
                       |Sz'=-1.00>                |Sz'= 0.00>                |Sz'= 1.00>
 <Sz=-1.00|     -0.000000      0.000000i       0.234819     -5.426174i       0.000000     -0.000000i
 <Sz= 0.00|     -0.234819     -5.426174i      -0.000000      0.000000i       0.234819     -5.426174i
 <Sz= 1.00|      0.000000      0.000000i      -0.234819     -5.426174i      -0.000000     -0.000000i
 Total mean-field SOC matrix (cm-1): < B(S,Sz) | Hsomf | A(S',Sz') >
                       |Sz'=-1.00>                |Sz'= 0.00>                |Sz'= 1.00>
 <Sz=-1.00|      0.000000     -0.000000i      -1.440252     33.283294i      -0.000000      0.000000i
 <Sz= 0.00|      1.440252     33.283294i       0.000000     -0.000000i      -1.440252     33.283294i
 <Sz= 1.00|     -0.000000     -0.000000i       1.440252     33.283294i       0.000000      0.000000i
Mean-Field SOCC =    66.628881615 cm-1
   
**************************************************
State A: Root 30
State B: Root 27
  
Angular momentum components (a.u.)
< B | Lx | A > =    -0.022464418i
< B | Ly | A > =    -0.549478583i
< B | Lz | A > =    -0.000000000i
  
Norm of one-particle transition density matrix
||gamma^AB||_total       =  0.613043
||gamma^AB||_symmetrized =  0.440851
||gamma^AB||_anti-symm   =  0.425996
  
Spin-orbit couplings
 Using HF (reference) density for the 2-elec mean-field SOC contribution
KET: S',Sz' (Root  30) =  1.000 1.000
BRA: S ,Sz  (Root  27) =  1.000 1.000
Clebsh-Gordan coefficient: < 1.000, 1.000; 1.000, 0.000| 1.000, 1.000> =  0.707
 Reading 1e-SO integrals
 1e Reduced matrix elements (cm-1)
<S|| Hso(L-) ||S'> =   -61.9188040253    -2.5313002894i
<S|| Hso(L0) ||S'> =     0.0000000000     0.0000000001i
<S|| Hso(L+) ||S'> =   -61.9188040253     2.5313002894i
 1-elec SOC matrix (cm-1): < B(S,Sz) | Hso(1e) | A(S',Sz') >
                       |Sz'=-1.00>                |Sz'= 0.00>                |Sz'= 1.00>
 <Sz=-1.00|      0.000000     -0.000000i     -43.783206      1.789900i      -0.000000      0.000000i
 <Sz= 0.00|     43.783206      1.789900i       0.000000     -0.000000i     -43.783206      1.789900i
 <Sz= 1.00|     -0.000000     -0.000000i      43.783206      1.789900i       0.000000      0.000000i
1-elec SOCC =    87.639554689 cm-1
 Reading 2e-SOMF integrals
 2e-SOMF Reduced matrix elements (cm-1)
<S|| Hso(L-) ||S'> =     5.1599305193     0.2109361307i
<S|| Hso(L0) ||S'> =     0.0000000000    -0.0000000000i
<S|| Hso(L+) ||S'> =     5.1599305193    -0.2109361307i
 2-elec mean-field SOC matrix (cm-1): < B(S,Sz) | Hso(2e-mf) | A(S',Sz') >
                       |Sz'=-1.00>                |Sz'= 0.00>                |Sz'= 1.00>
 <Sz=-1.00|     -0.000000      0.000000i       3.648622     -0.149154i       0.000000     -0.000000i
 <Sz= 0.00|     -3.648622     -0.149154i      -0.000000      0.000000i       3.648622     -0.149154i
 <Sz= 1.00|      0.000000      0.000000i      -3.648622     -0.149154i      -0.000000     -0.000000i
 Total mean-field SOC matrix (cm-1): < B(S,Sz) | Hsomf | A(S',Sz') >
                       |Sz'=-1.00>                |Sz'= 0.00>                |Sz'= 1.00>
 <Sz=-1.00|      0.000000     -0.000000i     -40.134584      1.640745i      -0.000000      0.000000i
 <Sz= 0.00|     40.134584      1.640745i       0.000000     -0.000000i     -40.134584      1.640745i
 <Sz= 1.00|     -0.000000     -0.000000i      40.134584      1.640745i       0.000000      0.000000i
Mean-Field SOCC =    80.336216136 cm-1
   
**************************************************
State A: Root 30
State B: Root 28
  
Angular momentum components (a.u.)
< B | Lx | A > =     0.000000012i
< B | Ly | A > =    -0.000000192i
< B | Lz | A > =     0.000000000i
  
Norm of one-particle transition density matrix
||gamma^AB||_total       =  0.602711
||gamma^AB||_symmetrized =  0.426141
||gamma^AB||_anti-symm   =  0.426222
  
Spin-orbit couplings
 Using HF (reference) density for the 2-elec mean-field SOC contribution
KET: S',Sz' (Root  30) =  1.000 1.000
BRA: S ,Sz  (Root  28) =  2.000 1.000
Clebsh-Gordan coefficient: < 1.000, 1.000; 1.000, 0.000| 2.000, 1.000> =  0.707
 Reading 1e-SO integrals
 1e Reduced matrix elements (cm-1)
<S|| Hso(L-) ||S'> =  -277.9760552895   -11.3641765304i
<S|| Hso(L0) ||S'> =     0.0000000000    -0.0000000001i
<S|| Hso(L+) ||S'> =  -277.9760552895    11.3641765304i
 1-elec SOC matrix (cm-1): < B(S,Sz) | Hso(1e) | A(S',Sz') >
                       |Sz'=-1.00>                |Sz'= 0.00>                |Sz'= 1.00>
 <Sz=-2.00|   -277.976055     11.364177i       0.000000      0.000000i       0.000000      0.000000i
 <Sz=-1.00|     -0.000000     -0.000000i    -196.558754      8.035686i      -0.000000      0.000000i
 <Sz= 0.00|   -113.483249     -4.639406i       0.000000     -0.000000i    -113.483249      4.639406i
 <Sz= 1.00|     -0.000000     -0.000000i    -196.558754     -8.035686i      -0.000000     -0.000000i
 <Sz= 2.00|      0.000000      0.000000i       0.000000      0.000000i    -277.976055    -11.364177i
1-elec SOCC =   507.936452136 cm-1
 Reading 2e-SOMF integrals
 2e-SOMF Reduced matrix elements (cm-1)
<S|| Hso(L-) ||S'> =    29.8060410125     1.2185528165i
<S|| Hso(L0) ||S'> =     0.0000000000     0.0000000000i
<S|| Hso(L+) ||S'> =    29.8060410125    -1.2185528165i
 2-elec mean-field SOC matrix (cm-1): < B(S,Sz) | Hso(2e-mf) | A(S',Sz') >
                       |Sz'=-1.00>                |Sz'= 0.00>                |Sz'= 1.00>
 <Sz=-2.00|     29.806041     -1.218553i       0.000000      0.000000i       0.000000      0.000000i
 <Sz=-1.00|      0.000000      0.000000i      21.076054     -0.861647i       0.000000     -0.000000i
 <Sz= 0.00|     12.168265      0.497472i      -0.000000      0.000000i      12.168265     -0.497472i
 <Sz= 1.00|      0.000000      0.000000i      21.076054      0.861647i       0.000000      0.000000i
 <Sz= 2.00|      0.000000      0.000000i       0.000000      0.000000i      29.806041      1.218553i
 Total mean-field SOC matrix (cm-1): < B(S,Sz) | Hsomf | A(S',Sz') >
                       |Sz'=-1.00>                |Sz'= 0.00>                |Sz'= 1.00>
 <Sz=-2.00|   -248.170014     10.145624i       0.000000      0.000000i       0.000000      0.000000i
 <Sz=-1.00|     -0.000000     -0.000000i    -175.482700      7.174039i      -0.000000      0.000000i
 <Sz= 0.00|   -101.314984     -4.141934i       0.000000     -0.000000i    -101.314984      4.141934i
 <Sz= 1.00|     -0.000000     -0.000000i    -175.482700     -7.174039i      -0.000000     -0.000000i
 <Sz= 2.00|      0.000000      0.000000i       0.000000      0.000000i    -248.170014    -10.145624i
Mean-Field SOCC =   453.472857206 cm-1
   
**************************************************
State A: Root 30
State B: Root 29
  
Angular momentum components (a.u.)
< B | Lx | A > =    -0.000000000i
< B | Ly | A > =    -0.000000000i
< B | Lz | A > =     1.000000000i
  
Norm of one-particle transition density matrix
||gamma^AB||_total       =  0.765716
||gamma^AB||_symmetrized =  0.541629
||gamma^AB||_anti-symm   =  0.541256
  
Spin-orbit couplings
 Using HF (reference) density for the 2-elec mean-field SOC contribution
KET: S',Sz' (Root  30) =  1.000 1.000
BRA: S ,Sz  (Root  29) =  1.000 1.000
Clebsh-Gordan coefficient: < 1.000, 1.000; 1.000, 0.000| 1.000, 1.000> =  0.707
 Reading 1e-SO integrals
 1e Reduced matrix elements (cm-1)
<S|| Hso(L-) ||S'> =    -0.0000000002     0.0000000003i
<S|| Hso(L0) ||S'> =     0.0000000000  -258.7841546594i
<S|| Hso(L+) ||S'> =    -0.0000000002    -0.0000000003i
 1-elec SOC matrix (cm-1): < B(S,Sz) | Hso(1e) | A(S',Sz') >
                       |Sz'=-1.00>                |Sz'= 0.00>                |Sz'= 1.00>
 <Sz=-1.00|      0.000000    182.988031i      -0.000000     -0.000000i      -0.000000     -0.000000i
 <Sz= 0.00|      0.000000     -0.000000i       0.000000     -0.000000i      -0.000000     -0.000000i
 <Sz= 1.00|     -0.000000     -0.000000i       0.000000     -0.000000i       0.000000   -182.988031i
1-elec SOCC =   258.784154659 cm-1
 Reading 2e-SOMF integrals
 2e-SOMF Reduced matrix elements (cm-1)
<S|| Hso(L-) ||S'> =     0.0000000000    -0.0000000000i
<S|| Hso(L0) ||S'> =     0.0000000000    25.5965599779i
<S|| Hso(L+) ||S'> =     0.0000000000     0.0000000000i
 2-elec mean-field SOC matrix (cm-1): < B(S,Sz) | Hso(2e-mf) | A(S',Sz') >
                       |Sz'=-1.00>                |Sz'= 0.00>                |Sz'= 1.00>
 <Sz=-1.00|     -0.000000    -18.099501i       0.000000      0.000000i       0.000000      0.000000i
 <Sz= 0.00|     -0.000000      0.000000i      -0.000000      0.000000i       0.000000      0.000000i
 <Sz= 1.00|      0.000000      0.000000i      -0.000000      0.000000i      -0.000000     18.099501i
 Total mean-field SOC matrix (cm-1): < B(S,Sz) | Hsomf | A(S',Sz') >
                       |Sz'=-1.00>                |Sz'= 0.00>                |Sz'= 1.00>
 <Sz=-1.00|      0.000000    164.888529i      -0.000000     -0.000000i      -0.000000     -0.000000i
 <Sz= 0.00|      0.000000     -0.000000i       0.000000     -0.000000i      -0.000000     -0.000000i
 <Sz= 1.00|     -0.000000     -0.000000i       0.000000     -0.000000i       0.000000   -164.888529i
Mean-Field SOCC =   233.187594682 cm-1
   
**************************************************
RAS-CI timing summary (seconds)
  CPU time         28.83s
  System time       0.00s
  Wall time        33.00s
Detailed CPU timing summary
     Fock matrix         :         0.3255 s
     Integrals           :         0.5584 s
     Addressing matrices :         0.0000 s
     Guesses             :         0.0006 s
     Iterations          :         4.8955 s
     Properties          :        23.0462 s
     RAS-CI(2) correction:         0.0000 s
  
 
 --------------------------------------------------------------
             Orbital Energies (a.u.) and Symmetries
 --------------------------------------------------------------
 
 Alpha MOs, Restricted
 -- Doubly Occupied --           
-490.06  -65.21  -58.56  -58.56  -58.56  -15.70   -9.88   -7.49
  1 A1    2 A1    3 A1    1 B1    1 B2    4 A1    5 A1    6 A1                 
 -7.485  -7.485  -3.236  -3.232  -3.232  -3.222  -3.222  -1.223
  2 B1    2 B2    7 A1    3 B1    3 B2    1 A2    8 A1    9 A1                 
 -0.969  -0.501  -0.501  -0.562
 10 A1    4 B1    4 B2   11 A1                                                 
 -- Singly Occupied (Occupied) --
 -0.541  -0.541
  5 B1    5 B2                                                                 
 -- Virtual --                   
  0.102   0.314   0.353   0.353   0.409   0.421   0.429   0.429
 12 A1   13 A1    6 B1    6 B2   14 A1   15 A1    2 A2   16 A1                 
  0.455   0.455   0.527   0.527   0.686   1.075   1.169   1.169
  7 B1    7 B2    8 B1    8 B2   17 A1   18 A1    3 A2   19 A1                 
  1.302   1.302   1.418   1.562   1.562   1.603   1.603   1.782
  9 B1    9 B2   20 A1    4 A2   21 A1   10 B1   10 B2   11 B1                 
  1.782   1.814   1.814   1.834   1.848   1.848   1.857   2.059
 11 B2   22 A1    5 A2   23 A1   12 B1   12 B2   24 A1   13 B1                 
  2.059   2.145   2.289   2.426   2.426   3.351   4.162   4.162
 13 B2   25 A1   26 A1   14 B1   14 B2   27 A1   15 B1   15 B2                 
  4.159   4.159   4.187   4.187   4.410   4.410   4.403   4.704
 16 B1   16 B2   28 A1    6 A2   29 A1    7 A2   30 A1   17 B1                 
  4.704   4.763   4.763   4.929   5.071   5.071   5.395   8.146
 17 B2    8 A2   31 A1   32 A1   18 B1   18 B2   33 A1   34 A1                 
 32.550
 35 A1                                                                         
 
 Beta MOs, Restricted
 -- Doubly Occupied --           
-490.06  -65.21  -58.56  -58.56  -58.56  -15.64   -9.88   -7.49
  1 A1    2 A1    3 A1    1 B1    1 B2    4 A1    5 A1    6 A1                 
 -7.483  -7.483  -3.235  -3.230  -3.230  -3.220  -3.220  -1.117
  2 B1    2 B2    7 A1    3 B1    3 B2    1 A2    8 A1    9 A1                 
 -0.827  -0.461  -0.461  -0.503
 10 A1    4 B1    4 B2   11 A1                                                 
 -- Singly Occupied (Vacant) --  
  0.150   0.150
  5 B1    5 B2                                                                 
 -- Virtual --                   
  0.132   0.323   0.357   0.357   0.431   0.440   0.438   0.438
 12 A1   13 A1    6 B1    6 B2   14 A1   15 A1    2 A2   16 A1                 
  0.519   0.519   0.552   0.552   0.707   1.086   1.288   1.288
  7 B1    7 B2    8 B1    8 B2   17 A1   18 A1    3 A2   19 A1                 
  1.353   1.353   1.444   1.568   1.568   1.617   1.617   1.789
  9 B1    9 B2   20 A1    4 A2   21 A1   10 B1   10 B2   11 B1                 
  1.789   1.829   1.829   1.838   1.854   1.854   1.888   2.108
 11 B2   22 A1    5 A2   23 A1   12 B1   12 B2   24 A1   13 B1                 
  2.108   2.206   2.308   2.533   2.533   3.385   4.194   4.194
 13 B2   25 A1   26 A1   14 B1   14 B2   27 A1   15 B1   15 B2                 
  4.257   4.257   4.252   4.252   4.417   4.417   4.437   4.735
 16 B1   16 B2   28 A1    6 A2   29 A1    7 A2   30 A1   17 B1                 
  4.735   4.917   4.917   4.951   5.144   5.144   5.439   8.149
 17 B2    8 A2   31 A1   32 A1   18 B1   18 B2   33 A1   34 A1                 
 32.583
 35 A1                                                                         
 --------------------------------------------------------------
 
          Ground-State Mulliken Net Atomic Charges

     Atom                 Charge (a.u.)
  ----------------------------------------
      1 N                    -0.052500
      2 Br                    0.052500
  ----------------------------------------
  Sum of atomic charges =     0.000000

 -----------------------------------------------------------------
                    Cartesian Multipole Moments
 -----------------------------------------------------------------
    Charge (ESU x 10^10)
                 0.0000
    Dipole Moment (Debye)
         X      -0.0000      Y      -0.0000      Z       0.6475
       Tot       0.6475
    Quadrupole Moments (Debye-Ang)
        XX     -23.8270     XY      -0.0000     YY     -23.8270
        XZ      -0.0000     YZ      -0.0000     ZZ     -23.8630
    Octopole Moments (Debye-Ang^2)
       XXX      -0.0000    XXY      -0.0000    XYY      -0.0000
       YYY      -0.0000    XXZ       2.1938    XYZ      -0.0000
       YYZ       2.1938    XZZ       0.0000    YZZ      -0.0000
       ZZZ      15.0133
    Hexadecapole Moments (Debye-Ang^3)
      XXXX     -26.7954   XXXY      -0.0000   XXYY      -8.9318
      XYYY      -0.0000   YYYY     -26.7954   XXXZ      -0.0000
      XXYZ       0.0000   XYYZ      -0.0000   YYYZ       0.0000
      XXZZ     -22.1436   XYZZ      -0.0000   YYZZ     -22.1436
      XZZZ      -0.0000   YZZZ       0.0000   ZZZZ    -113.7123
 -----------------------------------------------------------------
 Total job time:  38.04s(wall), 33.40s(cpu) 
 Thu Sep  5 17:06:08 2024

======= MOLDEN-FORMATTED INPUT FILE FOLLOWS =======
[Molden Format]
[Atoms] (Angs)
  N      1    7      0.00000000      0.00000000     -1.48916667
 Br      2   35      0.00000000      0.00000000      0.29783333

======= END OF MOLDEN-FORMATTED INPUT FILE =======


        *************************************************************
        *                                                           *
        *  Thank you very much for using Q-Chem.  Have a nice day.  *
        *                                                           *
        *************************************************************


