                  Welcome to Q-Chem
     A Quantum Leap Into The Future Of Chemistry


 Q-Chem 6.0 (devel), Q-Chem, Inc., Pleasanton, CA (2022)

 E. Epifanovsky,  A. T. B. Gilbert,  Xintian Feng,  Joonho Lee,  Yuezhi Mao,  
 N. Mardirossian,  P. Pokhilko,  A. White,  M. Wormit,  M. P. Coons,  
 A. L. Dempwolff,  Zhengting Gan,  D. Hait,  P. R. Horn,  L. D. Jacobson,  
 I. Kaliman,  J. Kussmann,  A. W. Lange,  Ka Un Lao,  D. S. Levine,  Jie Liu,  
 S. C. McKenzie,  A. F. Morrison,  K. Nanda,  F. Plasser,  D. R. Rehn,  
 M. L. Vidal,  Zhi-Qiang You,  Ying Zhu,  B. Alam,  B. Albrecht,  
 A. Aldossary,  E. Alguire,  J. H. Andersen,  V. Athavale,  D. Barton,  
 K. Begam,  A. Behn,  N. Bellonzi,  Y. A. Bernard,  E. J. Berquist,  
 H. Burton,  A. Carreras,  K. Carter-Fenk,  Romit Chakraborty,  
 Chandrima Chakravarty,  Junhan Chen,  A. D. Chien,  K. D. Closser,  
 V. Cofer-Shabica,  L. Cunha,  S. Dasgupta,  Jia Deng,  M. de Wergifosse,  
 M. Diedenhofen,  Hainam Do,  S. Ehlert,  Po-Tung Fang,  S. Fatehi,  
 Qingguo Feng,  T. Friedhoff,  B. Ganoe,  J. Gayvert,  Qinghui Ge,  
 G. Gidofalvi,  M. Goldey,  J. Gomes,  C. Gonzalez-Espinoza,  S. Gulania,  
 A. Gunina,  J. A. Gyamfi,  M. W. D. Hanson-Heine,  P. H. P. Harbach,  
 A. W. Hauser,  M. F. Herbst,  M. Hernandez Vera,  M. Hodecker,  
 Z. C. Holden,  S. Houck,  Xunkun Huang,  Kerwin Hui,  B. C. Huynh,  
 K. Ikeda,  M. Ivanov,  Hyunjun Ji,  Zuxin Jin,  Hanjie Jiang,  B. Kaduk,  
 S. Kaehler,  R. Kang,  K. Khistyaev,  Jaehoon Kim,  Yongbin Kim,  
 P. Klunzinger,  Z. Koczor-Benda,  Joong Hoon Koh,  D. Kosenkov,  
 Saikiran Kotaru,  L. Koulias,  T. Kowalczyk,  C. M. Krauter,  K. Kue,  
 A. Kunitsa,  T. Kus,  A. Landau,  K. V. Lawler,  D. Lefrancois,  S. Lehtola,  
 Rain Li,  Shaozhi Li,  Yi-Pei Li,  Jiashu Liang,  M. Liebenthal,  
 Hung-Hsuan Lin,  You-Sheng Lin,  Fenglai Liu,  Kuan-Yu Liu,  
 M. Loipersberger,  A. Luenser,  C. Malbon,  A. Manjanath,  P. Manohar,  
 E. Mansoor,  S. F. Manzer,  Shan-Ping Mao,  A. V. Marenich,  T. Markovich,  
 S. Mason,  F. Matz,  S. A. Maurer,  P. F. McLaughlin,  M. F. S. J. Menger,  
 J.-M. Mewes,  S. A. Mewes,  P. Morgante,  Mohammad Mostafanejad,  
 J. W. Mullinax,  K. J. Oosterbaan,  G. Paran,  V. Parravicini,  
 Alexander C. Paul,  Suranjan K. Paul,  F. Pavosevic,  Zheng Pei,  S. Prager,  
 E. I. Proynov,  E. Ramos,  B. Rana,  A. E. Rask,  A. Rettig,  R. M. Richard,  
 F. Rob,  E. Rossomme,  T. Scheele,  M. Scheurer,  M. Schneider,  
 P. E. Schneider,  N. Sergueev,  S. M. Sharada,  Hengyuan Shen,  
 W. Skomorowski,  D. W. Small,  C. J. Stein,  Yingli Su,  Yu-Chuan Su,  
 E. J. Sundstrom,  Zhen Tao,  J. Thirman,  Hung-Yi Tsai,  T. Tsuchimochi,  
 N. M. Tubman,  C. Utku,  S. P. Veccham,  O. Vydrov,  J. Wenzel,  
 Jonathan Wong,  J. Witte,  A. Yamada,  Chou-Hsun Yang,  Kun Yao,  
 S. Yeganeh,  S. R. Yost,  A. Zech,  F. Zeller,  Igor Ying Zhang,  
 Xing Zhang,  Yu Zhang,  D. Zuev,  A. Aspuru-Guzik,  A. T. Bell,  
 N. A. Besley,  K. B. Bravaya,  B. R. Brooks,  D. Casanova,  Jeng-Da Chai,  
 Hsing-Ta Chen,  S. Coriani,  C. J. Cramer,  A. E. DePrince, III,  
 R. A. DiStasio Jr.,  A. Dreuw,  B. D. Dunietz,  T. R. Furlani,  
 W. A. Goddard III,  S. Grimme,  S. Hammes-Schiffer,  T. Head-Gordon,  
 W. J. Hehre,  Chao-Ping Hsu,  T.-C. Jagau,  Yousung Jung,  A. Klamt,  
 Jing Kong,  D. S. Lambrecht,  Xiangyuan Li,  WanZhen Liang,  N. J. Mayhall,  
 C. W. McCurdy,  J. B. Neaton,  T. Neudecker,  C. Ochsenfeld,  
 J. A. Parkhill,  R. Peverati,  V. A. Rassolov,  Haisheng Ren,  Yihan Shao,  
 L. V. Slipchenko,  R. P. Steele,  J. E. Subotnik,  A. J. W. Thom,  
 A. Tkatchenko,  D. G. Truhlar,  T. Van Voorhis,  Fan Wang,  
 T. A. Wesolowski,  K. B. Whaley,  H. L. Woodcock III,  P. M. Zimmerman,  
 S. Faraji,  P. M. W. Gill,  M. Head-Gordon,  J. M. Herbert,  A. I. Krylov

 Contributors to earlier versions of Q-Chem not listed above: 
 R. D. Adamson,  B. Austin,  R. Baer,  J. Baker,  G. J. O. Beran,  
 K. Brandhorst,  S. T. Brown,  E. F. C. Byrd,  Arup K. Chakraborty,  
 G. K. L. Chan,  Chun-Min Chang,  Yunqing Chen,  C.-L. Cheng,  
 Siu Hung Chien,  D. M. Chipman,  D. L. Crittenden,  H. Dachsel,  
 R. J. Doerksen,  A. D. Dutoi,  R. G. Edgar,  J. Fosso-Tande,  
 L. Fusti-Molnar,  D. Ghosh,  A. Ghysels,  A. Golubeva-Zadorozhnaya,  
 J. Gonthier,  M. S. Gordon,  S. R. Gwaltney,  G. Hawkins,  J. E. Herr,  
 A. Heyden,  S. Hirata,  E. G. Hohenstein,  G. Kedziora,  F. J. Keil,  
 C. Kelley,  Jihan Kim,  R. A. King,  R. Z. Khaliullin,  P. P. Korambath,  
 W. Kurlancheek,  A. Laurent,  A. M. Lee,  M. S. Lee,  S. V. Levchenko,  
 Ching Yeh Lin,  D. Liotard,  E. Livshits,  R. C. Lochan,  I. Lotan,  
 L. A. Martinez-Martinez,  P. E. Maslen,  N. Nair,  D. P. O'Neill,  
 D. Neuhauser,  E. Neuscamman,  C. M. Oana,  R. Olivares-Amaya,  R. Olson,  
 T. M. Perrine,  B. Peters,  P. A. Pieniazek,  A. Prociuk,  Y. M. Rhee,  
 J. Ritchie,  M. A. Rohrdanz,  E. Rosta,  N. J. Russ,  H. F. Schaefer III,  
 M. W. Schmidt,  N. E. Schultz,  S. Sharma,  N. Shenvi,  C. D. Sherrill,  
 A. C. Simmonett,  A. Sodt,  T. Stein,  D. Stuck,  K. S. Thanthiriwatte,  
 V. Vanovschi,  L. Vogt,  Tao Wang,  A. Warshel,  M. A. Watson,  
 C. F. Williams,  Q. Wu,  X. Xu,  Jun Yang,  W. Zhang,  Yan Zhao

   Please cite Q-Chem as follows:
  "Software for the frontiers of quantum chemistry:
   An overview of developments in the Q-Chem 5 package"
   J. Chem. Phys. 155, 084801 (2021)
   https://doi.org/10.1063/5.0055522 (open access)

 Q-Chem 6.0.1 for Intel X86 EM64T Linux

 Parts of Q-Chem use Armadillo 9.900.5 (Nocturnal Misbehaviour).
 http://arma.sourceforge.net/

 Q-Chem begins on Thu Sep  5 17:05:04 2024  

 Host: hyperion-291
0

     Scratch files written to ./qchem1689270//
 Processing $rem in /scratch/abel/SOFTWARE/qchem/config/preferences:
 Processing $rem in /home/acebg/.qchemrc:

 Checking the input file for inconsistencies... 	...done.

--------------------------------------------------------------
User input:
--------------------------------------------------------------
$comment
 RAS-SF CALCULATION
$end

$molecule
READ nf.molecule
$end

$rem
!**CALCULATION TYPE***     
JOBTYPE            sp    
EXCHANGE           HF
CORRELATION        RASCI    !RASCI=Casanova; RASCI2=Zimmerman
BASIS              def2-TZVP
!BASIS2             STO-3G

!***SCF REFERENCE***
!SKIP_SCFMAN        FALSE
UNRESTRICTED       FALSE
!SCF_GUESS          core
!SCF_GUESS_MIX      FALSE
!SCF_GUESS_ALWAYS   FALSE
MAX_SCF_CYCLES     500
!SCF_CONVERGENCE    10
SCF_ALGORITHM      DIIS_GDM !DIIS,DM,DIIS_DM,GDM,DIIS_GDM,GD

!SYMMETRY           TRUE   !use of symmetry for calculating integrals
!SYM_IGNORE         FALSE  !turn off using symmetry
!SYM_TOL            5      !tolerance for determining point group
!USE_ABELIAN_SUBGROUP      !define to use abelian group

!THRESH             14
!SCF_FINAL_PRINT     1 !0,1,2,3

!****RAS-SF****
RAS_ROOTS          30       !number of RAS-CI roots to be computed
SET_ITER           100     !number of iterations in RASCI
RAS_ELEC 4
RAS_ELEC_ALPHA 3
RAS_ELEC_BETA 1

RAS_ACT 3
RAS_ACT_ORB [7, 8, 9]
RAS_OCC 6
!N_FROZEN_CORE      FC     !Number of frozen core orbitals
!N_FROZEN_VIRTUAL   0      !Number of frozen virtual orbitals

!RAS_DO_HOLE        TRUE   !presence of hole excitations in RAS-CI wave function
!RAS_DO_PART        TRUE   !presence of particle excitations
!RAS_AMPL_PRINT     10     !threshold (×10 2 ) for the CI amplitudes

!RAS_GUESS_CS       0      !number of closed shell guess conﬁgurations
!RAS_SPIN_MULT      0      !spin multiplicity. Only for Ms = 0 
!RAS_SRDFT          FALSE  !short-range density functional RAS-CI
!RAS_NFRAG          0     !fragments of excitation analysis in RASCI

RAS_PRINT          2      !level of information
!RAS_NATORB         TRUE   !computation of the natural orbital occupancies
!RAS_NATORB_STATE  0      !Saves NO of i RAS computed state in .fchk ﬁle
!RAS_FOD            TRUE

!****RAS-SOC****
CALC_SOC           TRUE   !calculate SOC for EOM-CC, RAS-CI, ADC, TDDFT/TDA and TDDFT
!RAS_SOC_2E        TRUE   !two-electron mean-ﬁeld contribution, default=true
RAS_SOC_SYM_DENS   TRUE   !averaging of α and β densities

!****MEMORY****
MEM_TOTAL          50000 !Default 2000 MB
MEM_STATIC         2000  !Default 64 MB

!**Molecular Properties and Analysis **                                                                                          
GUI                0       !Checkpoints generation
STATE_ANALYSIS     TRUE
$end
--------------------------------------------------------------
 ----------------------------------------------------------------
             Standard Nuclear Orientation (Angstroms)
    I     Atom           X                Y                Z
 ----------------------------------------------------------------
    1      N       0.0000000000     0.0000000000    -0.7407562500
    2      F       0.0000000000     0.0000000000     0.5761437500
 ----------------------------------------------------------------
 Molecular Point Group                 C2v   NOp =  4
 Largest Abelian Subgroup              C2v   NOp =  4
 Nuclear Repulsion Energy =          25.31563845 hartrees
 There are        9 alpha and        7 beta electrons
 Requested basis set is def2-TZVP
 There are 22 shells and 62 basis functions

 Total QAlloc Memory Limit  50000 MB
 Mega-Array Size      1956 MB
 MEM_STATIC part      2000 MB


                       Distance Matrix (Angstroms)
             N (  1)
   F (  2)  1.316900
 
 A cutoff of  1.0D-09 yielded    251 shell pairs
 There are      2051 function pairs (      2794 Cartesian)
 Smallest overlap matrix eigenvalue = 6.25E-03

 Scale SEOQF with 1.000000e+00/1.000000e+00/1.000000e+00

 Standard Electronic Orientation quadrupole field applied
 Nucleus-field energy     =    -0.0000000073 hartrees
 Guess from superposition of atomic densities
 Warning:  Energy on first SCF cycle will be non-variational
 SAD guess density has 16.000000 electrons

 -----------------------------------------------------------------------
  General SCF calculation program by
  Eric Jon Sundstrom, Paul Horn, Yuezhi Mao, Dmitri Zuev, Alec White,
  David Stuck, Shaama M.S., Shane Yost, Joonho Lee, David Small,
  Daniel Levine, Susi Lehtola, Hugh Burton, Evgeny Epifanovsky,
  Bang C. Huynh
 -----------------------------------------------------------------------
 Hartree-Fock
 Orthonormalizing orbitals
 A restricted open-shell SCF calculation will be
 performed using DIIS, GDM
 SCF converges when RMS gradient is below 1.0e-05
 ---------------------------------------
  Cycle       Energy         DIIS error
 ---------------------------------------
    1    -152.2995066883      1.20e-01  
    2    -153.3960163120      9.41e-02  
    3    -153.7459894510      3.92e-02  
    4    -153.7991989086      2.59e-02  
    5    -153.8337229341      4.43e-03  Done DIIS. Switching to GDM
 ---------------------------------------
  Cycle       Energy        RMS Gradient
 ---------------------------------------
    1    -153.8337229341      3.08e-02   Normal BFGS step
    2    -153.8344913438      1.77e-02   Normal BFGS step
    3    -153.8352794450      1.46e-03   Normal BFGS step
    4    -153.8352888674      6.24e-04   Normal BFGS step
    5    -153.8352897569      1.18e-04   Normal BFGS step
    6    -153.8352897883      3.83e-05   Normal BFGS step
    7    -153.8352897929      1.09e-05   Normal BFGS step
    8    -153.8352897852      2.59e-06  Convergence criterion met
The disked orbital energies are calculated using alpha and beta Focks
 ---------------------------------------
 SCF time:   CPU 1.13s  wall 2.00s 
<S^2> =          2.000000000
 SCF   energy in the final basis set =     -153.8352897852
 Total energy in the final basis set =     -153.8352897852
  
     ##========================================##
     ||                                        ||
     ||              R A S M A N 2             ||
     ||________________________________________||
     ||                                        ||
     ||  Author:                               ||
     ||                                        ||
     ||        David Casanova (2010)           ||
     ||                                        ||
     ##========================================##
  
Setting single-point xc-functionals (if necessary)

  ***************************************************
  *  RAS-CI Dimensions:                             *
  *                                                 *
  *  Active Elec.:   4 ( 3, 1)   Active Orb.:   3   *
  *  Doubly Occ. :   6           Doubly Vir.:  53   *
  *  Frozen Occ. :   0           Frozen Vir.:   0   *
  *                                                 *
  *  Total CI configurations:       551             * 
  *    Active configurations:         3             * 
  *      Hole configurations:        18             * 
  *  Particle configurations:       530             * 
  *                                                 *
  *   Requested states:       30                    *
  *  Spin multiplicity: Any multiplicity            *
  *                                                 *
  ***************************************************
-----------------------------------------
    Memory requirements of RASCI

 Each CI-vector requires      0.00 MiB 
 Max. subspace vectors            551      

 Reduced Lists                0.00 MiB 
 Excitation Lists             0.00 MiB 
 Excitation Lists Sign        0.00 MiB 
 CI-space (Max)               4.76 MiB 
 Integrals                    0.76 MiB 
 Memory required (Max)        4.76 MiB 
 Memory available          1907.35 MiB 

    Disk requirements of RASCI

 Fock matrix                  0.06 MiB 
 2-electron integrals         0.85 MiB 
 CI-space                     4.63 MiB 
 Disk required                5.54 MiB 
-----------------------------------------
  
RAS1 HF-like energy:           -148.0832149692
 Computing integrals
 Computing J and K matrices
 Computing addressing
 Making amplitude guesses
 
Direct CI diagonalization
 ---------------------------------------------------
 Iter    Rts Conv    Rts Left    Ttl Dev     Max Dev
 ---------------------------------------------------
   1         0          30      0.192560    0.010794
   2         0          30      0.190616    0.023652
   3         0          30      0.130557    0.015511
   4         0          30      0.082000    0.011379
   5         0          30      0.037033    0.004875
   6         0          30      0.021053    0.002539
   7         0          30      0.009315    0.001772
   8         1          29      0.003611    0.001041
   9         5          25      0.000945    0.000256
  10        13          17      0.000370    0.000104
  11        20          10      0.000165    0.000060
  12        23           7      0.000059    0.000021
  13        28           2      0.000016    0.000004
  14        28           2      0.000011    0.000002
  15        30           0      0.000008    0.000001    Roots Converged
 ---------------------------------------------------
   
**************************************************
 RAS-CI total energy for state   1:   -153.846089592717
  Excitation energy (eV) =  0.000000000000
  State symmetry: A2    (C2v      )
  <S^2>      :  2.0000
  Dipole Moment:    0.0000 X    -0.0000 Y     0.1478 Z
 NATURAL OCCUPATION NUMBERS (higher than 1.0E-05)
            1           2           3           4           5           6
    1   2.0000000   2.0000000   2.0000000   2.0000000   2.0000000   2.0000000
            7           8           9          10          11          12
    1   1.9932481   1.0003741   1.0003741   0.0022722   0.0014916   0.0014916
           13          14
    1   0.0003741   0.0003741

 Head-Gordon Nu:    2.01
 Head-Gordon Nu_nl: 2.00
 Created directory ./qchem1689270/plots

  Amplitudes : 
  
 | HOLE  | ALPHA | BETA  | PART  |    AMPLITUDE 
--------------------------------------------------
 |       | 111   | 100   |       |     9.9698443376750E-01
--------------------------------------------------
*** Contributions RASCI wfn    Active:  99.40
                                 Hole:   0.00
                                 Part:   0.60

      Mulliken population analysis 
 ---------------------------------------------------
   Atom    Charge (a.u.)   Spin (a.u.)  
 ---------------------------------------------------
   1  N    0.162927        1.916524 
   2  F   -0.162927        0.083476 
 ---------------------------------------------------
   Sum:   -0.000000        2.000000 
 ---------------------------------------------------
 
*** Unpaired Electrons
 Yamaguchi Nd:         2.03
  
**************************************************
 RAS-CI total energy for state   2:   -153.584128952941
  Excitation energy (eV) =  7.128311685467
  State symmetry: B2    (C2v      )
  <S^2>      :  2.0000
  Dipole Moment:    0.0000 X     0.0000 Y     0.1991 Z
  Trans. Moment:   -0.4201 X    -0.0144 Y     0.0000 Z
  Strength   :  0.030853
  Natural transition orbitals ( 1 -> 2 ):
   e-/hole pair  1 alpha:  ampl =  0.145987 (  2.1%)   [3 : 4]
   e-/hole pair  2 alpha:  ampl =  0.049683 (  0.2%)   [2 : 5]
   e-/hole pair  1 beta :  ampl =  0.980309 ( 96.1%)   [3 : 4]
   e-/hole pair  2 beta :  ampl =  0.021414 (  0.0%)   [2 : 5]
   Sum of square amplitudes: 0.99

 NATURAL OCCUPATION NUMBERS (higher than 1.0E-05)
            1           2           3           4           5           6
    1   2.0000000   2.0000000   2.0000000   2.0000000   1.9998540   1.9990566
            7           8           9          10          11          12
    1   1.9502855   1.0244896   0.9979142   0.0214608   0.0034236   0.0026648
           13          14          15          16          17
    1   0.0003658   0.0002111   0.0001625   0.0000566   0.0000498

 Head-Gordon Nu:    2.05
 Head-Gordon Nu_nl: 2.01

  Amplitudes : 
  
 | HOLE  | ALPHA | BETA  | PART  |    AMPLITUDE 
--------------------------------------------------
 |       | 111   | 010   |       |     9.5453323901180E-01
 |   4   | 111   | 110   |       |    -2.0935287588189E-01
 |       | 101   | 100   |  10   |    -1.1570894020642E-01
--------------------------------------------------
*** Contributions RASCI wfn    Active:  91.22
                                 Hole:   4.55
                                 Part:   4.22

      Mulliken population analysis 
 ---------------------------------------------------
   Atom    Charge (a.u.)   Spin (a.u.)  
 ---------------------------------------------------
   1  N    0.040540        1.755366 
   2  F   -0.040540        0.244634 
 ---------------------------------------------------
   Sum:   -0.000000        2.000000 
 ---------------------------------------------------
 
*** Unpaired Electrons
 Yamaguchi Nd:         2.15
  
**************************************************
 RAS-CI total energy for state   3:   -153.584128913245
  Excitation energy (eV) =  7.128312765638
  State symmetry: B1    (C2v      )
  <S^2>      :  2.0000
  Dipole Moment:    0.0000 X    -0.0000 Y     0.1991 Z
  Trans. Moment:    0.0144 X    -0.4201 Y     0.0000 Z
  Strength   :  0.030853
  Natural transition orbitals ( 1 -> 3 ):
   e-/hole pair  1 alpha:  ampl =  0.145987 (  2.1%)   [3 : 4]
   e-/hole pair  2 alpha:  ampl =  0.049683 (  0.2%)   [2 : 5]
   e-/hole pair  1 beta :  ampl =  0.980309 ( 96.1%)   [3 : 4]
   e-/hole pair  2 beta :  ampl =  0.021414 (  0.0%)   [2 : 5]
   Sum of square amplitudes: 0.99

 NATURAL OCCUPATION NUMBERS (higher than 1.0E-05)
            1           2           3           4           5           6
    1   2.0000000   2.0000000   2.0000000   2.0000000   1.9998540   1.9990566
            7           8           9          10          11          12
    1   1.9502854   1.0244897   0.9979142   0.0214608   0.0034236   0.0026648
           13          14          15          16          17
    1   0.0003658   0.0002111   0.0001625   0.0000566   0.0000498

 Head-Gordon Nu:    2.05
 Head-Gordon Nu_nl: 2.01

  Amplitudes : 
  
 | HOLE  | ALPHA | BETA  | PART  |    AMPLITUDE 
--------------------------------------------------
 |       | 111   | 001   |       |     9.5453319623112E-01
 |   4   | 111   | 101   |       |    -2.0935281149728E-01
 |       | 110   | 100   |  10   |     1.1570917536616E-01
--------------------------------------------------
*** Contributions RASCI wfn    Active:  91.22
                                 Hole:   4.55
                                 Part:   4.22

      Mulliken population analysis 
 ---------------------------------------------------
   Atom    Charge (a.u.)   Spin (a.u.)  
 ---------------------------------------------------
   1  N    0.040540        1.755366 
   2  F   -0.040540        0.244634 
 ---------------------------------------------------
   Sum:   -0.000000        2.000000 
 ---------------------------------------------------
 
*** Unpaired Electrons
 Yamaguchi Nd:         2.15
  
**************************************************
 RAS-CI total energy for state   4:   -153.512535664008
  Excitation energy (eV) =  9.076464196223
  State symmetry: B1    (C2v      )
  <S^2>      :  2.0000
  Dipole Moment:    0.0000 X    -0.0000 Y     0.6658 Z
  Trans. Moment:   -0.0041 X     0.1236 Y     0.0000 Z
  Strength   :  0.003403
  Natural transition orbitals ( 1 -> 4 ):
   e-/hole pair  1 alpha:  ampl =  0.970102 ( 94.1%)   [3 : 4]
   e-/hole pair  2 alpha:  ampl =  0.021524 (  0.0%)   [2 : 5]
   e-/hole pair  1 beta :  ampl =  0.192817 (  3.7%)   [3 : 4]
   e-/hole pair  2 beta :  ampl =  0.012171 (  0.0%)   [2 : 5]
   Sum of square amplitudes: 0.98

 NATURAL OCCUPATION NUMBERS (higher than 1.0E-05)
            1           2           3           4           5           6
    1   2.0000000   2.0000000   2.0000000   2.0000000   1.9999268   1.9929289
            7           8           9          10          11          12
    1   1.9401550   1.0005300   0.9602609   0.1040128   0.0009460   0.0006384
           13          14          15          16
    1   0.0002994   0.0001411   0.0000983   0.0000587

 Head-Gordon Nu:    2.13
 Head-Gordon Nu_nl: 2.05

  Amplitudes : 
  
 | HOLE  | ALPHA | BETA  | PART  |    AMPLITUDE 
--------------------------------------------------
 |       | 111   | 001   |       |    -1.5061588118506E-01
 |   4   | 111   | 101   |       |    -1.1540641582694E-01
 |       | 110   | 100   |  10   |     8.3931730666263E-01
 |       | 110   | 100   |  11   |     1.6380959217467E-01
 |       | 110   | 100   |  14   |     4.4612847599143E-01
 |       | 110   | 100   |  15   |     1.1274876252670E-01
 |       | 011   | 001   |  10   |     1.0054166961494E-01
--------------------------------------------------
*** Contributions RASCI wfn    Active:   2.27
                                 Hole:   1.41
                                 Part:  96.32

      Mulliken population analysis 
 ---------------------------------------------------
   Atom    Charge (a.u.)   Spin (a.u.)  
 ---------------------------------------------------
   1  N    0.251672        1.773350 
   2  F   -0.251672        0.226650 
 ---------------------------------------------------
   Sum:   -0.000000        2.000000 
 ---------------------------------------------------
 
*** Unpaired Electrons
 Yamaguchi Nd:         2.33
  
**************************************************
 RAS-CI total energy for state   5:   -153.512535538506
  Excitation energy (eV) =  9.076467611321
  State symmetry: B2    (C2v      )
  <S^2>      :  2.0000
  Dipole Moment:    0.0000 X    -0.0000 Y     0.6658 Z
  Trans. Moment:   -0.1236 X    -0.0041 Y     0.0000 Z
  Strength   :  0.003403
  Natural transition orbitals ( 1 -> 5 ):
   e-/hole pair  1 alpha:  ampl =  0.970102 ( 94.1%)   [3 : 4]
   e-/hole pair  2 alpha:  ampl =  0.021524 (  0.0%)   [2 : 5]
   e-/hole pair  1 beta :  ampl =  0.192817 (  3.7%)   [3 : 4]
   e-/hole pair  2 beta :  ampl =  0.012171 (  0.0%)   [2 : 5]
   Sum of square amplitudes: 0.98

 NATURAL OCCUPATION NUMBERS (higher than 1.0E-05)
            1           2           3           4           5           6
    1   2.0000000   2.0000000   2.0000000   2.0000000   1.9999268   1.9929289
            7           8           9          10          11          12
    1   1.9401550   1.0005300   0.9602609   0.1040128   0.0009460   0.0006384
           13          14          15          16
    1   0.0002994   0.0001411   0.0000983   0.0000587

 Head-Gordon Nu:    2.13
 Head-Gordon Nu_nl: 2.05

  Amplitudes : 
  
 | HOLE  | ALPHA | BETA  | PART  |    AMPLITUDE 
--------------------------------------------------
 |       | 111   | 010   |       |     1.5061563478090E-01
 |   4   | 111   | 110   |       |     1.1540659433256E-01
 |       | 101   | 100   |  10   |     8.3931734457944E-01
 |       | 101   | 100   |  11   |     1.6380962974678E-01
 |       | 101   | 100   |  14   |     4.4612841683020E-01
 |       | 101   | 100   |  15   |     1.1274875854767E-01
 |       | 011   | 010   |  10   |    -1.0054171114993E-01
--------------------------------------------------
*** Contributions RASCI wfn    Active:   2.27
                                 Hole:   1.41
                                 Part:  96.32

      Mulliken population analysis 
 ---------------------------------------------------
   Atom    Charge (a.u.)   Spin (a.u.)  
 ---------------------------------------------------
   1  N    0.251672        1.773349 
   2  F   -0.251672        0.226651 
 ---------------------------------------------------
   Sum:   -0.000000        2.000000 
 ---------------------------------------------------
 
*** Unpaired Electrons
 Yamaguchi Nd:         2.33
  
**************************************************
 RAS-CI total energy for state   6:   -153.462976159239
  Excitation energy (eV) = 10.425046934744
  State symmetry: A2    (C2v      )
  <S^2>      :  6.0000
  Dipole Moment:    0.0000 X     0.0000 Y     0.2433 Z
  Trans. Moment:    0.0000 X    -0.0000 Y     0.0000 Z
  Strength   :  0.000000
  Natural transition orbitals ( 1 -> 6 ):
   e-/hole pair  1 alpha:  ampl =  0.498656 ( 24.9%)   [3 : 4]
   e-/hole pair  2 alpha:  ampl =  0.005536 (  0.0%)   [2 : 5]
   e-/hole pair  1 beta :  ampl =  0.498656 ( 24.9%)   [3 : 4]
   e-/hole pair  2 beta :  ampl =  0.005536 (  0.0%)   [2 : 5]
   Sum of square amplitudes: 0.50

 NATURAL OCCUPATION NUMBERS (higher than 1.0E-05)
            1           2           3           4           5           6
    1   2.0000000   2.0000000   2.0000000   2.0000000   2.0000000   2.0000000
            7           8           9          10
    1   1.0000000   1.0000000   1.0000000   1.0000000

 Head-Gordon Nu:    4.00
 Head-Gordon Nu_nl: 4.00

  Amplitudes : 
  
 | HOLE  | ALPHA | BETA  | PART  |    AMPLITUDE 
--------------------------------------------------
 |       | 011   | 100   |  10   |    -4.3358619293704E-01
 |       | 011   | 100   |  14   |    -2.2640966037525E-01
 |       | 101   | 010   |  10   |     4.3358619284744E-01
 |       | 101   | 010   |  14   |     2.2640966013483E-01
 |       | 110   | 001   |  10   |    -4.3358619301930E-01
 |       | 110   | 001   |  14   |    -2.2640966009016E-01
 |       | 111   | 000   |  10   |     4.3358619293884E-01
 |       | 111   | 000   |  14   |     2.2640966030494E-01
--------------------------------------------------
*** Contributions RASCI wfn    Active:   0.00
                                 Hole:   0.00
                                 Part: 100.00

      Mulliken population analysis 
 ---------------------------------------------------
   Atom    Charge (a.u.)   Spin (a.u.)  
 ---------------------------------------------------
   1  N   -0.036654        1.700043 
   2  F    0.036654        0.299957 
 ---------------------------------------------------
   Sum:   -0.000000        2.000000 
 ---------------------------------------------------
 
*** Unpaired Electrons
 Yamaguchi Nd:         4.00
  
**************************************************
 RAS-CI total energy for state   7:   -153.345488513364
  Excitation energy (eV) = 13.622048437353
  Warning: not all configurations have same symmetry
  State symmetry: *A2    (C2v      )
  <S^2>      :  2.0000
  Dipole Moment:    0.0000 X     0.0000 Y    -2.0613 Z
  Trans. Moment:   -0.0000 X     0.0000 Y     0.0000 Z
  Strength   :  0.000000
  Natural transition orbitals ( 1 -> 7 ):
   e-/hole pair  1 alpha:  ampl =  0.021383 (  0.0%)   [3 : 4]
   e-/hole pair  2 alpha:  ampl =  0.021382 (  0.0%)   [2 : 5]
   e-/hole pair  1 beta :  ampl =  0.699579 ( 48.9%)   [3 : 4]
   e-/hole pair  2 beta :  ampl =  0.699524 ( 48.9%)   [2 : 5]
   Sum of square amplitudes: 0.98

 NATURAL OCCUPATION NUMBERS (higher than 1.0E-05)
            1           2           3           4           5           6
    1   2.0000000   2.0000000   2.0000000   2.0000000   1.9854950   1.5077029
            7           8           9          10          11          12
    1   1.5076245   1.4919646   1.4918856   0.0141932   0.0004672   0.0004671
           13          14          15          16
    1   0.0000979   0.0000406   0.0000406   0.0000196

 Head-Gordon Nu:    2.03
 Head-Gordon Nu_nl: 2.25

  Amplitudes : 
  
 | HOLE  | ALPHA | BETA  | PART  |    AMPLITUDE 
--------------------------------------------------
 |   5   | 111   | 110   |       |    -1.9488830877167E-01
 |   6   | 111   | 110   |       |     6.7408482798598E-01
 |   5   | 111   | 101   |       |    -6.7402964964344E-01
 |   6   | 111   | 101   |       |    -1.9489689781629E-01
--------------------------------------------------
*** Contributions RASCI wfn    Active:   0.00
                                 Hole:  98.47
                                 Part:   1.53

      Mulliken population analysis 
 ---------------------------------------------------
   Atom    Charge (a.u.)   Spin (a.u.)  
 ---------------------------------------------------
   1  N   -0.731031        1.023392 
   2  F    0.731031        0.976608 
 ---------------------------------------------------
   Sum:   -0.000000        2.000000 
 ---------------------------------------------------
 
*** Unpaired Electrons
 Yamaguchi Nd:         3.06
  
**************************************************
 RAS-CI total energy for state   8:   -153.345488513354
  Excitation energy (eV) = 13.622048437639
  Warning: not all configurations have same symmetry
  State symmetry: *A2    (C2v      )
  <S^2>      :  2.0000
  Dipole Moment:    0.0000 X    -0.0000 Y    -2.0613 Z
  Trans. Moment:   -0.0000 X    -0.0000 Y    -0.0000 Z
  Strength   :  0.000000
  Natural transition orbitals ( 1 -> 8 ):
   e-/hole pair  1 alpha:  ampl =  0.021383 (  0.0%)   [3 : 4]
   e-/hole pair  2 alpha:  ampl =  0.021381 (  0.0%)   [2 : 5]
   e-/hole pair  1 beta :  ampl =  0.699559 ( 48.9%)   [3 : 4]
   e-/hole pair  2 beta :  ampl =  0.699544 ( 48.9%)   [2 : 5]
   Sum of square amplitudes: 0.98

 NATURAL OCCUPATION NUMBERS (higher than 1.0E-05)
            1           2           3           4           5           6
    1   2.0000000   2.0000000   2.0000000   2.0000000   1.9854950   1.5076746
            7           8           9          10          11          12
    1   1.5076528   1.4919359   1.4919142   0.0141932   0.0004672   0.0004671
           13          14          15          16
    1   0.0000979   0.0000406   0.0000406   0.0000196

 Head-Gordon Nu:    2.03
 Head-Gordon Nu_nl: 2.25

  Amplitudes : 
  
 | HOLE  | ALPHA | BETA  | PART  |    AMPLITUDE 
--------------------------------------------------
 |   5   | 111   | 110   |       |     6.7404967286775E-01
 |   6   | 111   | 110   |       |     1.9489085370750E-01
 |   5   | 111   | 101   |       |    -1.9489435338693E-01
 |   6   | 111   | 101   |       |     6.7406480568785E-01
--------------------------------------------------
*** Contributions RASCI wfn    Active:   0.00
                                 Hole:  98.47
                                 Part:   1.53

      Mulliken population analysis 
 ---------------------------------------------------
   Atom    Charge (a.u.)   Spin (a.u.)  
 ---------------------------------------------------
   1  N   -0.731031        1.023392 
   2  F    0.731031        0.976608 
 ---------------------------------------------------
   Sum:   -0.000000        2.000000 
 ---------------------------------------------------
 
*** Unpaired Electrons
 Yamaguchi Nd:         3.06
  
**************************************************
 RAS-CI total energy for state   9:   -153.340818423454
  Excitation energy (eV) = 13.749128049405
  State symmetry: A1    (C2v      )
  <S^2>      :  2.0000
  Dipole Moment:    0.0000 X    -0.0000 Y    -2.0950 Z
  Trans. Moment:   -0.0000 X    -0.0000 Y    -0.0000 Z
  Strength   :  0.000000
  Natural transition orbitals ( 1 -> 9 ):
   e-/hole pair  1 alpha:  ampl =  0.001929 (  0.0%)   [3 : 4]
   e-/hole pair  2 alpha:  ampl =  0.001928 (  0.0%)   [2 : 5]
   e-/hole pair  1 beta :  ampl =  0.704382 ( 49.6%)   [3 : 4]
   e-/hole pair  2 beta :  ampl =  0.704327 ( 49.6%)   [2 : 5]
   Sum of square amplitudes: 0.99

 NATURAL OCCUPATION NUMBERS (higher than 1.0E-05)
            1           2           3           4           5           6
    1   2.0000000   2.0000000   2.0000000   1.9995290   1.9981272   1.5009195
            7           8           9          10          11          12
    1   1.5008421   1.4996848   1.4996067   0.0010830   0.0000620   0.0000620
           13          14
    1   0.0000410   0.0000410

 Head-Gordon Nu:    2.00
 Head-Gordon Nu_nl: 2.25

  Amplitudes : 
  
 | HOLE  | ALPHA | BETA  | PART  |    AMPLITUDE 
--------------------------------------------------
 |   6   | 111   | 110   |       |     7.0645788126869E-01
 |   5   | 111   | 101   |       |     7.0650948185607E-01
--------------------------------------------------
*** Contributions RASCI wfn    Active:   0.00
                                 Hole:  99.87
                                 Part:   0.13

      Mulliken population analysis 
 ---------------------------------------------------
   Atom    Charge (a.u.)   Spin (a.u.)  
 ---------------------------------------------------
   1  N   -0.741014        1.016668 
   2  F    0.741014        0.983332 
 ---------------------------------------------------
   Sum:   -0.000000        2.000000 
 ---------------------------------------------------
 
*** Unpaired Electrons
 Yamaguchi Nd:         3.01
  
**************************************************
 RAS-CI total energy for state  10:   -153.334340871624
  Excitation energy (eV) = 13.925391202685
  State symmetry: A2    (C2v      )
  <S^2>      :  2.0000
  Dipole Moment:    0.0000 X     0.0000 Y    -1.4358 Z
  Trans. Moment:   -0.0000 X     0.0000 Y     0.1037 Z
  Strength   :  0.003671
  Natural transition orbitals ( 1 -> 10 ):
   e-/hole pair  1 alpha:  ampl =  0.214124 (  4.6%)   [3 : 4]
   e-/hole pair  2 alpha:  ampl =  0.068855 (  0.5%)   [2 : 5]
   e-/hole pair  1 beta :  ampl =  0.593803 ( 35.3%)   [3 : 4]
   e-/hole pair  2 beta :  ampl =  0.593783 ( 35.3%)   [2 : 5]
   Sum of square amplitudes: 0.96

 NATURAL OCCUPATION NUMBERS (higher than 1.0E-05)
            1           2           3           4           5           6
    1   2.0000000   2.0000000   2.0000000   2.0000000   1.7188666   1.6453312
            7           8           9          10          11          12
    1   1.6453075   1.3500059   1.3499823   0.2797401   0.0047873   0.0047873
           13          14          15          16          17
    1   0.0005762   0.0002450   0.0002450   0.0000628   0.0000628

 Head-Gordon Nu:    2.58
 Head-Gordon Nu_nl: 2.69

  Amplitudes : 
  
 | HOLE  | ALPHA | BETA  | PART  |    AMPLITUDE 
--------------------------------------------------
 |   5   | 111   | 110   |       |     5.9559625072914E-01
 |   6   | 111   | 101   |       |    -5.9557684731941E-01
 |       | 011   | 100   |  10   |    -1.8792508298571E-01
 |       | 101   | 010   |  10   |     1.1304009384086E-01
 |       | 110   | 001   |  10   |    -1.1304292149706E-01
 |       | 111   | 000   |  10   |    -4.1400809832372E-01
 |       | 111   | 000   |  14   |    -1.5760983162923E-01
--------------------------------------------------
*** Contributions RASCI wfn    Active:   0.00
                                 Hole:  70.94
                                 Part:  29.05

      Mulliken population analysis 
 ---------------------------------------------------
   Atom    Charge (a.u.)   Spin (a.u.)  
 ---------------------------------------------------
   1  N   -0.550462        1.224171 
   2  F    0.550462        0.775829 
 ---------------------------------------------------
   Sum:   -0.000000        2.000000 
 ---------------------------------------------------
 
*** Unpaired Electrons
 Yamaguchi Nd:         3.91
  
**************************************************
 RAS-CI total energy for state  11:   -153.309547061208
  Excitation energy (eV) = 14.600065110451
  State symmetry: A1    (C2v      )
  <S^2>      :  2.0000
  Dipole Moment:    0.0000 X     0.0000 Y     0.2068 Z
  Trans. Moment:   -0.0000 X     0.0000 Y     0.0000 Z
  Strength   :  0.000000
  Natural transition orbitals ( 1 -> 11 ):
   e-/hole pair  1 alpha:  ampl =  0.042311 (  0.2%)   [3 : 4]
   e-/hole pair  2 alpha:  ampl =  0.042310 (  0.2%)   [2 : 5]
   e-/hole pair  1 beta :  ampl =  0.083184 (  0.7%)   [3 : 4]
   e-/hole pair  2 beta :  ampl =  0.083183 (  0.7%)   [2 : 5]
   Sum of square amplitudes: 0.02

 NATURAL OCCUPATION NUMBERS (higher than 1.0E-05)
            1           2           3           4           5           6
    1   2.0000000   2.0000000   2.0000000   2.0000000   1.9930914   1.9930913
            7           8           9          10          11          12
    1   1.0169461   1.0053470   1.0053415   0.9806326   0.0018462   0.0018462
           13          14          15          16
    1   0.0016522   0.0000837   0.0000837   0.0000374

 Head-Gordon Nu:    3.97
 Head-Gordon Nu_nl: 4.00

  Amplitudes : 
  
 | HOLE  | ALPHA | BETA  | PART  |    AMPLITUDE 
--------------------------------------------------
 |       | 110   | 010   |  10   |     6.1657043440071E-01
 |       | 110   | 010   |  14   |     3.0281480732187E-01
 |       | 101   | 001   |  10   |    -6.1656870545723E-01
 |       | 101   | 001   |  14   |    -3.0281380191613E-01
--------------------------------------------------
*** Contributions RASCI wfn    Active:   0.00
                                 Hole:   1.38
                                 Part:  98.62

      Mulliken population analysis 
 ---------------------------------------------------
   Atom    Charge (a.u.)   Spin (a.u.)  
 ---------------------------------------------------
   1  N   -0.062551        1.490786 
   2  F    0.062551        0.509214 
 ---------------------------------------------------
   Sum:   -0.000000        2.000000 
 ---------------------------------------------------
 
*** Unpaired Electrons
 Yamaguchi Nd:         4.04
  
**************************************************
 RAS-CI total energy for state  12:   -153.309547061177
  Excitation energy (eV) = 14.600065111288
  State symmetry: A2    (C2v      )
  <S^2>      :  2.0000
  Dipole Moment:    0.0000 X     0.0000 Y     0.2068 Z
  Trans. Moment:    0.0000 X    -0.0000 Y     0.0000 Z
  Strength   :  0.000000
  Natural transition orbitals ( 1 -> 12 ):
   e-/hole pair  1 alpha:  ampl =  0.042312 (  0.2%)   [3 : 4]
   e-/hole pair  2 alpha:  ampl =  0.042312 (  0.2%)   [2 : 5]
   e-/hole pair  1 beta :  ampl =  0.083183 (  0.7%)   [3 : 4]
   e-/hole pair  2 beta :  ampl =  0.083183 (  0.7%)   [2 : 5]
   Sum of square amplitudes: 0.02

 NATURAL OCCUPATION NUMBERS (higher than 1.0E-05)
            1           2           3           4           5           6
    1   2.0000000   2.0000000   2.0000000   2.0000000   1.9930914   1.9930913
            7           8           9          10          11          12
    1   1.0169463   1.0053452   1.0053431   0.9806323   0.0018464   0.0018464
           13          14          15          16
    1   0.0016521   0.0000837   0.0000837   0.0000374

 Head-Gordon Nu:    3.97
 Head-Gordon Nu_nl: 4.00

  Amplitudes : 
  
 | HOLE  | ALPHA | BETA  | PART  |    AMPLITUDE 
--------------------------------------------------
 |       | 101   | 010   |  10   |     6.1656995833085E-01
 |       | 101   | 010   |  14   |     3.0281452957536E-01
 |       | 110   | 001   |  10   |     6.1656918003713E-01
 |       | 110   | 001   |  14   |     3.0281419026798E-01
--------------------------------------------------
*** Contributions RASCI wfn    Active:   0.00
                                 Hole:   1.38
                                 Part:  98.62

      Mulliken population analysis 
 ---------------------------------------------------
   Atom    Charge (a.u.)   Spin (a.u.)  
 ---------------------------------------------------
   1  N   -0.062552        1.490788 
   2  F    0.062552        0.509212 
 ---------------------------------------------------
   Sum:   -0.000000        2.000000 
 ---------------------------------------------------
 
*** Unpaired Electrons
 Yamaguchi Nd:         4.04
  
**************************************************
 RAS-CI total energy for state  13:   -153.303371626206
  Excitation energy (eV) = 14.768107246573
  Warning: not all configurations have same symmetry
  State symmetry: *B2    (C2v      )
  <S^2>      :  2.0000
  Dipole Moment:    0.0000 X    -0.0000 Y    -0.0562 Z
  Trans. Moment:    0.1189 X    -0.4985 Y    -0.0000 Z
  Strength   :  0.095007
  Natural transition orbitals ( 1 -> 13 ):
   e-/hole pair  1 alpha:  ampl =  0.954325 ( 91.1%)   [3 : 4]
   e-/hole pair  2 alpha:  ampl =  0.053792 (  0.3%)   [2 : 5]
   e-/hole pair  1 beta :  ampl =  0.228260 (  5.2%)   [3 : 4]
   e-/hole pair  2 beta :  ampl =  0.046701 (  0.2%)   [2 : 5]
   Sum of square amplitudes: 0.97

 NATURAL OCCUPATION NUMBERS (higher than 1.0E-05)
            1           2           3           4           5           6
    1   2.0000000   2.0000000   2.0000000   2.0000000   1.9997698   1.9665487
            7           8           9          10          11          12
    1   1.9399778   1.0068138   0.9220701   0.1398093   0.0142244   0.0070113
           13          14          15          16
    1   0.0035022   0.0001661   0.0000716   0.0000322

 Head-Gordon Nu:    2.17
 Head-Gordon Nu_nl: 2.07

  Amplitudes : 
  
 | HOLE  | ALPHA | BETA  | PART  |    AMPLITUDE 
--------------------------------------------------
 |   4   | 111   | 101   |       |    -2.1218868572733E-01
 |       | 110   | 100   |  10   |    -1.7790454698640E-01
 |       | 110   | 100   |  11   |     9.0583743258585E-01
 |       | 101   | 100   |  11   |     2.1603622334651E-01
--------------------------------------------------
*** Contributions RASCI wfn    Active:   0.36
                                 Hole:   4.87
                                 Part:  94.77

      Mulliken population analysis 
 ---------------------------------------------------
   Atom    Charge (a.u.)   Spin (a.u.)  
 ---------------------------------------------------
   1  N   -0.085984        2.098202 
   2  F    0.085984       -0.098202 
 ---------------------------------------------------
   Sum:   -0.000000        2.000000 
 ---------------------------------------------------
 
*** Unpaired Electrons
 Yamaguchi Nd:         2.49
  
**************************************************
 RAS-CI total energy for state  14:   -153.303371536508
  Excitation energy (eV) = 14.768109687372
  Warning: not all configurations have same symmetry
  State symmetry: *B2    (C2v      )
  <S^2>      :  2.0000
  Dipole Moment:    0.0000 X     0.0000 Y    -0.0562 Z
  Trans. Moment:    0.4985 X     0.1189 Y    -0.0000 Z
  Strength   :  0.095007
  Natural transition orbitals ( 1 -> 14 ):
   e-/hole pair  1 alpha:  ampl =  0.954325 ( 91.1%)   [3 : 4]
   e-/hole pair  2 alpha:  ampl =  0.053792 (  0.3%)   [2 : 5]
   e-/hole pair  1 beta :  ampl =  0.228260 (  5.2%)   [3 : 4]
   e-/hole pair  2 beta :  ampl =  0.046701 (  0.2%)   [2 : 5]
   Sum of square amplitudes: 0.97

 NATURAL OCCUPATION NUMBERS (higher than 1.0E-05)
            1           2           3           4           5           6
    1   2.0000000   2.0000000   2.0000000   2.0000000   1.9997698   1.9665487
            7           8           9          10          11          12
    1   1.9399778   1.0068138   0.9220701   0.1398095   0.0142244   0.0070113
           13          14          15          16
    1   0.0035022   0.0001661   0.0000716   0.0000322

 Head-Gordon Nu:    2.17
 Head-Gordon Nu_nl: 2.07

  Amplitudes : 
  
 | HOLE  | ALPHA | BETA  | PART  |    AMPLITUDE 
--------------------------------------------------
 |   4   | 111   | 110   |       |     2.1218875972067E-01
 |       | 110   | 100   |  11   |    -2.1603613665950E-01
 |       | 101   | 100   |  10   |    -1.7790455950863E-01
 |       | 101   | 100   |  11   |     9.0583739657158E-01
--------------------------------------------------
*** Contributions RASCI wfn    Active:   0.36
                                 Hole:   4.87
                                 Part:  94.77

      Mulliken population analysis 
 ---------------------------------------------------
   Atom    Charge (a.u.)   Spin (a.u.)  
 ---------------------------------------------------
   1  N   -0.085984        2.098202 
   2  F    0.085984       -0.098202 
 ---------------------------------------------------
   Sum:   -0.000000        2.000000 
 ---------------------------------------------------
 
*** Unpaired Electrons
 Yamaguchi Nd:         2.49
  
**************************************************
 RAS-CI total energy for state  15:   -153.300937801363
  Excitation energy (eV) = 14.834334990111
  State symmetry: A2    (C2v      )
  <S^2>      :  2.0000
  Dipole Moment:    0.0000 X    -0.0000 Y     0.0711 Z
  Trans. Moment:   -0.0000 X     0.0000 Y    -0.3831 Z
  Strength   :  0.053349
  Natural transition orbitals ( 1 -> 15 ):
   e-/hole pair  1 alpha:  ampl =  0.398714 ( 15.9%)   [3 : 4]
   e-/hole pair  2 alpha:  ampl =  0.076613 (  0.6%)   [2 : 5]
   e-/hole pair  1 beta :  ampl =  0.543449 ( 29.5%)   [3 : 4]
   e-/hole pair  2 beta :  ampl =  0.219594 (  4.8%)   [2 : 5]
   Sum of square amplitudes: 0.56

 NATURAL OCCUPATION NUMBERS (higher than 1.0E-05)
            1           2           3           4           5           6
    1   2.0000000   2.0000000   2.0000000   2.0000000   1.9515077   1.9515070
            7           8           9          10          11          12
    1   1.1082902   1.0429812   1.0429805   0.8751638   0.0125674   0.0059165
           13          14          15          16          17
    1   0.0059165   0.0012278   0.0012278   0.0003568   0.0003568

 Head-Gordon Nu:    3.81
 Head-Gordon Nu_nl: 3.96

  Amplitudes : 
  
 | HOLE  | ALPHA | BETA  | PART  |    AMPLITUDE 
--------------------------------------------------
 |   5   | 111   | 110   |       |     2.2023884737418E-01
 |   6   | 111   | 101   |       |    -2.2023732679905E-01
 |       | 011   | 100   |  10   |    -3.2180677166962E-01
 |       | 011   | 100   |  14   |    -2.1467247898751E-01
 |       | 101   | 010   |  10   |    -4.2104667719910E-01
 |       | 101   | 010   |  14   |    -1.8485018293074E-01
 |       | 110   | 001   |  10   |     4.2104747026274E-01
 |       | 110   | 001   |  14   |     1.8485053999532E-01
 |       | 111   | 000   |  10   |     5.2028737579763E-01
 |       | 111   | 000   |  14   |     1.5502824388103E-01
--------------------------------------------------
*** Contributions RASCI wfn    Active:   0.02
                                 Hole:   9.70
                                 Part:  90.28

      Mulliken population analysis 
 ---------------------------------------------------
   Atom    Charge (a.u.)   Spin (a.u.)  
 ---------------------------------------------------
   1  N   -0.170189        1.590386 
   2  F    0.170189        0.409614 
 ---------------------------------------------------
   Sum:   -0.000000        2.000000 
 ---------------------------------------------------
 
*** Unpaired Electrons
 Yamaguchi Nd:         4.21
  
**************************************************
 RAS-CI total energy for state  16:   -153.247616171119
  Excitation energy (eV) = 16.285290371358
  Warning: not all configurations have same symmetry
  State symmetry: *B1    (C2v      )
  <S^2>      :  2.0000
  Dipole Moment:   -0.0000 X    -0.0000 Y    -0.9212 Z
  Trans. Moment:    0.2214 X    -0.1575 Y     0.0000 Z
  Strength   :  0.029449
  Natural transition orbitals ( 1 -> 16 ):
   e-/hole pair  1 alpha:  ampl =  0.303284 (  9.2%)   [3 : 4]
   e-/hole pair  2 alpha:  ampl =  0.073761 (  0.5%)   [2 : 5]
   e-/hole pair  1 beta :  ampl =  0.890796 ( 79.4%)   [3 : 4]
   e-/hole pair  2 beta :  ampl =  0.069742 (  0.5%)   [2 : 5]
   Sum of square amplitudes: 0.90

 NATURAL OCCUPATION NUMBERS (higher than 1.0E-05)
            1           2           3           4           5           6
    1   2.0000000   2.0000000   2.0000000   2.0000000   1.9953664   1.8228926
            7           8           9          10          11          12
    1   1.7961150   1.1957639   0.9935406   0.1186419   0.0531969   0.0098127
           13          14          15          16          17
    1   0.0062257   0.0054805   0.0026285   0.0003158   0.0000191

 Head-Gordon Nu:    2.38
 Head-Gordon Nu_nl: 2.22

  Amplitudes : 
  
 | HOLE  | ALPHA | BETA  | PART  |    AMPLITUDE 
--------------------------------------------------
 |       | 111   | 010   |       |     1.2362080600998E-01
 |   4   | 111   | 110   |       |     7.1186260431831E-01
 |   4   | 111   | 101   |       |    -5.0648357523039E-01
 |       | 110   | 100   |  11   |    -1.5434000494462E-01
 |       | 101   | 100   |  11   |    -2.1692484332481E-01
 |       | 011   | 010   |  10   |    -1.7815489704296E-01
 |       | 011   | 010   |  14   |    -1.3131497806853E-01
 |       | 011   | 001   |  10   |     1.2675555240383E-01
--------------------------------------------------
*** Contributions RASCI wfn    Active:   2.30
                                 Hole:  77.92
                                 Part:  19.78

      Mulliken population analysis 
 ---------------------------------------------------
   Atom    Charge (a.u.)   Spin (a.u.)  
 ---------------------------------------------------
   1  N   -0.206517        1.502237 
   2  F    0.206517        0.497763 
 ---------------------------------------------------
   Sum:   -0.000000        2.000000 
 ---------------------------------------------------
 
*** Unpaired Electrons
 Yamaguchi Nd:         3.04
  
**************************************************
 RAS-CI total energy for state  17:   -153.247616086506
  Excitation energy (eV) = 16.285292673802
  Warning: not all configurations have same symmetry
  State symmetry: *B1    (C2v      )
  <S^2>      :  2.0000
  Dipole Moment:    0.0000 X    -0.0000 Y    -0.9212 Z
  Trans. Moment:    0.1575 X     0.2214 Y     0.0000 Z
  Strength   :  0.029449
  Natural transition orbitals ( 1 -> 17 ):
   e-/hole pair  1 alpha:  ampl =  0.303284 (  9.2%)   [3 : 4]
   e-/hole pair  2 alpha:  ampl =  0.073761 (  0.5%)   [2 : 5]
   e-/hole pair  1 beta :  ampl =  0.890796 ( 79.4%)   [3 : 4]
   e-/hole pair  2 beta :  ampl =  0.069742 (  0.5%)   [2 : 5]
   Sum of square amplitudes: 0.90

 NATURAL OCCUPATION NUMBERS (higher than 1.0E-05)
            1           2           3           4           5           6
    1   2.0000000   2.0000000   2.0000000   2.0000000   1.9953664   1.8228926
            7           8           9          10          11          12
    1   1.7961147   1.1957640   0.9935406   0.1186419   0.0531970   0.0098127
           13          14          15          16          17
    1   0.0062257   0.0054805   0.0026286   0.0003158   0.0000191

 Head-Gordon Nu:    2.38
 Head-Gordon Nu_nl: 2.22

  Amplitudes : 
  
 | HOLE  | ALPHA | BETA  | PART  |    AMPLITUDE 
--------------------------------------------------
 |       | 111   | 001   |       |     1.2362067752213E-01
 |   4   | 111   | 110   |       |     5.0648349355441E-01
 |   4   | 111   | 101   |       |     7.1186259598708E-01
 |       | 110   | 100   |  11   |     2.1692499187563E-01
 |       | 101   | 100   |  11   |    -1.5434027564204E-01
 |       | 011   | 010   |  10   |    -1.2675552289727E-01
 |       | 011   | 001   |  10   |    -1.7815490650113E-01
 |       | 011   | 001   |  14   |    -1.3131495157509E-01
--------------------------------------------------
*** Contributions RASCI wfn    Active:   2.30
                                 Hole:  77.92
                                 Part:  19.78

      Mulliken population analysis 
 ---------------------------------------------------
   Atom    Charge (a.u.)   Spin (a.u.)  
 ---------------------------------------------------
   1  N   -0.206517        1.502238 
   2  F    0.206517        0.497762 
 ---------------------------------------------------
   Sum:   -0.000000        2.000000 
 ---------------------------------------------------
 
*** Unpaired Electrons
 Yamaguchi Nd:         3.04
  
**************************************************
 RAS-CI total energy for state  18:   -153.247470549499
  Excitation energy (eV) = 16.289252937259
  State symmetry: A1    (C2v      )
  <S^2>      :  2.0000
  Dipole Moment:    0.0000 X     0.0000 Y     0.1725 Z
  Trans. Moment:   -0.0000 X     0.0000 Y    -0.0000 Z
  Strength   :  0.000000
  Natural transition orbitals ( 1 -> 18 ):
   e-/hole pair  1 alpha:  ampl =  0.093229 (  0.9%)   [3 : 4]
   e-/hole pair  2 alpha:  ampl =  0.093228 (  0.9%)   [2 : 5]
   e-/hole pair  1 beta :  ampl =  0.020908 (  0.0%)   [3 : 4]
   e-/hole pair  2 beta :  ampl =  0.020907 (  0.0%)   [2 : 5]
   Sum of square amplitudes: 0.02

 NATURAL OCCUPATION NUMBERS (higher than 1.0E-05)
            1           2           3           4           5           6
    1   2.0000000   2.0000000   2.0000000   1.9996296   1.9996296   1.9780793
            7           8           9          10          11          12
    1   1.0172976   1.0140156   1.0140097   0.9586971   0.0090326   0.0090326
           13          14          15          16
    1   0.0002263   0.0002263   0.0000619   0.0000619

 Head-Gordon Nu:    3.95
 Head-Gordon Nu_nl: 4.00

  Amplitudes : 
  
 | HOLE  | ALPHA | BETA  | PART  |    AMPLITUDE 
--------------------------------------------------
 |   4   | 111   | 011   |       |    -1.4469225487660E-01
 |       | 110   | 010   |  10   |     6.0743384919803E-01
 |       | 110   | 010   |  11   |     1.1157125207340E-01
 |       | 110   | 010   |  14   |     2.9813868344542E-01
 |       | 101   | 001   |  10   |     6.0743569744519E-01
 |       | 101   | 001   |  11   |     1.1157149709149E-01
 |       | 101   | 001   |  14   |     2.9813935245912E-01
--------------------------------------------------
*** Contributions RASCI wfn    Active:   0.00
                                 Hole:   2.27
                                 Part:  97.73

      Mulliken population analysis 
 ---------------------------------------------------
   Atom    Charge (a.u.)   Spin (a.u.)  
 ---------------------------------------------------
   1  N   -0.052585        1.492117 
   2  F    0.052585        0.507883 
 ---------------------------------------------------
   Sum:   -0.000000        2.000000 
 ---------------------------------------------------
 
*** Unpaired Electrons
 Yamaguchi Nd:         4.08
  
**************************************************
 RAS-CI total energy for state  19:   -153.222452642413
  Excitation energy (eV) = 16.970024825640
  State symmetry: A2    (C2v      )
  <S^2>      :  2.0000
  Dipole Moment:    0.0000 X    -0.0000 Y    -0.2158 Z
  Trans. Moment:   -0.0000 X     0.0000 Y    -0.0000 Z
  Strength   :  0.000000
  Natural transition orbitals ( 1 -> 19 ):
   e-/hole pair  1 alpha:  ampl =  0.686800 ( 47.2%)   [3 : 4]
   e-/hole pair  2 alpha:  ampl =  0.686797 ( 47.2%)   [2 : 5]
   e-/hole pair  1 beta :  ampl =  0.024746 (  0.1%)   [3 : 4]
   e-/hole pair  2 beta :  ampl =  0.024746 (  0.1%)   [2 : 5]
   Sum of square amplitudes: 0.94

 NATURAL OCCUPATION NUMBERS (higher than 1.0E-05)
            1           2           3           4           5           6
    1   2.0000000   2.0000000   2.0000000   2.0000000   1.9993860   1.9993859
            7           8           9          10          11          12
    1   1.9442096   0.5291253   0.5291212   0.4775730   0.4775690   0.0434482
           13          14          15          16          17
    1   0.0001021   0.0000384   0.0000177   0.0000117   0.0000117

 Head-Gordon Nu:    2.11
 Head-Gordon Nu_nl: 2.29

  Amplitudes : 
  
 | HOLE  | ALPHA | BETA  | PART  |    AMPLITUDE 
--------------------------------------------------
 |       | 110   | 100   |  13   |     6.8609152014624E-01
 |       | 101   | 100   |  12   |    -6.8608896229415E-01
 |       | 101   | 010   |  11   |    -1.3780001503047E-01
 |       | 110   | 001   |  11   |    -1.3780072976736E-01
--------------------------------------------------
*** Contributions RASCI wfn    Active:   0.00
                                 Hole:   0.12
                                 Part:  99.88

      Mulliken population analysis 
 ---------------------------------------------------
   Atom    Charge (a.u.)   Spin (a.u.)  
 ---------------------------------------------------
   1  N    0.064665        1.985499 
   2  F   -0.064665        0.014501 
 ---------------------------------------------------
   Sum:   -0.000000        2.000000 
 ---------------------------------------------------
 
*** Unpaired Electrons
 Yamaguchi Nd:         3.21
  
**************************************************
 RAS-CI total energy for state  20:   -153.222452642403
  Excitation energy (eV) = 16.970024825926
  State symmetry: A1    (C2v      )
  <S^2>      :  2.0000
  Dipole Moment:    0.0000 X    -0.0000 Y    -0.2158 Z
  Trans. Moment:    0.0000 X     0.0000 Y    -0.0000 Z
  Strength   :  0.000000
  Natural transition orbitals ( 1 -> 20 ):
   e-/hole pair  1 alpha:  ampl =  0.686802 ( 47.2%)   [3 : 4]
   e-/hole pair  2 alpha:  ampl =  0.686796 ( 47.2%)   [2 : 5]
   e-/hole pair  1 beta :  ampl =  0.024746 (  0.1%)   [3 : 4]
   e-/hole pair  2 beta :  ampl =  0.024746 (  0.1%)   [2 : 5]
   Sum of square amplitudes: 0.94

 NATURAL OCCUPATION NUMBERS (higher than 1.0E-05)
            1           2           3           4           5           6
    1   2.0000000   2.0000000   2.0000000   2.0000000   1.9993860   1.9993859
            7           8           9          10          11          12
    1   1.9442096   0.5291275   0.5291191   0.4775750   0.4775669   0.0434482
           13          14          15          16          17
    1   0.0001021   0.0000384   0.0000177   0.0000117   0.0000117

 Head-Gordon Nu:    2.11
 Head-Gordon Nu_nl: 2.29

  Amplitudes : 
  
 | HOLE  | ALPHA | BETA  | PART  |    AMPLITUDE 
--------------------------------------------------
 |       | 110   | 100   |  12   |     6.8609269496008E-01
 |       | 101   | 100   |  13   |     6.8608778587112E-01
 |       | 110   | 010   |  11   |     1.3780074381020E-01
 |       | 101   | 001   |  11   |    -1.3779998468246E-01
--------------------------------------------------
*** Contributions RASCI wfn    Active:   0.00
                                 Hole:   0.12
                                 Part:  99.88

      Mulliken population analysis 
 ---------------------------------------------------
   Atom    Charge (a.u.)   Spin (a.u.)  
 ---------------------------------------------------
   1  N    0.064665        1.985499 
   2  F   -0.064665        0.014501 
 ---------------------------------------------------
   Sum:   -0.000000        2.000000 
 ---------------------------------------------------
 
*** Unpaired Electrons
 Yamaguchi Nd:         3.21
  
**************************************************
 RAS-CI total energy for state  21:   -153.209655035377
  Excitation energy (eV) = 17.318265431019
  State symmetry: A2    (C2v      )
  <S^2>      :  2.0000
  Dipole Moment:    0.0000 X    -0.0000 Y     0.0138 Z
  Trans. Moment:    0.0000 X     0.0000 Y    -0.8486 Z
  Strength   :  0.305550
  Natural transition orbitals ( 1 -> 21 ):
   e-/hole pair  1 alpha:  ampl =  0.532761 ( 28.4%)   [3 : 4]
   e-/hole pair  2 alpha:  ampl =  0.532756 ( 28.4%)   [2 : 5]
   e-/hole pair  1 beta :  ampl =  0.389891 ( 15.2%)   [3 : 4]
   e-/hole pair  2 beta :  ampl =  0.078181 (  0.6%)   [2 : 5]
   Sum of square amplitudes: 0.92

 NATURAL OCCUPATION NUMBERS (higher than 1.0E-05)
            1           2           3           4           5           6
    1   2.0000000   2.0000000   2.0000000   2.0000000   1.9938615   1.9938615
            7           8           9          10          11          12
    1   1.5800823   0.7225811   0.7225757   0.2870034   0.2869980   0.2666917
           13          14          15
    1   0.1460050   0.0001648   0.0001648

 Head-Gordon Nu:    2.86
 Head-Gordon Nu_nl: 2.91

  Amplitudes : 
  
 | HOLE  | ALPHA | BETA  | PART  |    AMPLITUDE 
--------------------------------------------------
 |       | 110   | 100   |  13   |     5.3247720273572E-01
 |       | 101   | 100   |  12   |     5.3248032477063E-01
 |       | 011   | 100   |  10   |     3.8985840870627E-01
 |       | 011   | 100   |  14   |     1.6106956402071E-01
 |       | 101   | 010   |  11   |     1.7777828503234E-01
 |       | 110   | 001   |  11   |    -1.7777760262043E-01
 |       | 111   | 000   |  10   |     2.5895548625422E-01
 |       | 111   | 000   |  11   |    -2.7627244457723E-01
--------------------------------------------------
*** Contributions RASCI wfn    Active:   0.03
                                 Hole:   1.23
                                 Part:  98.75

      Mulliken population analysis 
 ---------------------------------------------------
   Atom    Charge (a.u.)   Spin (a.u.)  
 ---------------------------------------------------
   1  N   -0.045049        1.861127 
   2  F    0.045049        0.138873 
 ---------------------------------------------------
   Sum:   -0.000000        2.000000 
 ---------------------------------------------------
 
*** Unpaired Electrons
 Yamaguchi Nd:         4.25
  
**************************************************
 RAS-CI total energy for state  22:   -153.209019400007
  Excitation energy (eV) = 17.335561949450
  State symmetry: A2    (C2v      )
  <S^2>      :  6.0000
  Dipole Moment:    0.0000 X     0.0000 Y    -0.5040 Z
  Trans. Moment:   -0.0000 X     0.0000 Y    -0.0000 Z
  Strength   :  0.000000
  Natural transition orbitals ( 1 -> 22 ):
   e-/hole pair  1 alpha:  ampl =  0.498676 ( 24.9%)   [3 : 4]
   e-/hole pair  2 alpha:  ampl =  0.007169 (  0.0%)   [2 : 5]
   e-/hole pair  1 beta :  ampl =  0.498676 ( 24.9%)   [3 : 4]
   e-/hole pair  2 beta :  ampl =  0.007169 (  0.0%)   [2 : 5]
   Sum of square amplitudes: 0.50

 NATURAL OCCUPATION NUMBERS (higher than 1.0E-05)
            1           2           3           4           5           6
    1   2.0000000   2.0000000   2.0000000   2.0000000   2.0000000   2.0000000
            7           8           9          10
    1   1.0000000   1.0000000   1.0000000   1.0000000

 Head-Gordon Nu:    4.00
 Head-Gordon Nu_nl: 4.00

  Amplitudes : 
  
 | HOLE  | ALPHA | BETA  | PART  |    AMPLITUDE 
--------------------------------------------------
 |       | 011   | 100   |  11   |    -4.9317638720366E-01
 |       | 101   | 010   |  11   |     4.9317638724766E-01
 |       | 110   | 001   |  11   |    -4.9317638743516E-01
 |       | 111   | 000   |  11   |     4.9317638712132E-01
--------------------------------------------------
*** Contributions RASCI wfn    Active:   0.00
                                 Hole:   0.00
                                 Part: 100.00

      Mulliken population analysis 
 ---------------------------------------------------
   Atom    Charge (a.u.)   Spin (a.u.)  
 ---------------------------------------------------
   1  N   -0.346575        1.855003 
   2  F    0.346575        0.144997 
 ---------------------------------------------------
   Sum:   -0.000000        2.000000 
 ---------------------------------------------------
 
*** Unpaired Electrons
 Yamaguchi Nd:         4.00
  
**************************************************
 RAS-CI total energy for state  23:   -153.208886120004
  Excitation energy (eV) = 17.339188682866
  State symmetry: A1    (C2v      )
  <S^2>      :  2.0000
  Dipole Moment:    0.0000 X    -0.0000 Y    -0.1856 Z
  Trans. Moment:   -0.0000 X     0.0000 Y    -0.0000 Z
  Strength   :  0.000000
  Natural transition orbitals ( 1 -> 23 ):
   e-/hole pair  1 alpha:  ampl =  0.685193 ( 46.9%)   [3 : 4]
   e-/hole pair  2 alpha:  ampl =  0.685188 ( 46.9%)   [2 : 5]
   e-/hole pair  1 beta :  ampl =  0.005347 (  0.0%)   [3 : 4]
   e-/hole pair  2 beta :  ampl =  0.005347 (  0.0%)   [2 : 5]
   Sum of square amplitudes: 0.94

 NATURAL OCCUPATION NUMBERS (higher than 1.0E-05)
            1           2           3           4           5           6
    1   2.0000000   2.0000000   2.0000000   1.9999730   1.9999730   1.9999493
            7           8           9          10          11          12
    1   1.9351663   0.5325254   0.5325177   0.4770811   0.4770739   0.0456502
           13          14          15          16
    1   0.0000339   0.0000339   0.0000111   0.0000111

 Head-Gordon Nu:    2.13
 Head-Gordon Nu_nl: 2.30

  Amplitudes : 
  
 | HOLE  | ALPHA | BETA  | PART  |    AMPLITUDE 
--------------------------------------------------
 |       | 110   | 100   |  12   |    -6.8478702189624E-01
 |       | 101   | 100   |  13   |     6.8479200457245E-01
 |       | 110   | 010   |  11   |    -1.0551900873595E-01
 |       | 101   | 001   |  11   |    -1.0551999934792E-01
--------------------------------------------------
*** Contributions RASCI wfn    Active:   0.00
                                 Hole:   0.01
                                 Part:  99.99

      Mulliken population analysis 
 ---------------------------------------------------
   Atom    Charge (a.u.)   Spin (a.u.)  
 ---------------------------------------------------
   1  N    0.063019        1.985599 
   2  F   -0.063019        0.014401 
 ---------------------------------------------------
   Sum:   -0.000000        2.000000 
 ---------------------------------------------------
 
*** Unpaired Electrons
 Yamaguchi Nd:         3.23
  
**************************************************
 RAS-CI total energy for state  24:   -153.171791977273
  Excitation energy (eV) = 18.348571662366
  Warning: not all configurations have same symmetry
  State symmetry: *B2    (C2v      )
  <S^2>      :  2.0000
  Dipole Moment:   -0.0000 X     0.0000 Y    -0.6614 Z
  Trans. Moment:   -0.0024 X     0.0076 Y     0.0000 Z
  Strength   :  0.000028
  Natural transition orbitals ( 1 -> 24 ):
   e-/hole pair  1 alpha:  ampl =  0.990274 ( 98.1%)   [3 : 4]
   e-/hole pair  2 alpha:  ampl =  0.011675 (  0.0%)   [2 : 5]
   e-/hole pair  1 beta :  ampl =  0.043262 (  0.2%)   [3 : 4]
   e-/hole pair  2 beta :  ampl =  0.009400 (  0.0%)   [2 : 5]
   Sum of square amplitudes: 0.98

 NATURAL OCCUPATION NUMBERS (higher than 1.0E-05)
            1           2           3           4           5           6
    1   2.0000000   2.0000000   2.0000000   2.0000000   1.9999881   1.9999007
            7           8           9          10          11          12
    1   1.9769029   1.0006339   0.9959029   0.0229077   0.0026166   0.0006268
           13          14
    1   0.0002991   0.0002156

 Head-Gordon Nu:    2.05
 Head-Gordon Nu_nl: 2.00

  Amplitudes : 
  
 | HOLE  | ALPHA | BETA  | PART  |    AMPLITUDE 
--------------------------------------------------
 |       | 110   | 100   |  10   |    -4.3828581868975E-01
 |       | 110   | 100   |  14   |     8.3723423214509E-01
 |       | 101   | 100   |  10   |    -1.3653858053932E-01
 |       | 101   | 100   |  14   |     2.6082257380596E-01
--------------------------------------------------
*** Contributions RASCI wfn    Active:   0.02
                                 Hole:   0.01
                                 Part:  99.97

      Mulliken population analysis 
 ---------------------------------------------------
   Atom    Charge (a.u.)   Spin (a.u.)  
 ---------------------------------------------------
   1  N   -0.097217        2.172602 
   2  F    0.097217       -0.172602 
 ---------------------------------------------------
   Sum:   -0.000000        2.000000 
 ---------------------------------------------------
 
*** Unpaired Electrons
 Yamaguchi Nd:         2.10
  
**************************************************
 RAS-CI total energy for state  25:   -153.171791879834
  Excitation energy (eV) = 18.348574313820
  Warning: not all configurations have same symmetry
  State symmetry: *B2    (C2v      )
  <S^2>      :  2.0000
  Dipole Moment:    0.0000 X    -0.0000 Y    -0.6614 Z
  Trans. Moment:   -0.0076 X    -0.0024 Y    -0.0000 Z
  Strength   :  0.000028
  Natural transition orbitals ( 1 -> 25 ):
   e-/hole pair  1 alpha:  ampl =  0.990274 ( 98.1%)   [3 : 4]
   e-/hole pair  2 alpha:  ampl =  0.011675 (  0.0%)   [2 : 5]
   e-/hole pair  1 beta :  ampl =  0.043262 (  0.2%)   [3 : 4]
   e-/hole pair  2 beta :  ampl =  0.009400 (  0.0%)   [2 : 5]
   Sum of square amplitudes: 0.98

 NATURAL OCCUPATION NUMBERS (higher than 1.0E-05)
            1           2           3           4           5           6
    1   2.0000000   2.0000000   2.0000000   2.0000000   1.9999881   1.9999007
            7           8           9          10          11          12
    1   1.9769029   1.0006339   0.9959029   0.0229077   0.0026166   0.0006268
           13          14
    1   0.0002991   0.0002156

 Head-Gordon Nu:    2.05
 Head-Gordon Nu_nl: 2.00

  Amplitudes : 
  
 | HOLE  | ALPHA | BETA  | PART  |    AMPLITUDE 
--------------------------------------------------
 |       | 110   | 100   |  10   |     1.3653867663911E-01
 |       | 110   | 100   |  14   |    -2.6082251800675E-01
 |       | 101   | 100   |  10   |    -4.3828578826272E-01
 |       | 101   | 100   |  14   |     8.3723424784164E-01
--------------------------------------------------
*** Contributions RASCI wfn    Active:   0.02
                                 Hole:   0.01
                                 Part:  99.97

      Mulliken population analysis 
 ---------------------------------------------------
   Atom    Charge (a.u.)   Spin (a.u.)  
 ---------------------------------------------------
   1  N   -0.097217        2.172602 
   2  F    0.097217       -0.172602 
 ---------------------------------------------------
   Sum:   -0.000000        2.000000 
 ---------------------------------------------------
 
*** Unpaired Electrons
 Yamaguchi Nd:         2.10
  
**************************************************
 RAS-CI total energy for state  26:   -153.149556915548
  Excitation energy (eV) = 18.953618475734
  State symmetry: A2    (C2v      )
  <S^2>      :  2.0000
  Dipole Moment:    0.0000 X    -0.0000 Y    -1.3269 Z
  Trans. Moment:    0.0000 X    -0.0000 Y    -1.2803 Z
  Strength   :  0.761185
  Natural transition orbitals ( 1 -> 26 ):
   e-/hole pair  1 alpha:  ampl =  0.535049 ( 28.6%)   [3 : 4]
   e-/hole pair  2 alpha:  ampl =  0.154543 (  2.4%)   [2 : 5]
   e-/hole pair  1 beta :  ampl =  0.679095 ( 46.1%)   [3 : 4]
   e-/hole pair  2 beta :  ampl =  0.235207 (  5.5%)   [2 : 5]
   Sum of square amplitudes: 0.91

 NATURAL OCCUPATION NUMBERS (higher than 1.0E-05)
            1           2           3           4           5           6
    1   2.0000000   2.0000000   2.0000000   2.0000000   1.9443463   1.9443462
            7           8           9          10          11          12
    1   1.1570024   1.0328790   1.0328790   0.6944164   0.1430352   0.0252040
           13          14          15          16          17
    1   0.0252040   0.0002750   0.0002750   0.0000687   0.0000687

 Head-Gordon Nu:    3.78
 Head-Gordon Nu_nl: 3.87

  Amplitudes : 
  
 | HOLE  | ALPHA | BETA  | PART  |    AMPLITUDE 
--------------------------------------------------
 |   5   | 111   | 110   |       |     2.3591514043082E-01
 |   6   | 111   | 101   |       |    -2.3591519029041E-01
 |       | 110   | 100   |  13   |    -1.4252247366466E-01
 |       | 101   | 100   |  12   |    -1.4252225267404E-01
 |       | 011   | 100   |  10   |     4.9269700265670E-01
 |       | 011   | 100   |  11   |     2.0549693477704E-01
 |       | 101   | 010   |  11   |    -1.6122682093180E-01
 |       | 101   | 010   |  14   |     1.1495635508463E-01
 |       | 110   | 001   |  11   |     1.6122692999410E-01
 |       | 110   | 001   |  14   |    -1.1495637201307E-01
 |       | 111   | 000   |  10   |     3.8257676131639E-01
 |       | 111   | 000   |  11   |     5.2795068560529E-01
 |       | 111   | 000   |  14   |    -1.8288770358191E-01
--------------------------------------------------
*** Contributions RASCI wfn    Active:   0.00
                                 Hole:  11.13
                                 Part:  88.87

      Mulliken population analysis 
 ---------------------------------------------------
   Atom    Charge (a.u.)   Spin (a.u.)  
 ---------------------------------------------------
   1  N   -0.202663        1.751558 
   2  F    0.202663        0.248442 
 ---------------------------------------------------
   Sum:   -0.000000        2.000000 
 ---------------------------------------------------
 
*** Unpaired Electrons
 Yamaguchi Nd:         4.46
  
**************************************************
 RAS-CI total energy for state  27:   -153.123551726292
  Excitation energy (eV) = 19.661255678850
  State symmetry: A2    (C2v      )
  <S^2>      :  2.0000
  Dipole Moment:   -0.0000 X     0.0000 Y     0.5143 Z
  Trans. Moment:   -0.0000 X    -0.0000 Y     0.0231 Z
  Strength   :  0.000257
  Natural transition orbitals ( 1 -> 27 ):
   e-/hole pair  1 alpha:  ampl =  0.377301 ( 14.2%)   [3 : 4]
   e-/hole pair  2 alpha:  ampl =  0.315776 ( 10.0%)   [2 : 5]
   e-/hole pair  1 beta :  ampl =  0.748514 ( 56.0%)   [3 : 4]
   e-/hole pair  2 beta :  ampl =  0.058257 (  0.3%)   [2 : 5]
   Sum of square amplitudes: 0.91

 NATURAL OCCUPATION NUMBERS (higher than 1.0E-05)
            1           2           3           4           5           6
    1   2.0000000   2.0000000   2.0000000   2.0000000   1.9965891   1.9965891
            7           8           9          10          11          12
    1   1.2069138   0.9034341   0.9034339   0.7687369   0.1006008   0.1006006
           13          14          15          16          17
    1   0.0228008   0.0001029   0.0001029   0.0000476   0.0000476

 Head-Gordon Nu:    3.60
 Head-Gordon Nu_nl: 3.85

  Amplitudes : 
  
 | HOLE  | ALPHA | BETA  | PART  |    AMPLITUDE 
--------------------------------------------------
 |       | 110   | 100   |  13   |     3.1613162680668E-01
 |       | 101   | 100   |  12   |     3.1613180813846E-01
 |       | 011   | 100   |  10   |    -2.3939887850281E-01
 |       | 011   | 100   |  11   |     2.6892874279706E-01
 |       | 011   | 100   |  14   |     1.0977787361045E-01
 |       | 101   | 010   |  11   |    -1.6667502340274E-01
 |       | 101   | 010   |  14   |    -1.1743563624976E-01
 |       | 110   | 001   |  11   |     1.6667541778777E-01
 |       | 110   | 001   |  14   |     1.1743564392955E-01
 |       | 111   | 000   |  10   |    -2.8136986251783E-01
 |       | 111   | 000   |  11   |     6.0227918364494E-01
 |       | 111   | 000   |  14   |     3.4464915376573E-01
--------------------------------------------------
*** Contributions RASCI wfn    Active:   0.00
                                 Hole:   0.68
                                 Part:  99.31

      Mulliken population analysis 
 ---------------------------------------------------
   Atom    Charge (a.u.)   Spin (a.u.)  
 ---------------------------------------------------
   1  N   -0.405937        1.635370 
   2  F    0.405937        0.364630 
 ---------------------------------------------------
   Sum:   -0.000000        2.000000 
 ---------------------------------------------------
 
*** Unpaired Electrons
 Yamaguchi Nd:         4.33
  
**************************************************
 RAS-CI total energy for state  28:   -153.094396451339
  Excitation energy (eV) = 20.454611074988
  State symmetry: A2    (C2v      )
  <S^2>      :  6.0000
  Dipole Moment:    0.0000 X    -0.0000 Y    -0.9899 Z
  Trans. Moment:    0.0000 X    -0.0000 Y     0.0000 Z
  Strength   :  0.000000
  Natural transition orbitals ( 1 -> 28 ):
   e-/hole pair  1 alpha:  ampl =  0.498634 ( 24.9%)   [3 : 4]
   e-/hole pair  2 alpha:  ampl =  0.004023 (  0.0%)   [2 : 5]
   e-/hole pair  1 beta :  ampl =  0.498634 ( 24.9%)   [3 : 4]
   e-/hole pair  2 beta :  ampl =  0.004023 (  0.0%)   [2 : 5]
   Sum of square amplitudes: 0.50

 NATURAL OCCUPATION NUMBERS (higher than 1.0E-05)
            1           2           3           4           5           6
    1   2.0000000   2.0000000   2.0000000   2.0000000   2.0000000   2.0000000
            7           8           9          10
    1   1.0000000   1.0000000   1.0000000   1.0000000

 Head-Gordon Nu:    4.00
 Head-Gordon Nu_nl: 4.00

  Amplitudes : 
  
 | HOLE  | ALPHA | BETA  | PART  |    AMPLITUDE 
--------------------------------------------------
 |       | 011   | 100   |  10   |     2.3469207000953E-01
 |       | 011   | 100   |  14   |    -4.3838070286850E-01
 |       | 101   | 010   |  10   |    -2.3469205103225E-01
 |       | 101   | 010   |  14   |     4.3838064564121E-01
 |       | 110   | 001   |  10   |     2.3469207777203E-01
 |       | 110   | 001   |  14   |    -4.3838071281980E-01
 |       | 111   | 000   |  10   |    -2.3469206636630E-01
 |       | 111   | 000   |  14   |     4.3838069161444E-01
--------------------------------------------------
*** Contributions RASCI wfn    Active:   0.00
                                 Hole:   0.00
                                 Part: 100.00

      Mulliken population analysis 
 ---------------------------------------------------
   Atom    Charge (a.u.)   Spin (a.u.)  
 ---------------------------------------------------
   1  N   -0.394243        1.878838 
   2  F    0.394243        0.121162 
 ---------------------------------------------------
   Sum:   -0.000000        2.000000 
 ---------------------------------------------------
 
*** Unpaired Electrons
 Yamaguchi Nd:         4.00
  
**************************************************
 RAS-CI total energy for state  29:   -153.066499510369
  Excitation energy (eV) = 21.213725461302
  State symmetry: A1    (C2v      )
  <S^2>      :  2.0000
  Dipole Moment:   -0.0000 X    -0.0000 Y    -0.4349 Z
  Trans. Moment:    0.0000 X     0.0000 Y     0.0000 Z
  Strength   :  0.000000
  Natural transition orbitals ( 1 -> 29 ):
   e-/hole pair  1 alpha:  ampl =  0.139720 (  2.0%)   [3 : 4]
   e-/hole pair  2 alpha:  ampl =  0.139720 (  2.0%)   [2 : 5]
   e-/hole pair  1 beta :  ampl =  0.010627 (  0.0%)   [3 : 4]
   e-/hole pair  2 beta :  ampl =  0.010093 (  0.0%)   [2 : 5]
   Sum of square amplitudes: 0.04

 NATURAL OCCUPATION NUMBERS (higher than 1.0E-05)
            1           2           3           4           5           6
    1   2.0000000   2.0000000   2.0000000   2.0000000   1.9999998   1.9999998
            7           8           9          10          11          12
    1   1.0335983   0.9832020   0.9832005   0.9551055   0.0222585   0.0222585
           13          14          15          16
    1   0.0001678   0.0001441   0.0000316   0.0000316

 Head-Gordon Nu:    3.93
 Head-Gordon Nu_nl: 4.00

  Amplitudes : 
  
 | HOLE  | ALPHA | BETA  | PART  |    AMPLITUDE 
--------------------------------------------------
[...]
 2-elec mean-field SOC matrix (cm-1): < B(S,Sz) | Hso(2e-mf) | A(S',Sz') >
                       |Sz'=-1.00>                |Sz'= 0.00>                |Sz'= 1.00>
 <Sz=-1.00|     -0.000000     -0.000000i       0.340632      1.094406i       0.000000      0.000000i
 <Sz= 0.00|     -0.340632      1.094406i      -0.000000     -0.000000i       0.340632      1.094406i
 <Sz= 1.00|      0.000000     -0.000000i      -0.340632      1.094406i      -0.000000      0.000000i
 Total mean-field SOC matrix (cm-1): < B(S,Sz) | Hsomf | A(S',Sz') >
                       |Sz'=-1.00>                |Sz'= 0.00>                |Sz'= 1.00>
 <Sz=-1.00|      0.000000      0.000000i      -0.583050     -1.873262i      -0.000000     -0.000000i
 <Sz= 0.00|      0.583050     -1.873262i       0.000000      0.000000i      -0.583050     -1.873262i
 <Sz= 1.00|     -0.000000      0.000000i       0.583050     -1.873262i       0.000000     -0.000000i
Mean-Field SOCC =     3.923803887 cm-1
   
**************************************************
State A: Root 30
State B: Root 25
  
Angular momentum components (a.u.)
< B | Lx | A > =     0.036481538i
< B | Ly | A > =     0.117210746i
< B | Lz | A > =    -0.000000000i
  
Norm of one-particle transition density matrix
||gamma^AB||_total       =  0.146009
||gamma^AB||_symmetrized =  0.103740
||gamma^AB||_anti-symm   =  0.102746
  
Spin-orbit couplings
 Using HF (reference) density for the 2-elec mean-field SOC contribution
KET: S',Sz' (Root  30) =  1.000 1.000
BRA: S ,Sz  (Root  25) =  1.000 1.000
Clebsh-Gordan coefficient: < 1.000, 1.000; 1.000, 0.000| 1.000, 1.000> =  0.707
 Reading 1e-SO integrals
 1e Reduced matrix elements (cm-1)
<S|| Hso(L-) ||S'> =    -4.1969295397    -1.3062801880i
<S|| Hso(L0) ||S'> =     0.0000000000    -0.0000000000i
<S|| Hso(L+) ||S'> =    -4.1969295397     1.3062801880i
 1-elec SOC matrix (cm-1): < B(S,Sz) | Hso(1e) | A(S',Sz') >
                       |Sz'=-1.00>                |Sz'= 0.00>                |Sz'= 1.00>
 <Sz=-1.00|      0.000000      0.000000i      -2.967677      0.923680i      -0.000000      0.000000i
 <Sz= 0.00|      2.967677      0.923680i       0.000000     -0.000000i      -2.967677      0.923680i
 <Sz= 1.00|     -0.000000     -0.000000i       2.967677      0.923680i       0.000000     -0.000000i
1-elec SOCC =     6.216202296 cm-1
 Reading 2e-SOMF integrals
 2e-SOMF Reduced matrix elements (cm-1)
<S|| Hso(L-) ||S'> =     1.5477285700     0.4817252063i
<S|| Hso(L0) ||S'> =     0.0000000000     0.0000000000i
<S|| Hso(L+) ||S'> =     1.5477285700    -0.4817252063i
 2-elec mean-field SOC matrix (cm-1): < B(S,Sz) | Hso(2e-mf) | A(S',Sz') >
                       |Sz'=-1.00>                |Sz'= 0.00>                |Sz'= 1.00>
 <Sz=-1.00|     -0.000000     -0.000000i       1.094409     -0.340631i       0.000000     -0.000000i
 <Sz= 0.00|     -1.094409     -0.340631i      -0.000000      0.000000i       1.094409     -0.340631i
 <Sz= 1.00|      0.000000      0.000000i      -1.094409     -0.340631i      -0.000000      0.000000i
 Total mean-field SOC matrix (cm-1): < B(S,Sz) | Hsomf | A(S',Sz') >
                       |Sz'=-1.00>                |Sz'= 0.00>                |Sz'= 1.00>
 <Sz=-1.00|      0.000000      0.000000i      -1.873268      0.583048i      -0.000000      0.000000i
 <Sz= 0.00|      1.873268      0.583048i       0.000000     -0.000000i      -1.873268      0.583048i
 <Sz= 1.00|     -0.000000     -0.000000i       1.873268      0.583048i       0.000000     -0.000000i
Mean-Field SOCC =     3.923813628 cm-1
   
**************************************************
State A: Root 30
State B: Root 26
  
Angular momentum components (a.u.)
< B | Lx | A > =    -0.000000000i
< B | Ly | A > =    -0.000000000i
< B | Lz | A > =    -0.000000113i
  
Norm of one-particle transition density matrix
||gamma^AB||_total       =  0.219781
||gamma^AB||_symmetrized =  0.219267
||gamma^AB||_anti-symm   =  0.015021
  
Spin-orbit couplings
 Using HF (reference) density for the 2-elec mean-field SOC contribution
KET: S',Sz' (Root  30) =  1.000 1.000
BRA: S ,Sz  (Root  26) =  1.000 1.000
Clebsh-Gordan coefficient: < 1.000, 1.000; 1.000, 0.000| 1.000, 1.000> =  0.707
 Reading 1e-SO integrals
 1e Reduced matrix elements (cm-1)
<S|| Hso(L-) ||S'> =    -0.0000000000     0.0000000000i
<S|| Hso(L0) ||S'> =     0.0000000000    -0.0000104849i
<S|| Hso(L+) ||S'> =    -0.0000000000    -0.0000000000i
 1-elec SOC matrix (cm-1): < B(S,Sz) | Hso(1e) | A(S',Sz') >
                       |Sz'=-1.00>                |Sz'= 0.00>                |Sz'= 1.00>
 <Sz=-1.00|      0.000000      0.000007i      -0.000000     -0.000000i      -0.000000     -0.000000i
 <Sz= 0.00|      0.000000     -0.000000i       0.000000     -0.000000i      -0.000000     -0.000000i
 <Sz= 1.00|     -0.000000     -0.000000i       0.000000     -0.000000i       0.000000     -0.000007i
1-elec SOCC =     0.000010485 cm-1
 Reading 2e-SOMF integrals
 2e-SOMF Reduced matrix elements (cm-1)
<S|| Hso(L-) ||S'> =     0.0000000000    -0.0000000000i
<S|| Hso(L0) ||S'> =     0.0000000000     0.0000040820i
<S|| Hso(L+) ||S'> =     0.0000000000     0.0000000000i
 2-elec mean-field SOC matrix (cm-1): < B(S,Sz) | Hso(2e-mf) | A(S',Sz') >
                       |Sz'=-1.00>                |Sz'= 0.00>                |Sz'= 1.00>
 <Sz=-1.00|     -0.000000     -0.000003i       0.000000      0.000000i       0.000000      0.000000i
 <Sz= 0.00|     -0.000000      0.000000i      -0.000000      0.000000i       0.000000      0.000000i
 <Sz= 1.00|      0.000000      0.000000i      -0.000000      0.000000i      -0.000000      0.000003i
 Total mean-field SOC matrix (cm-1): < B(S,Sz) | Hsomf | A(S',Sz') >
                       |Sz'=-1.00>                |Sz'= 0.00>                |Sz'= 1.00>
 <Sz=-1.00|      0.000000      0.000005i      -0.000000     -0.000000i      -0.000000     -0.000000i
 <Sz= 0.00|      0.000000     -0.000000i       0.000000     -0.000000i      -0.000000     -0.000000i
 <Sz= 1.00|     -0.000000     -0.000000i       0.000000     -0.000000i       0.000000     -0.000005i
Mean-Field SOCC =     0.000006403 cm-1
   
**************************************************
State A: Root 30
State B: Root 27
  
Angular momentum components (a.u.)
< B | Lx | A > =     0.000000000i
< B | Ly | A > =     0.000000000i
< B | Lz | A > =    -0.000000300i
  
Norm of one-particle transition density matrix
||gamma^AB||_total       =  0.281770
||gamma^AB||_symmetrized =  0.281643
||gamma^AB||_anti-symm   =  0.008470
  
Spin-orbit couplings
 Using HF (reference) density for the 2-elec mean-field SOC contribution
KET: S',Sz' (Root  30) =  1.000 1.000
BRA: S ,Sz  (Root  27) =  1.000 1.000
Clebsh-Gordan coefficient: < 1.000, 1.000; 1.000, 0.000| 1.000, 1.000> =  0.707
 Reading 1e-SO integrals
 1e Reduced matrix elements (cm-1)
<S|| Hso(L-) ||S'> =     0.0000000000    -0.0000000000i
<S|| Hso(L0) ||S'> =     0.0000000000    -0.0000198074i
<S|| Hso(L+) ||S'> =     0.0000000000     0.0000000000i
 1-elec SOC matrix (cm-1): < B(S,Sz) | Hso(1e) | A(S',Sz') >
                       |Sz'=-1.00>                |Sz'= 0.00>                |Sz'= 1.00>
 <Sz=-1.00|     -0.000000      0.000014i       0.000000      0.000000i       0.000000     -0.000000i
 <Sz= 0.00|     -0.000000      0.000000i      -0.000000     -0.000000i       0.000000      0.000000i
 <Sz= 1.00|      0.000000     -0.000000i      -0.000000      0.000000i      -0.000000     -0.000014i
1-elec SOCC =     0.000019807 cm-1
 Reading 2e-SOMF integrals
 2e-SOMF Reduced matrix elements (cm-1)
<S|| Hso(L-) ||S'> =    -0.0000000000     0.0000000000i
<S|| Hso(L0) ||S'> =     0.0000000000     0.0000077371i
<S|| Hso(L+) ||S'> =    -0.0000000000    -0.0000000000i
 2-elec mean-field SOC matrix (cm-1): < B(S,Sz) | Hso(2e-mf) | A(S',Sz') >
                       |Sz'=-1.00>                |Sz'= 0.00>                |Sz'= 1.00>
 <Sz=-1.00|      0.000000     -0.000005i      -0.000000     -0.000000i      -0.000000      0.000000i
 <Sz= 0.00|      0.000000     -0.000000i       0.000000      0.000000i      -0.000000     -0.000000i
 <Sz= 1.00|     -0.000000      0.000000i       0.000000     -0.000000i       0.000000      0.000005i
 Total mean-field SOC matrix (cm-1): < B(S,Sz) | Hsomf | A(S',Sz') >
                       |Sz'=-1.00>                |Sz'= 0.00>                |Sz'= 1.00>
 <Sz=-1.00|     -0.000000      0.000009i       0.000000      0.000000i       0.000000     -0.000000i
 <Sz= 0.00|     -0.000000      0.000000i      -0.000000     -0.000000i       0.000000      0.000000i
 <Sz= 1.00|      0.000000     -0.000000i      -0.000000      0.000000i      -0.000000     -0.000009i
Mean-Field SOCC =     0.000012070 cm-1
   
**************************************************
State A: Root 30
State B: Root 28
  
Angular momentum components (a.u.)
< B | Lx | A > =    -0.000000000i
< B | Ly | A > =     0.000000000i
< B | Lz | A > =     0.000000000i
  
Norm of one-particle transition density matrix
||gamma^AB||_total       =  0.017854
||gamma^AB||_symmetrized =  0.017041
||gamma^AB||_anti-symm   =  0.005328
  
Spin-orbit couplings
 Using HF (reference) density for the 2-elec mean-field SOC contribution
KET: S',Sz' (Root  30) =  1.000 1.000
BRA: S ,Sz  (Root  28) =  2.000 1.000
Clebsh-Gordan coefficient: < 1.000, 1.000; 1.000, 0.000| 2.000, 1.000> =  0.707
 Reading 1e-SO integrals
 1e Reduced matrix elements (cm-1)
<S|| Hso(L-) ||S'> =    -0.0000000000     0.0000000000i
<S|| Hso(L0) ||S'> =     0.0000000000     0.0000002241i
<S|| Hso(L+) ||S'> =    -0.0000000000    -0.0000000000i
 1-elec SOC matrix (cm-1): < B(S,Sz) | Hso(1e) | A(S',Sz') >
                       |Sz'=-1.00>                |Sz'= 0.00>                |Sz'= 1.00>
 <Sz=-2.00|     -0.000000     -0.000000i       0.000000      0.000000i       0.000000      0.000000i
 <Sz=-1.00|     -0.000000      0.000000i      -0.000000     -0.000000i      -0.000000     -0.000000i
 <Sz= 0.00|     -0.000000      0.000000i       0.000000      0.000000i      -0.000000     -0.000000i
 <Sz= 1.00|     -0.000000      0.000000i      -0.000000      0.000000i      -0.000000      0.000000i
 <Sz= 2.00|      0.000000      0.000000i       0.000000      0.000000i      -0.000000      0.000000i
1-elec SOCC =     0.000000289 cm-1
 Reading 2e-SOMF integrals
 2e-SOMF Reduced matrix elements (cm-1)
<S|| Hso(L-) ||S'> =     0.0000000000    -0.0000000000i
<S|| Hso(L0) ||S'> =     0.0000000000    -0.0000000877i
<S|| Hso(L+) ||S'> =     0.0000000000     0.0000000000i
 2-elec mean-field SOC matrix (cm-1): < B(S,Sz) | Hso(2e-mf) | A(S',Sz') >
                       |Sz'=-1.00>                |Sz'= 0.00>                |Sz'= 1.00>
 <Sz=-2.00|      0.000000      0.000000i       0.000000      0.000000i       0.000000      0.000000i
 <Sz=-1.00|      0.000000     -0.000000i       0.000000      0.000000i       0.000000      0.000000i
 <Sz= 0.00|      0.000000     -0.000000i      -0.000000     -0.000000i       0.000000      0.000000i
 <Sz= 1.00|      0.000000     -0.000000i       0.000000     -0.000000i       0.000000     -0.000000i
 <Sz= 2.00|      0.000000      0.000000i       0.000000      0.000000i       0.000000     -0.000000i
 Total mean-field SOC matrix (cm-1): < B(S,Sz) | Hsomf | A(S',Sz') >
                       |Sz'=-1.00>                |Sz'= 0.00>                |Sz'= 1.00>
 <Sz=-2.00|     -0.000000     -0.000000i       0.000000      0.000000i       0.000000      0.000000i
 <Sz=-1.00|     -0.000000      0.000000i      -0.000000     -0.000000i      -0.000000     -0.000000i
 <Sz= 0.00|     -0.000000      0.000000i       0.000000      0.000000i      -0.000000     -0.000000i
 <Sz= 1.00|     -0.000000      0.000000i      -0.000000      0.000000i      -0.000000      0.000000i
 <Sz= 2.00|      0.000000      0.000000i       0.000000      0.000000i      -0.000000      0.000000i
Mean-Field SOCC =     0.000000176 cm-1
   
**************************************************
State A: Root 30
State B: Root 29
  
Angular momentum components (a.u.)
< B | Lx | A > =     0.000000000i
< B | Ly | A > =     0.000000000i
< B | Lz | A > =    -2.000000000i
  
Norm of one-particle transition density matrix
||gamma^AB||_total       =  0.978047
||gamma^AB||_symmetrized =  0.000153
||gamma^AB||_anti-symm   =  0.978047
  
Spin-orbit couplings
 Using HF (reference) density for the 2-elec mean-field SOC contribution
KET: S',Sz' (Root  30) =  1.000 1.000
BRA: S ,Sz  (Root  29) =  1.000 1.000
Clebsh-Gordan coefficient: < 1.000, 1.000; 1.000, 0.000| 1.000, 1.000> =  0.707
 Reading 1e-SO integrals
 1e Reduced matrix elements (cm-1)
<S|| Hso(L-) ||S'> =     0.0000000000    -0.0000000000i
<S|| Hso(L0) ||S'> =     0.0000000000    -5.3798460863i
<S|| Hso(L+) ||S'> =     0.0000000000     0.0000000000i
 1-elec SOC matrix (cm-1): < B(S,Sz) | Hso(1e) | A(S',Sz') >
                       |Sz'=-1.00>                |Sz'= 0.00>                |Sz'= 1.00>
 <Sz=-1.00|     -0.000000      3.804126i       0.000000      0.000000i       0.000000     -0.000000i
 <Sz= 0.00|     -0.000000      0.000000i      -0.000000     -0.000000i       0.000000      0.000000i
 <Sz= 1.00|      0.000000     -0.000000i      -0.000000      0.000000i      -0.000000     -3.804126i
1-elec SOCC =     5.379846086 cm-1
 Reading 2e-SOMF integrals
 2e-SOMF Reduced matrix elements (cm-1)
<S|| Hso(L-) ||S'> =    -0.0000000000     0.0000000000i
<S|| Hso(L0) ||S'> =     0.0000000000     2.1193443216i
<S|| Hso(L+) ||S'> =    -0.0000000000    -0.0000000000i
 2-elec mean-field SOC matrix (cm-1): < B(S,Sz) | Hso(2e-mf) | A(S',Sz') >
                       |Sz'=-1.00>                |Sz'= 0.00>                |Sz'= 1.00>
 <Sz=-1.00|      0.000000     -1.498603i      -0.000000     -0.000000i      -0.000000      0.000000i
 <Sz= 0.00|      0.000000     -0.000000i       0.000000      0.000000i      -0.000000     -0.000000i
 <Sz= 1.00|     -0.000000      0.000000i       0.000000     -0.000000i       0.000000      1.498603i
 Total mean-field SOC matrix (cm-1): < B(S,Sz) | Hsomf | A(S',Sz') >
                       |Sz'=-1.00>                |Sz'= 0.00>                |Sz'= 1.00>
 <Sz=-1.00|     -0.000000      2.305523i       0.000000      0.000000i       0.000000     -0.000000i
 <Sz= 0.00|     -0.000000      0.000000i      -0.000000     -0.000000i       0.000000      0.000000i
 <Sz= 1.00|      0.000000     -0.000000i      -0.000000      0.000000i      -0.000000     -2.305523i
Mean-Field SOCC =     3.260501765 cm-1
   
**************************************************
RAS-CI timing summary (seconds)
  CPU time          8.27s
  System time       0.00s
  Wall time        10.12s
Detailed CPU timing summary
     Fock matrix         :         0.0805 s
     Integrals           :         0.1391 s
     Addressing matrices :         0.0001 s
     Guesses             :         0.0005 s
     Iterations          :         1.4551 s
     Properties          :         6.5973 s
     RAS-CI(2) correction:         0.0000 s
  
 
 --------------------------------------------------------------
             Orbital Energies (a.u.) and Symmetries
 --------------------------------------------------------------
 
 Alpha MOs, Restricted
 -- Doubly Occupied --           
-26.370 -15.740  -1.711  -1.115  -0.763  -0.763  -0.731
  1 A1    2 A1    3 A1    4 A1    1 B1    1 B2    5 A1                         
 -- Singly Occupied (Occupied) --
 -0.557  -0.557
  2 B1    2 B2                                                                 
 -- Virtual --                   
  0.248   0.344   0.436   0.436   0.528   0.674   0.745   0.745
  6 A1    7 A1    3 B1    3 B2    8 A1    9 A1    4 B1    4 B2                 
  1.081   1.147   1.147   1.292   1.292   1.649   2.124   2.237
 10 A1    1 A2   11 A1    5 B1    5 B2   12 A1   13 A1   14 A1                 
  2.237   2.208   2.208   2.672   2.672   2.692   2.908   3.554
  2 A2    6 B1    6 B2    7 B1    7 B2   15 A1   16 A1    8 B1                 
  3.554   3.998   4.141   4.141   4.164   4.180   4.180   4.594
  8 B2   17 A1    9 B1    9 B2   18 A1   19 A1    3 A2   10 B1                 
  4.594   4.717   4.717   5.016   5.016   5.148   6.296   7.339
 10 B2    4 A2   20 A1   11 B1   11 B2   21 A1   22 A1   12 B1                 
  7.339   7.417   7.417   7.820   7.820   8.210   8.835   8.835
 12 B2   23 A1    5 A2   13 B1   13 B2   24 A1   25 A1    6 A2                 
  9.280   9.280   9.833  32.418  58.701
 14 B1   14 B2   26 A1   27 A1   28 A1                                         
 
 Beta MOs, Restricted
 -- Doubly Occupied --           
-26.363 -15.680  -1.675  -0.946  -0.708  -0.708  -0.623
  1 A1    2 A1    3 A1    4 A1    1 B1    1 B2    5 A1                         
 -- Singly Occupied (Vacant) --  
  0.177   0.177
  2 B1    2 B2                                                                 
 -- Virtual --                   
  0.287   0.377   0.497   0.497   0.566   0.683   0.757   0.757
  6 A1    7 A1    3 B1    3 B2    8 A1    9 A1    4 B1    4 B2                 
  1.087   1.270   1.270   1.361   1.361   1.696   2.190   2.255
 10 A1    1 A2   11 A1    5 B1    5 B2   12 A1   13 A1   14 A1                 
  2.255   2.338   2.338   2.707   2.707   2.729   2.921   3.575
  2 A2    6 B1    6 B2    7 B1    7 B2   15 A1   16 A1    8 B1                 
  3.575   4.009   4.241   4.241   4.200   4.248   4.248   4.655
  8 B2   17 A1    9 B1    9 B2   18 A1   19 A1    3 A2   10 B1                 
  4.655   4.880   4.880   5.084   5.084   5.199   6.314   7.348
 10 B2    4 A2   20 A1   11 B1   11 B2   21 A1   22 A1   12 B1                 
  7.348   7.424   7.424   7.830   7.830   8.223   8.851   8.851
 12 B2   23 A1    5 A2   13 B1   13 B2   24 A1   25 A1    6 A2                 
  9.290   9.290   9.840  32.454  58.704
 14 B1   14 B2   26 A1   27 A1   28 A1                                         
 --------------------------------------------------------------
 
          Ground-State Mulliken Net Atomic Charges

     Atom                 Charge (a.u.)
  ----------------------------------------
      1 N                     0.163042
      2 F                    -0.163042
  ----------------------------------------
  Sum of atomic charges =     0.000000

 -----------------------------------------------------------------
                    Cartesian Multipole Moments
 -----------------------------------------------------------------
    Charge (ESU x 10^10)
                -0.0000
    Dipole Moment (Debye)
         X      -0.0000      Y       0.0000      Z      -0.3702
       Tot       0.3702
    Quadrupole Moments (Debye-Ang)
        XX      -9.8813     XY       0.0000     YY      -9.8813
        XZ      -0.0000     YZ      -0.0000     ZZ     -10.7146
    Octopole Moments (Debye-Ang^2)
       XXX      -0.0000    XXY       0.0000    XYY      -0.0000
       YYY       0.0000    XXZ       1.2461    XYZ      -0.0000
       YYZ       1.2461    XZZ      -0.0000    YZZ      -0.0000
       ZZZ       4.3364
    Hexadecapole Moments (Debye-Ang^3)
      XXXX      -7.0429   XXXY       0.0000   XXYY      -2.3476
      XYYY       0.0000   YYYY      -7.0429   XXXZ      -0.0000
      XXYZ      -0.0000   XYYZ      -0.0000   YYYZ      -0.0000
      XXZZ      -7.1610   XYZZ       0.0000   YYZZ      -7.1610
      XZZZ      -0.0000   YZZZ      -0.0000   ZZZZ     -34.2668
 -----------------------------------------------------------------
 Total job time:  12.22s(wall), 9.49s(cpu) 
 Thu Sep  5 17:05:16 2024

======= MOLDEN-FORMATTED INPUT FILE FOLLOWS =======
[Molden Format]
[Atoms] (Angs)
  N      1    7      0.00000000      0.00000000     -0.74075625
  F      2    9      0.00000000      0.00000000      0.57614375

======= END OF MOLDEN-FORMATTED INPUT FILE =======


        *************************************************************
        *                                                           *
        *  Thank you very much for using Q-Chem.  Have a nice day.  *
        *                                                           *
        *************************************************************


