                  Welcome to Q-Chem
     A Quantum Leap Into The Future Of Chemistry


 Q-Chem 6.0 (devel), Q-Chem, Inc., Pleasanton, CA (2022)

 E. Epifanovsky,  A. T. B. Gilbert,  Xintian Feng,  Joonho Lee,  Yuezhi Mao,  
 N. Mardirossian,  P. Pokhilko,  A. White,  M. Wormit,  M. P. Coons,  
 A. L. Dempwolff,  Zhengting Gan,  D. Hait,  P. R. Horn,  L. D. Jacobson,  
 I. Kaliman,  J. Kussmann,  A. W. Lange,  Ka Un Lao,  D. S. Levine,  Jie Liu,  
 S. C. McKenzie,  A. F. Morrison,  K. Nanda,  F. Plasser,  D. R. Rehn,  
 M. L. Vidal,  Zhi-Qiang You,  Ying Zhu,  B. Alam,  B. Albrecht,  
 A. Aldossary,  E. Alguire,  J. H. Andersen,  V. Athavale,  D. Barton,  
 K. Begam,  A. Behn,  N. Bellonzi,  Y. A. Bernard,  E. J. Berquist,  
 H. Burton,  A. Carreras,  K. Carter-Fenk,  Romit Chakraborty,  
 Chandrima Chakravarty,  Junhan Chen,  A. D. Chien,  K. D. Closser,  
 V. Cofer-Shabica,  L. Cunha,  S. Dasgupta,  Jia Deng,  M. de Wergifosse,  
 M. Diedenhofen,  Hainam Do,  S. Ehlert,  Po-Tung Fang,  S. Fatehi,  
 Qingguo Feng,  T. Friedhoff,  B. Ganoe,  J. Gayvert,  Qinghui Ge,  
 G. Gidofalvi,  M. Goldey,  J. Gomes,  C. Gonzalez-Espinoza,  S. Gulania,  
 A. Gunina,  J. A. Gyamfi,  M. W. D. Hanson-Heine,  P. H. P. Harbach,  
 A. W. Hauser,  M. F. Herbst,  M. Hernandez Vera,  M. Hodecker,  
 Z. C. Holden,  S. Houck,  Xunkun Huang,  Kerwin Hui,  B. C. Huynh,  
 K. Ikeda,  M. Ivanov,  Hyunjun Ji,  Zuxin Jin,  Hanjie Jiang,  B. Kaduk,  
 S. Kaehler,  R. Kang,  K. Khistyaev,  Jaehoon Kim,  Yongbin Kim,  
 P. Klunzinger,  Z. Koczor-Benda,  Joong Hoon Koh,  D. Kosenkov,  
 Saikiran Kotaru,  L. Koulias,  T. Kowalczyk,  C. M. Krauter,  K. Kue,  
 A. Kunitsa,  T. Kus,  A. Landau,  K. V. Lawler,  D. Lefrancois,  S. Lehtola,  
 Rain Li,  Shaozhi Li,  Yi-Pei Li,  Jiashu Liang,  M. Liebenthal,  
 Hung-Hsuan Lin,  You-Sheng Lin,  Fenglai Liu,  Kuan-Yu Liu,  
 M. Loipersberger,  A. Luenser,  C. Malbon,  A. Manjanath,  P. Manohar,  
 E. Mansoor,  S. F. Manzer,  Shan-Ping Mao,  A. V. Marenich,  T. Markovich,  
 S. Mason,  F. Matz,  S. A. Maurer,  P. F. McLaughlin,  M. F. S. J. Menger,  
 J.-M. Mewes,  S. A. Mewes,  P. Morgante,  Mohammad Mostafanejad,  
 J. W. Mullinax,  K. J. Oosterbaan,  G. Paran,  V. Parravicini,  
 Alexander C. Paul,  Suranjan K. Paul,  F. Pavosevic,  Zheng Pei,  S. Prager,  
 E. I. Proynov,  E. Ramos,  B. Rana,  A. E. Rask,  A. Rettig,  R. M. Richard,  
 F. Rob,  E. Rossomme,  T. Scheele,  M. Scheurer,  M. Schneider,  
 P. E. Schneider,  N. Sergueev,  S. M. Sharada,  Hengyuan Shen,  
 W. Skomorowski,  D. W. Small,  C. J. Stein,  Yingli Su,  Yu-Chuan Su,  
 E. J. Sundstrom,  Zhen Tao,  J. Thirman,  Hung-Yi Tsai,  T. Tsuchimochi,  
 N. M. Tubman,  C. Utku,  S. P. Veccham,  O. Vydrov,  J. Wenzel,  
 Jonathan Wong,  J. Witte,  A. Yamada,  Chou-Hsun Yang,  Kun Yao,  
 S. Yeganeh,  S. R. Yost,  A. Zech,  F. Zeller,  Igor Ying Zhang,  
 Xing Zhang,  Yu Zhang,  D. Zuev,  A. Aspuru-Guzik,  A. T. Bell,  
 N. A. Besley,  K. B. Bravaya,  B. R. Brooks,  D. Casanova,  Jeng-Da Chai,  
 Hsing-Ta Chen,  S. Coriani,  C. J. Cramer,  A. E. DePrince, III,  
 R. A. DiStasio Jr.,  A. Dreuw,  B. D. Dunietz,  T. R. Furlani,  
 W. A. Goddard III,  S. Grimme,  S. Hammes-Schiffer,  T. Head-Gordon,  
 W. J. Hehre,  Chao-Ping Hsu,  T.-C. Jagau,  Yousung Jung,  A. Klamt,  
 Jing Kong,  D. S. Lambrecht,  Xiangyuan Li,  WanZhen Liang,  N. J. Mayhall,  
 C. W. McCurdy,  J. B. Neaton,  T. Neudecker,  C. Ochsenfeld,  
 J. A. Parkhill,  R. Peverati,  V. A. Rassolov,  Haisheng Ren,  Yihan Shao,  
 L. V. Slipchenko,  R. P. Steele,  J. E. Subotnik,  A. J. W. Thom,  
 A. Tkatchenko,  D. G. Truhlar,  T. Van Voorhis,  Fan Wang,  
 T. A. Wesolowski,  K. B. Whaley,  H. L. Woodcock III,  P. M. Zimmerman,  
 S. Faraji,  P. M. W. Gill,  M. Head-Gordon,  J. M. Herbert,  A. I. Krylov

 Contributors to earlier versions of Q-Chem not listed above: 
 R. D. Adamson,  B. Austin,  R. Baer,  J. Baker,  G. J. O. Beran,  
 K. Brandhorst,  S. T. Brown,  E. F. C. Byrd,  Arup K. Chakraborty,  
 G. K. L. Chan,  Chun-Min Chang,  Yunqing Chen,  C.-L. Cheng,  
 Siu Hung Chien,  D. M. Chipman,  D. L. Crittenden,  H. Dachsel,  
 R. J. Doerksen,  A. D. Dutoi,  R. G. Edgar,  J. Fosso-Tande,  
 L. Fusti-Molnar,  D. Ghosh,  A. Ghysels,  A. Golubeva-Zadorozhnaya,  
 J. Gonthier,  M. S. Gordon,  S. R. Gwaltney,  G. Hawkins,  J. E. Herr,  
 A. Heyden,  S. Hirata,  E. G. Hohenstein,  G. Kedziora,  F. J. Keil,  
 C. Kelley,  Jihan Kim,  R. A. King,  R. Z. Khaliullin,  P. P. Korambath,  
 W. Kurlancheek,  A. Laurent,  A. M. Lee,  M. S. Lee,  S. V. Levchenko,  
 Ching Yeh Lin,  D. Liotard,  E. Livshits,  R. C. Lochan,  I. Lotan,  
 L. A. Martinez-Martinez,  P. E. Maslen,  N. Nair,  D. P. O'Neill,  
 D. Neuhauser,  E. Neuscamman,  C. M. Oana,  R. Olivares-Amaya,  R. Olson,  
 T. M. Perrine,  B. Peters,  P. A. Pieniazek,  A. Prociuk,  Y. M. Rhee,  
 J. Ritchie,  M. A. Rohrdanz,  E. Rosta,  N. J. Russ,  H. F. Schaefer III,  
 M. W. Schmidt,  N. E. Schultz,  S. Sharma,  N. Shenvi,  C. D. Sherrill,  
 A. C. Simmonett,  A. Sodt,  T. Stein,  D. Stuck,  K. S. Thanthiriwatte,  
 V. Vanovschi,  L. Vogt,  Tao Wang,  A. Warshel,  M. A. Watson,  
 C. F. Williams,  Q. Wu,  X. Xu,  Jun Yang,  W. Zhang,  Yan Zhao

   Please cite Q-Chem as follows:
  "Software for the frontiers of quantum chemistry:
   An overview of developments in the Q-Chem 5 package"
   J. Chem. Phys. 155, 084801 (2021)
   https://doi.org/10.1063/5.0055522 (open access)

 Q-Chem 6.0.1 for Intel X86 EM64T Linux

 Parts of Q-Chem use Armadillo 9.900.5 (Nocturnal Misbehaviour).
 http://arma.sourceforge.net/

 Q-Chem begins on Tue Nov 14 23:21:32 2023  

 Host: atlas-114
0

     Scratch files written to ./qchem175181//
 Processing $rem in /scratch/abel/SOFTWARE/qchem/config/preferences:
 Processing $rem in /dipc/acebg/.qchemrc:

 Checking the input file for inconsistencies... 	...done.

--------------------------------------------------------------
User input:
--------------------------------------------------------------
$comment
 RAS-SF CALCULATION
$end

$molecule
 READ benzoquinone.molecule
$end

$rem
!**CALCULATION TYPE***     
JOBTYPE            sp    
EXCHANGE           HF
CORRELATION        RASCI    !RASCI=Casanova; RASCI2=Zimmerman
BASIS              def2-TZVP

!***SCF REFERENCE***
INPUT_BOHR          TRUE
!SKIP_SCFMAN        FALSE
UNRESTRICTED       FALSE
!SCF_GUESS          core
!SCF_GUESS_MIX      FALSE
!SCF_GUESS_ALWAYS   FALSE
MAX_SCF_CYCLES     999
!SCF_CONVERGENCE    8
SCF_ALGORITHM      DIIS_GDM !DIIS,DM,DIIS_DM,GDM,DIIS_GDM,GD

!SYMMETRY           TRUE   !use of symmetry for calculating integrals
!SYM_IGNORE         FALSE  !turn off using symmetry
!SYM_TOL            5      !tolerance for determining point group
!USE_ABELIAN_SUBGROUP      !define to use abelian group

!THRESH             14
SCF_FINAL_PRINT     1 !0,1,2,3

!****RAS-SF****
RAS_ROOTS          50       !number of RAS-CI roots to be computed
SET_ITER           150     !number of iterations in RASCI
RAS_ELEC           4       !number of electrons in RAS2
!RAS_ELEC_ALPHA     4       !spin-α electrons in RAS2 
!RAS_ELEC_BETA      1       !spin-β electrons in RAS2

RAS_ACT            4       !number of orbitals in RAS2 
RAS_ACT_ORB   [27,28,29,30]  !user-selected RAS2 orbitals
RAS_OCC            26       !number of orbitals in RAS1
!N_FROZEN_CORE      FC     !Number of frozen core orbitals
!N_FROZEN_VIRTUAL   0      !Number of frozen virtual orbitals

RAS_DO_HOLE        TRUE   !presence of hole excitations in RAS-CI wave function
RAS_DO_PART        TRUE   !presence of particle excitations
!RAS_AMPL_PRINT     10     !threshold (×10 2 ) for the CI amplitudes

!RAS_GUESS_CS       0      !number of closed shell guess conﬁgurations
RAS_SPIN_MULT      0      !spin multiplicity. Only for Ms = 0 
!RAS_SRDFT          FALSE  !short-range density functional RAS-CI
!RAS_NFRAG          0     !fragments of excitation analysis in RASCI

RAS_PRINT          2      !level of information
RAS_NATORB         TRUE   !computation of the natural orbital occupancies
!RAS_NATORB_STATE  0      !Saves NO of i RAS computed state in .fchk ﬁle
!RAS_FOD            TRUE

!****RAS-SOC****
CALC_SOC           TRUE   !calculate SOC for EOM-CC, RAS-CI, ADC, TDDFT/TDA and TDDFT
!RAS_SOC_2E        TRUE   !two-electron mean-ﬁeld contribution, default=true
RAS_SOC_SYM_DENS   TRUE   !averaging of α and β densities

!****MEMORY****
MEM_TOTAL          60000 !Default 2000 MB
MEM_STATIC         10000  !Default 64 MB

!**Molecular Properties and Analysis **                                                                                          
POP_MULLIKEN       TRUE   !Run Mulliken population analysis
LOWDIN_POPULATION  TRUE   !Run Löwdin population analysis
GUI                2       !Checkpoints generation
STATE_ANALYSIS     TRUE

!**Wave function analysis of RAS-CI states: MOLDEN**
!PLOTS = 0     ! Note: This can be omitted, default is 0
!NTO_PAIRS = 2 ! Note: This can be omitted, default is 2
!GUI 0
!MOLDEN_FORMAT      TRUE
!PRINT_ORBITALS     15

!**Wave function analysis of RAS-CI state: CUBE**
!NTO_PAIRS = 2 ! Note: This can be omitted, default is 2
!PLOTS = 1
!GUI 0

!**SR-DFT**
!RAS_SRDFT           TRUE !Perform short-range density functional RAS-CI
!RAS_SRDFT_EXC       0 !EX functional. 0=HF. 
!RAS_SRDFT_ONLY_COR  TRUE !No use of EXC functional
!RAS_SRDFT_COR       srPBE !short-range correlation functional
!ras_srdft_0         TRUE !true: no iteration (one-shot); false: iteration
!RAS_OMEGA           400 !Coulomb range-separation parameter. def=400
!RAS_SRDFT_DAMP     0.5 !dumping factor. def=0.5
$end

!$plots
!   grid_points 100 100 100
!   grid_range  (-10,10) (-10,10) (-10,10)
!$end

--------------------------------------------------------------
 ----------------------------------------------------------------
             Standard Nuclear Orientation (Bohr)
    I     Atom           X                Y                Z
 ----------------------------------------------------------------
    1      O       0.0000000000    -0.0000000000     5.0873465738
    2      C       0.0000000000    -0.0000000000     2.6403222818
    3      C       2.3453549260    -0.0000000000     1.3021362826
    4      C      -2.3453549260     0.0000000000     1.3021362826
    5      C      -2.3309491506     0.0000000000    -1.2666211182
    6      C       2.3309491506    -0.0000000000    -1.2666211182
    7      C      -0.0000000000     0.0000000000    -2.7415020535
    8      O      -0.0000000000     0.0000000000    -5.0815679785
    9      H       4.0818321701    -0.0000000000     2.3803198434
   10      H      -4.0818321701     0.0000000000     2.3803198434
   11      H       4.0900977079    -0.0000000000    -2.3129858956
   12      H      -4.0900977079     0.0000000000    -2.3129858956
 ----------------------------------------------------------------
 Molecular Point Group                 C2v   NOp =  4
 Largest Abelian Subgroup              C2v   NOp =  4
 Nuclear Repulsion Energy =         323.04806769 hartrees
 There are       29 alpha and       27 beta electrons
 Requested basis set is def2-TZVP
 There are 104 shells and 272 basis functions

 Q-Chem warning in module libmdc/get_mega.C, line 167:

 Allowed MEM_STATIC has been capped at MEM_STATIC=8191.
 Reduce the value of MEM_STATIC to silence this warning.


 Total QAlloc Memory Limit  60000 MB
 Mega-Array Size      8007 MB
 MEM_STATIC part      8191 MB


                       Distance Matrix (Bohrs)
             O (  1)   C (  2)   C (  3)   C (  4)   C (  5)   C (  6)
   C (  2)  2.447024
   C (  3)  4.452921  2.700265
   C (  4)  4.452921  2.700265  4.690710
   C (  5)  6.768030  4.549454  5.335385  2.568798
   C (  6)  6.768030  4.549454  2.568798  5.335385  4.661898
   C (  7)  7.828849  5.381824  4.674580  4.674580  2.758369  2.758369
   O (  8) 10.168915  7.721890  6.800909  6.800909  4.470698  4.470698
   H (  9)  4.897892  4.090105  2.043975  6.516994  7.377258  4.045463
   H ( 10)  4.897892  4.090105  6.516994  2.043975  4.045463  7.377258
   H ( 11)  8.455402  6.423719  4.014130  7.381339  6.505745  2.046823
   H ( 12)  8.455402  6.423719  7.381339  4.014130  2.046823  6.505745
             C (  7)   O (  8)   H (  9)   H ( 10)   H ( 11)
   O (  8)  2.340066
   H (  9)  6.549383  8.505359
   H ( 10)  6.549383  8.505359  8.163664
   H ( 11)  4.112484  4.939023  4.693313  9.423776
   H ( 12)  4.112484  4.939023  9.423776  4.693313  8.180195
 
 A cutoff of  1.0D-09 yielded   4846 shell pairs
 There are     33506 function pairs (     43959 Cartesian)
 Smallest overlap matrix eigenvalue = 1.49E-05

 Q-Chem warning in module stvman/mkSTV.C, line 313:

 Overlap eigenvalue is smaller than square root of threshold
 Use THRESH >= 12 to get rid of this warning


 Scale SEOQF with 1.000000e-01/1.000000e+00/1.000000e-01

 Standard Electronic Orientation quadrupole field applied
 Nucleus-field energy     =    -0.0000000149 hartrees
 Guess from superposition of atomic densities
 Warning:  Energy on first SCF cycle will be non-variational
 SAD guess density has 56.000000 electrons

 -----------------------------------------------------------------------
  General SCF calculation program by
  Eric Jon Sundstrom, Paul Horn, Yuezhi Mao, Dmitri Zuev, Alec White,
  David Stuck, Shaama M.S., Shane Yost, Joonho Lee, David Small,
  Daniel Levine, Susi Lehtola, Hugh Burton, Evgeny Epifanovsky,
  Bang C. Huynh
 -----------------------------------------------------------------------
 Hartree-Fock
 Orthonormalizing orbitals
 A restricted open-shell SCF calculation will be
 performed using DIIS, GDM
 SCF converges when RMS gradient is below 1.0e-05
 ---------------------------------------
  Cycle       Energy         DIIS error
 ---------------------------------------
    1    -376.8835350883      3.77e-02  
    2    -373.8616784449      5.38e-02  
    3    -378.8547908869      1.32e-02  
    4    -379.1341612475      4.52e-03  Done DIIS. Switching to GDM
 ---------------------------------------
  Cycle       Energy        RMS Gradient
 ---------------------------------------
    1    -379.1341612475      6.70e-02   Descent step
    2    -379.1687019556      1.74e-01   Normal BFGS step
    3    -379.2062927982      8.50e-02   Dog-leg BFGS step
    4    -379.2695892393      1.86e-01   Dog-leg BFGS step
    5    -379.2925237592      1.90e-01   Normal BFGS step
    6    -379.2849269867      1.43e-01  Line search: overstep
    7    -379.3006320691      7.43e-02   Dog-leg BFGS step
    8    -379.2587033167      2.28e-01  Line search: overstep
    9    -379.3084489469      1.39e-02   Normal BFGS step
   10    -379.3092432468      4.84e-03   Normal BFGS step
   11    -379.3093337799      3.00e-03   Normal BFGS step
   12    -379.3093527132      2.18e-03   Normal BFGS step
   13    -379.3093642068      1.51e-03   Normal BFGS step
   14    -379.3093740122      6.89e-04   Normal BFGS step
   15    -379.3093774142      2.52e-04   Normal BFGS step
   16    -379.3093785743      2.45e-04   Normal BFGS step
   17    -379.3093787186      1.42e-04   Normal BFGS step
   18    -379.3093788316      4.19e-05   Normal BFGS step
   19    -379.3093787435      1.21e-05  Line search: overstep
   20    -379.3093788202      3.65e-05  Line search: overstep
   21    -379.3093790634      4.14e-05  Line search: understep
   22    -379.3093788239      3.70e-05  Line search: understep
   23    -379.3093789758      3.66e-05  Line search: understep
   24    -379.3093791019      3.65e-05  Line search: understep
   25    -379.3093791313      3.65e-05  Line search: understep
   26    -379.3093791314      3.65e-05  Line search: understep
   27    -379.3093791314      3.65e-05  Line search: understep
   28    -379.3093791314      3.65e-05  Line search: understep
   29    -379.3093791314      3.65e-05  Line search: understep
   30    -379.3093791314      3.65e-05  Line search: understep
   31    -379.3093791314      3.65e-05  Line search: understep
   32    -379.3093791314      3.65e-05  Line search: understep
   33    -379.3093791314      3.65e-05  Line search: understep
   34    -379.3093791314      3.65e-05  Line search: understep
  GDM::   16 failed line searches.  Resetting
   35    -379.3093791314      3.65e-05  Line search: understep
  GDM::   17 failed line searches.  Resetting
   36    -379.3093791314      3.65e-05  Line search: understep
  GDM::   18 failed line searches.  Resetting
   37    -379.3093791314      3.65e-05  Line search: understep
  GDM::   19 failed line searches.  Resetting
   38    -379.3093791314      3.65e-05  Line search: understep
  GDM::   20 failed line searches.  Resetting
   39    -379.3093791314      3.65e-05  Line search: understep
  GDM::   21 failed line searches.  Resetting
   40    -379.3093791314      3.65e-05  Line search: understep
  GDM::   22 failed line searches.  Resetting
   41    -379.3093791314      3.65e-05  Line search: understep
  GDM::   23 failed line searches.  Resetting
   42    -379.3093791314      3.65e-05  Line search: understep
  GDM::   24 failed line searches.  Resetting
   43    -379.3093791314      3.65e-05  Line search: understep
  GDM::   25 failed line searches.  Resetting
   44    -379.3093791314      3.65e-05  Line search: understep
  GDM::   26 failed line searches.  Resetting
   45    -379.3093791314      3.65e-05  Line search: understep
  GDM::   27 failed line searches.  Resetting
   46    -379.3093791314      3.65e-05  Line search: understep
  GDM::   28 failed line searches.  Resetting
   47    -379.3093791314      3.65e-05  Line search: understep
  GDM::   29 failed line searches.  Resetting
   48    -379.3093791314      3.65e-05  Line search: understep
  GDM::   30 failed line searches.  Resetting
   49    -379.3093791314      3.65e-05  Line search: understep
  GDM::   31 failed line searches.  Resetting
   50    -379.3093791314      3.65e-05  Line search: understep
  GDM::   32 failed line searches.  Resetting
   51    -379.3093791313      3.65e-05  Line search: understep
  GDM::   33 failed line searches.  Resetting
   52    -379.3093791164      3.65e-05  Line search: understep
  GDM::   34 failed line searches.  Resetting
   53    -379.3093789926      3.66e-05  Line search: understep
  GDM::   35 failed line searches.  Resetting
   54    -379.3093787928      3.68e-05  Line search: overstep
  GDM::   36 failed line searches.  Resetting
   55    -379.3093789960      3.66e-05  Line search: understep
  GDM::   37 failed line searches.  Resetting
   56    -379.3093787928      3.68e-05  Line search: overstep
  GDM::   38 failed line searches.  Resetting
   57    -379.3093789871      3.66e-05  Line search: understep
  GDM::   39 failed line searches.  Resetting
   58    -379.3093787928      3.68e-05  Line search: overstep
  GDM::   40 failed line searches.  Resetting
   59    -379.3093789868      3.66e-05  Line search: understep
  GDM::   41 failed line searches.  Resetting
   60    -379.3093787928      3.68e-05  Line search: overstep
  GDM::   42 failed line searches.  Resetting
   61    -379.3093789956      3.67e-05  Line search: understep
  GDM::   43 failed line searches.  Resetting
   62    -379.3093787928      3.68e-05  Line search: overstep
  GDM::   44 failed line searches.  Resetting
   63    -379.3093789867      3.67e-05  Line search: understep
  GDM::   45 failed line searches.  Resetting
   64    -379.3093787928      3.68e-05  Line search: overstep
  GDM::   46 failed line searches.  Resetting
   65    -379.3093789835      3.67e-05  Line search: understep
  GDM::   47 failed line searches.  Resetting
   66    -379.3093787928      3.68e-05  Line search: overstep
  GDM::   48 failed line searches.  Resetting
   67    -379.3093789903      3.67e-05  Line search: understep
  GDM::   49 failed line searches.  Resetting
   68    -379.3093787928      3.68e-05  Line search: overstep
  GDM::   50 failed line searches.  Resetting
   69    -379.3093789547      3.67e-05  Line search: understep
  GDM::   51 failed line searches.  Resetting
   70    -379.3093787928      3.68e-05  Line search: overstep
  GDM::   52 failed line searches.  Resetting
   71    -379.3093789315      3.67e-05  Line search: understep
  GDM::   53 failed line searches.  Resetting
   72    -379.3093787928      3.68e-05  Line search: overstep
  GDM::   54 failed line searches.  Resetting
   73    -379.3093789539      3.67e-05  Line search: understep
  GDM::   55 failed line searches.  Resetting
   74    -379.3093787928      3.68e-05  Line search: overstep
  GDM::   56 failed line searches.  Resetting
   75    -379.3093789411      3.67e-05  Line search: understep
  GDM::   57 failed line searches.  Resetting
   76    -379.3093787928      3.68e-05  Line search: overstep
  GDM::   58 failed line searches.  Resetting
   77    -379.3093789383      3.68e-05  Line search: understep
  GDM::   59 failed line searches.  Resetting
   78    -379.3093787928      3.68e-05  Line search: overstep
  GDM::   60 failed line searches.  Resetting
   79    -379.3093789331      3.68e-05  Line search: understep
  GDM::   61 failed line searches.  Resetting
   80    -379.3093787928      3.68e-05  Line search: overstep
  GDM::   62 failed line searches.  Resetting
   81    -379.3093789075      3.68e-05  Line search: understep
  GDM::   63 failed line searches.  Resetting
   82    -379.3093787928      3.68e-05  Line search: overstep
  GDM::   64 failed line searches.  Resetting
   83    -379.3093789174      3.67e-05  Line search: understep
  GDM::   65 failed line searches.  Resetting
   84    -379.3093787928      3.68e-05  Line search: overstep
  GDM::   66 failed line searches.  Resetting
   85    -379.3093789252      3.67e-05  Line search: understep
  GDM::   67 failed line searches.  Resetting
   86    -379.3093787928      3.68e-05  Line search: overstep
  GDM::   68 failed line searches.  Resetting
   87    -379.3093789347      3.67e-05  Line search: understep
  GDM::   69 failed line searches.  Resetting
   88    -379.3093787928      3.68e-05  Line search: overstep
  GDM::   70 failed line searches.  Resetting
   89    -379.3093789336      3.68e-05  Line search: understep
  GDM::   71 failed line searches.  Resetting
   90    -379.3093787928      3.68e-05  Line search: overstep
  GDM::   72 failed line searches.  Resetting
   91    -379.3093789200      3.68e-05  Line search: understep
  GDM::   73 failed line searches.  Resetting
   92    -379.3093787928      3.68e-05  Line search: overstep
  GDM::   74 failed line searches.  Resetting
   93    -379.3093789108      3.68e-05  Line search: understep
  GDM::   75 failed line searches.  Resetting
   94    -379.3093787928      3.68e-05  Line search: overstep
  GDM::   76 failed line searches.  Resetting
   95    -379.3093789176      3.68e-05  Line search: understep
  GDM::   77 failed line searches.  Resetting
   96    -379.3093787928      3.68e-05  Line search: overstep
  GDM::   78 failed line searches.  Resetting
   97    -379.3093789255      3.68e-05  Line search: understep
  GDM::   79 failed line searches.  Resetting
   98    -379.3093787928      3.68e-05  Line search: overstep
  GDM::   80 failed line searches.  Resetting
   99    -379.3093789145      3.68e-05  Line search: understep
  GDM::   81 failed line searches.  Resetting
  100    -379.3093787928      3.68e-05  Line search: overstep
  GDM::   82 failed line searches.  Resetting
  101    -379.3093788923      3.68e-05  Line search: understep
  GDM::   83 failed line searches.  Resetting
  102    -379.3093787928      3.68e-05  Line search: overstep
  GDM::   84 failed line searches.  Resetting
  103    -379.3093789087      3.68e-05  Line search: understep
  GDM::   85 failed line searches.  Resetting
  104    -379.3093787928      3.68e-05  Line search: overstep
  GDM::   86 failed line searches.  Resetting
  105    -379.3093788940      3.68e-05  Line search: understep
  GDM::   87 failed line searches.  Resetting
  106    -379.3093787928      3.68e-05  Line search: overstep
  GDM::   88 failed line searches.  Resetting
  107    -379.3093788860      3.68e-05  Line search: understep
  GDM::   89 failed line searches.  Resetting
  108    -379.3093787928      3.68e-05  Line search: overstep
  GDM::   90 failed line searches.  Resetting
  109    -379.3093788855      3.68e-05  Line search: understep
  GDM::   91 failed line searches.  Resetting
  110    -379.3093787928      3.68e-05  Line search: overstep
  GDM::   92 failed line searches.  Resetting
  111    -379.3093788821      3.68e-05  Line search: understep
  GDM::   93 failed line searches.  Resetting
  112    -379.3093787928      3.68e-05  Line search: overstep
  GDM::   94 failed line searches.  Resetting
  113    -379.3093788772      3.68e-05  Line search: understep
  GDM::   95 failed line searches.  Resetting
  114    -379.3093787928      3.68e-05  Line search: overstep
  GDM::   96 failed line searches.  Resetting
  115    -379.3093788725      3.68e-05  Line search: understep
  GDM::   97 failed line searches.  Resetting
  116    -379.3093787928      3.68e-05  Line search: overstep
  GDM::   98 failed line searches.  Resetting
  117    -379.3093788676      3.68e-05  Line search: understep
  GDM::   99 failed line searches.  Resetting
  118    -379.3093787928      3.68e-05  Line search: overstep
  GDM::   100 failed line searches.  Resetting
  119    -379.3093788641      3.68e-05  Line search: understep
  GDM::   101 failed line searches.  Resetting
  120    -379.3093787928      3.68e-05  Line search: overstep
  GDM::   102 failed line searches.  Resetting
  121    -379.3093788539      3.68e-05  Line search: understep
  GDM::   103 failed line searches.  Resetting
  122    -379.3093787928      3.68e-05  Line search: overstep
  GDM::   104 failed line searches.  Resetting
  123    -379.3093788414      3.68e-05  Line search: understep
  GDM::   105 failed line searches.  Resetting
  124    -379.3093787928      3.68e-05  Line search: overstep
  GDM::   106 failed line searches.  Resetting
  125    -379.3093788346      3.68e-05   Normal BFGS step
  126    -379.3093788712      5.64e-05   Normal BFGS step
  127    -379.3093788724      4.37e-06  Convergence criterion met
The disked orbital energies are calculated using alpha and beta Focks
 ---------------------------------------
 Alpha HF Exchange    Energy = -25.10518924464073
 Beta HF Exchange     Energy = -23.91351176927237
 Nuclear Attraction   Energy =   0.00000000000000
 One-Electron (alpha) Energy = -593.55107508241338
 One-Electron (beta)  Energy = -562.84083362547926
 Total Coulomb        Energy = 503.05316317268182
 Final Alpha MO Eigenvalues
            1           2           3           4           5           6
    1 -20.7052455 -20.5339197 -11.3585372 -11.3232332 -11.2772393 -11.2772155
            7           8           9          10          11          12
    1 -11.2671692 -11.2671567  -1.5121014  -1.3706696  -1.1716282  -1.0682891
           13          14          15          16          17          18
    1  -0.9996326  -0.8786083  -0.8411287  -0.7581292  -0.7019269  -0.6847818
           19          20          21          22          23          24
    1  -0.6968878  -0.6329058  -0.6327060  -0.5884600  -0.5583871  -0.5779687
           25          26          27          28          29          30
    1  -0.4822421  -0.4282395  -0.4055700  -0.6868829  -0.2911236   0.0836621
           31          32          33          34          35          36
    1   0.1211295   0.1480171   0.1630140   0.1744043   0.2033081   0.2071780
           37          38          39          40          41          42
    1   0.2511379   0.2633571   0.2865765   0.3096835   0.3146732   0.3218300
           43          44          45          46          47          48
    1   0.3274458   0.3464408   0.3603207   0.3887766   0.4052898   0.4328109
           49          50          51          52          53          54
    1   0.4333651   0.4467242   0.4503572   0.4712376   0.4994513   0.4996510
           55          56          57          58          59          60
    1   0.5223161   0.5272027   0.5304169   0.5566469   0.5575826   0.5606810
           61          62          63          64          65          66
    1   0.5646445   0.5987457   0.5989740   0.5971828   0.6300679   0.6509345
           67          68          69          70          71          72
    1   0.6534440   0.6805445   0.7033201   0.7647368   0.7748848   0.7736354
           73          74          75          76          77          78
    1   0.7789890   0.8199976   0.8598177   0.8633291   0.8822638   0.8933720
           79          80          81          82          83          84
    1   0.8986811   0.9371050   0.9717267   0.9930921   0.9956812   0.9922812
           85          86          87          88          89          90
    1   1.0255807   1.0361055   1.0493753   1.0582530   1.0966672   1.1767470
           91          92          93          94          95          96
    1   1.2136726   1.2195214   1.2319722   1.2375359   1.2964941   1.3230999
           97          98          99         100         101         102
    1   1.3814284   1.3931700   1.3933812   1.4138766   1.4149698   1.4597161
          103         104         105         106         107         108
    1   1.4742657   1.4855502   1.5516497   1.5998142   1.6157958   1.6372746
          109         110         111         112         113         114
    1   1.6521475   1.6557500   1.7165876   1.7208222   1.7308147   1.7604509
          115         116         117         118         119         120
    1   1.8044778   1.8200583   1.8444381   1.8766370   1.9008636   1.9031023
          121         122         123         124         125         126
    1   1.9242191   1.9513510   1.9735079   1.9730912   2.0438674   2.0836909
          127         128         129         130         131         132
    1   2.0825879   2.0984583   2.1334346   2.1808307   2.1862946   2.2172149
          133         134         135         136         137         138
    1   2.2749096   2.2954526   2.3028607   2.3764304   2.3974433   2.3978851
          139         140         141         142         143         144
    1   2.4369397   2.4443077   2.5208321   2.5281480   2.5674962   2.6220324
          145         146         147         148         149         150
    1   2.6254225   2.6510631   2.7250359   2.7533999   2.8037537   2.8243135
          151         152         153         154         155         156
    1   2.8279134   2.8458660   2.8729173   2.9023086   2.9029889   2.9364872
          157         158         159         160         161         162
    1   2.9411056   2.9539351   2.9723481   3.0058955   3.0296413   3.0369245
          163         164         165         166         167         168
    1   3.0379142   3.0655228   3.0762061   3.1129273   3.1475664   3.1769459
          169         170         171         172         173         174
    1   3.1786593   3.1839947   3.2227443   3.2220377   3.2381162   3.2755673
          175         176         177         178         179         180
    1   3.3390797   3.3552920   3.3775202   3.4034591   3.4150112   3.4533872
          181         182         183         184         185         186
    1   3.4609285   3.4603785   3.4589664   3.4782927   3.4861887   3.5008263
          187         188         189         190         191         192
    1   3.5146769   3.5718808   3.5789317   3.6096166   3.6476658   3.6675195
          193         194         195         196         197         198
    1   3.6815035   3.7192696   3.7221569   3.7248550   3.7527164   3.7558086
          199         200         201         202         203         204
    1   3.7716895   3.7844125   3.7873683   3.8167695   3.9265381   3.9356453
          205         206         207         208         209         210
    1   3.9604068   4.0079598   4.0699201   4.0691248   4.1330346   4.1787985
          211         212         213         214         215         216
    1   4.2396052   4.2924003   4.3423169   4.3418729   4.3539424   4.3577579
          217         218         219         220         221         222
    1   4.3791466   4.4368979   4.5075838   4.5071659   4.5306983   4.5437438
          223         224         225         226         227         228
    1   4.5871893   4.6514330   4.7806765   4.8060697   4.8656123   4.8792369
          229         230         231         232         233         234
    1   4.9041904   4.9671238   5.0901371   5.1610894   5.1663355   5.1827029
          235         236         237         238         239         240
    1   5.2453852   5.3694748   5.4605798   5.4769878   5.5268362   5.6054956
          241         242         243         244         245         246
    1   5.6622132   5.6806567   5.6931606   5.8009202   5.8945873   5.9707738
          247         248         249         250         251         252
    1   6.0330251   6.2337587   6.3041376   6.5587207   6.5943194   6.6989943
          253         254         255         256         257         258
    1   6.7788504   6.8779715   6.8866088   6.9098921   7.1374411   7.1514705
          259         260         261         262         263         264
    1   7.1799353   7.3254657   7.3580138   7.4003494   7.5906462   7.6256294
          265         266         267         268         269         270
    1  23.1754648  23.5773601  23.7898522  23.8831391  24.0942547  24.5012741
          271         272
    1  45.3061295  45.5042141
 Final Beta MO Eigenvalues
            1           2           3           4           5           6
    1 -20.6675820 -20.5282223 -11.3519527 -11.3221294 -11.2758268 -11.2758060
            7           8           9          10          11          12
    1 -11.2642200 -11.2641908  -1.3877662  -1.3527811  -1.1459566  -1.0566257
           13          14          15          16          17          18
    1  -0.9573705  -0.8594396  -0.8196208  -0.7260082  -0.6839850  -0.6762707
           19          20          21          22          23          24
    1  -0.6278134  -0.6282396  -0.6188508  -0.5793584  -0.5454270  -0.5233719
           25          26          27          28          29          30
    1  -0.4070079  -0.4206521  -0.3785230   0.0928267   0.0025614   0.1255188
           31          32          33          34          35          36
    1   0.1876456   0.1498322   0.1641884   0.1789021   0.2088591   0.2094854
           37          38          39          40          41          42
    1   0.2568358   0.2675458   0.3097965   0.3167507   0.3185960   0.3248822
           43          44          45          46          47          48
    1   0.3360507   0.3506761   0.3684130   0.4047426   0.4201654   0.4388988
           49          50          51          52          53          54
    1   0.4426280   0.4604436   0.4544624   0.4782465   0.5064288   0.5099511
           55          56          57          58          59          60
    1   0.5319152   0.5408881   0.5438805   0.5652895   0.5676785   0.5716331
           61          62          63          64          65          66
    1   0.5726812   0.6019397   0.6066297   0.6169419   0.6357273   0.6594695
           67          68          69          70          71          72
    1   0.6631338   0.6864189   0.7161048   0.7781892   0.7822333   0.7910656
           73          74          75          76          77          78
    1   0.7883130   0.8429201   0.8643540   0.8716579   0.8857195   0.8988743
           79          80          81          82          83          84
    1   0.9053559   0.9515654   0.9861764   1.0010906   1.0021802   1.0140103
           85          86          87          88          89          90
    1   1.0339270   1.0490237   1.0578058   1.0708912   1.0999946   1.1823148
           91          92          93          94          95          96
    1   1.2216392   1.2290865   1.2421251   1.2492054   1.3102361   1.3404266
           97          98          99         100         101         102
    1   1.3857222   1.4014464   1.4035432   1.4215926   1.4231049   1.4709763
          103         104         105         106         107         108
    1   1.4832417   1.4957316   1.5599653   1.6284691   1.6371128   1.6412551
          109         110         111         112         113         114
    1   1.6673564   1.6724325   1.7228947   1.7331596   1.7395793   1.7774502
          115         116         117         118         119         120
    1   1.8119578   1.8300657   1.8530429   1.8997727   1.9132632   1.9152862
          121         122         123         124         125         126
    1   1.9442203   1.9588882   1.9780390   1.9824756   2.0692966   2.0907291
          127         128         129         130         131         132
    1   2.0982426   2.1065223   2.1499948   2.1953858   2.1934906   2.2273359
          133         134         135         136         137         138
    1   2.2928931   2.3016483   2.3137960   2.3896684   2.4038076   2.4147167
          139         140         141         142         143         144
    1   2.4475926   2.4512256   2.5303669   2.5344472   2.5735186   2.6341088
          145         146         147         148         149         150
    1   2.6344548   2.6941729   2.7365384   2.7600218   2.8101881   2.8343176
          151         152         153         154         155         156
    1   2.8386554   2.8523440   2.8770978   2.9083493   2.9164485   2.9391593
          157         158         159         160         161         162
    1   2.9452015   2.9577674   2.9834492   3.0175153   3.0431786   3.0426219
          163         164         165         166         167         168
    1   3.0428953   3.0730243   3.0805851   3.1226701   3.1541145   3.1846328
          169         170         171         172         173         174
    1   3.1893722   3.1911825   3.2321829   3.2352198   3.2517469   3.2957654
          175         176         177         178         179         180
    1   3.3494044   3.3613765   3.3843049   3.4106659   3.4195038   3.4581511
          181         182         183         184         185         186
    1   3.4660064   3.4694105   3.4805107   3.4836723   3.4919777   3.5081993
          187         188         189         190         191         192
    1   3.5270344   3.5807079   3.5856228   3.6158301   3.6558326   3.6737426
          193         194         195         196         197         198
    1   3.6928520   3.7272133   3.7303268   3.7314399   3.7573496   3.7632616
          199         200         201         202         203         204
    1   3.7781655   3.7912019   3.7975409   3.8203441   3.9363009   3.9421889
          205         206         207         208         209         210
    1   3.9895100   4.0136183   4.0737326   4.0764586   4.1371460   4.1886740
          211         212         213         214         215         216
    1   4.2422091   4.2955353   4.3458661   4.3477490   4.3630926   4.3641500
          217         218         219         220         221         222
    1   4.3853352   4.4408200   4.5106553   4.5134754   4.5378579   4.5492174
          223         224         225         226         227         228
    1   4.5920814   4.6591518   4.7974660   4.8136678   4.8716348   4.8839783
          229         230         231         232         233         234
    1   4.9072801   4.9711899   5.0953155   5.1653029   5.1737111   5.1870896
          235         236         237         238         239         240
    1   5.2555985   5.3888486   5.4652332   5.5337987   5.5646864   5.6153954
          241         242         243         244         245         246
    1   5.6720735   5.6894363   5.6970155   5.8402932   5.9000721   6.0073434
          247         248         249         250         251         252
    1   6.0401711   6.2412158   6.3206590   6.5684226   6.6175799   6.7919765
          253         254         255         256         257         258
    1   6.8200081   6.9043583   6.9503843   6.9246664   7.1540347   7.1575623
          259         260         261         262         263         264
    1   7.1987344   7.3373309   7.4186729   7.4284642   7.5959649   7.6310769
          265         266         267         268         269         270
    1  23.1771382  23.5789283  23.7913093  23.8850588  24.0969925  24.5029790
          271         272
    1  45.3255924  45.5080443
 SCF time:   CPU 329.10s  wall 335.00s 
<S^2> =          2.000000000
 SCF   energy in the final basis set =     -379.3093788724
 Total energy in the final basis set =     -379.3093788724
  
     ##========================================##
     ||                                        ||
     ||              R A S M A N 2             ||
     ||________________________________________||
     ||                                        ||
     ||  Author:                               ||
     ||                                        ||
     ||        David Casanova (2010)           ||
     ||                                        ||
     ##========================================##
  
Setting single-point xc-functionals (if necessary)

  ***************************************************
  *  RAS-CI Dimensions:                             *
  *                                                 *
  *  Active Elec.:   4 ( 2, 2)   Active Orb.:   4   *
  *  Doubly Occ. :  26           Doubly Vir.: 242   *
  *  Frozen Occ. :   0           Frozen Vir.:   0   *
  *                                                 *
  *  Total CI configurations:     12900             * 
  *    Active configurations:        36             * 
  *      Hole configurations:      1248             * 
  *  Particle configurations:     11616             * 
  *                                                 *
  *   Requested states:       50                    *
  *  Spin multiplicity: Any multiplicity            *
  *                                                 *
  ***************************************************
-----------------------------------------
    Memory requirements of RASCI

 Each CI-vector requires      0.10 MiB 
 Max. subspace vectors           7500      

 Reduced Lists                0.00 MiB 
 Excitation Lists             0.00 MiB 
 Excitation Lists Sign        0.00 MiB 
 CI-space (Max)            1172.28 MiB 
 Integrals                   22.13 MiB 
 Memory required (Max)     1172.28 MiB 
 Memory available          7811.55 MiB 

    Disk requirements of RASCI

 Fock matrix                  1.13 MiB 
 2-electron integrals        30.73 MiB 
 CI-space                  1476.29 MiB 
 Disk required             1508.14 MiB 
-----------------------------------------
  
RAS1 HF-like energy:           -376.1156846594
 Computing integrals
 Computing J and K matrices
 Computing addressing
 Making amplitude guesses
 
Direct CI diagonalization
 ---------------------------------------------------
 Iter    Rts Conv    Rts Left    Ttl Dev     Max Dev
 ---------------------------------------------------
   1         0          50      0.075501    0.003386
   2         0          50      0.052170    0.006904
   3         0          50      0.043792    0.003194
   4         0          50      0.061265    0.003235
   5         0          50      0.061977    0.004341
   6         0          50      0.053465    0.002965
   7         0          50      0.038939    0.002986
   8         1          49      0.031139    0.002785
   9         2          48      0.022393    0.003282
  10         4          46      0.019171    0.001604
  11         6          44      0.014263    0.001823
  12         6          44      0.009679    0.001391
  13         8          42      0.006424    0.001047
  14        10          40      0.005864    0.001524
  15        14          36      0.004077    0.000917
  16        17          33      0.003892    0.000947
  17        18          32      0.008020    0.001561
  18        23          27      0.006521    0.001151
  19        25          25      0.004378    0.000726
  20        29          21      0.005289    0.002121
  21        32          18      0.003777    0.001072
  22        34          16      0.003457    0.001143
  23        35          15      0.002758    0.000935
  24        35          15      0.002118    0.000699
  25        35          15      0.002869    0.001206
  26        35          15      0.003459    0.000997
  27        37          13      0.002363    0.000762
  28        37          13      0.001483    0.000520
  29        38          12      0.000887    0.000299
  30        38          12      0.000599    0.000205
  31        39          11      0.000464    0.000165
  32        40          10      0.000355    0.000127
  33        40          10      0.000206    0.000075
  34        41           9      0.000127    0.000045
  35        43           7      0.000083    0.000029
  36        45           5      0.000057    0.000019
  37        45           5      0.000038    0.000011
  38        46           4      0.000029    0.000006
  39        47           3      0.000022    0.000004
  40        49           1      0.000019    0.000002
  41        50           0      0.000017    0.000001    Roots Converged
 ---------------------------------------------------
   
**************************************************
 RAS-CI total energy for state   1:   -379.387056887355
  Excitation energy (eV) =  0.000000000000
  State symmetry: A1    (C2v      )
  <S^2>      :  0.0000
  Dipole Moment:    0.0000 X     0.0000 Y    -0.4341 Z
 NATURAL OCCUPATION NUMBERS (higher than 1.0E-05)
            1           2           3           4           5           6
    1   2.0000000   2.0000000   2.0000000   2.0000000   2.0000000   2.0000000
            7           8           9          10          11          12
    1   2.0000000   2.0000000   2.0000000   2.0000000   2.0000000   2.0000000
           13          14          15          16          17          18
    1   2.0000000   2.0000000   2.0000000   2.0000000   2.0000000   1.9999999
           19          20          21          22          23          24
    1   1.9999997   1.9999953   1.9999917   1.9999783   1.9999591   1.9999278
           25          26          27          28          29          30
    1   1.9966186   1.9860320   1.9606576   1.9108614   0.1000875   0.0318165
           31          32          33          34          35          36
    1   0.0113520   0.0013828   0.0006145   0.0002524   0.0001703   0.0001307
           37          38          39
    1   0.0000980   0.0000381   0.0000266

 Head-Gordon Nu:    0.29
 Head-Gordon Nu_nl: 0.08

  Amplitudes : 
  
 | HOLE  | ALPHA | BETA  | PART  |    AMPLITUDE 
--------------------------------------------------
 |       | 1100  | 1100  |       |     7.6401250526230E-01
 |  19   | 1110  | 1100  |       |    -3.2423122913271E-01
 |  19   | 1100  | 1110  |       |    -3.2423122913271E-01
 |  24   | 1110  | 1100  |       |    -1.2989930707878E-01
 |  24   | 1100  | 1110  |       |    -1.2989930707878E-01
 |  25   | 1110  | 1100  |       |    -2.4028719227646E-01
 |  25   | 1100  | 1110  |       |    -2.4028719227646E-01
--------------------------------------------------
*** Contributions RASCI wfn    Active:  59.56
                                 Hole:  37.21
                                 Part:   3.24

      Mulliken population analysis 
 ---------------------------------------------------
   Atom    Charge (a.u.)   Spin (a.u.)  
 ---------------------------------------------------
   1  O   -0.366815       -0.000000 
   2  C    0.433472       -0.000000 
   3  C   -0.148508       -0.000000 
   4  C   -0.148508        0.000000 
   5  C   -0.139347        0.000000 
   6  C   -0.139347       -0.000000 
   7  C    0.376380       -0.000000 
   8  O   -0.460256        0.000000 
   9  H    0.146581        0.000000 
  10  H    0.146581       -0.000000 
  11  H    0.149882        0.000000 
  12  H    0.149882       -0.000000 
 ---------------------------------------------------
   Sum:    0.000000        0.000000 
 ---------------------------------------------------
 
  
 NATURAL OCCUPATION NUMBERS (higher than 1.0E-05)
            1           2           3           4           5           6
    1   2.0000000   2.0000000   2.0000000   2.0000000   2.0000000   2.0000000
            7           8           9          10          11          12
    1   2.0000000   2.0000000   2.0000000   2.0000000   2.0000000   2.0000000
           13          14          15          16          17          18
    1   2.0000000   2.0000000   2.0000000   2.0000000   2.0000000   1.9999999
           19          20          21          22          23          24
    1   1.9999997   1.9999953   1.9999917   1.9999783   1.9999591   1.9999278
           25          26          27          28          29          30
    1   1.9966186   1.9860320   1.9606576   1.9108614   0.1000875   0.0318165
           31          32          33          34          35          36
    1   0.0113520   0.0013828   0.0006145   0.0002524   0.0001703   0.0001307
           37          38          39
    1   0.0000980   0.0000381   0.0000266
  
*** Unpaired Electrons
 Yamaguchi Nd:         0.56
 Head-Gordon Nu:       0.29
 Head-Gordon Nu_nl:    0.08
  
**************************************************
 RAS-CI total energy for state   2:   -379.334448081490
  Excitation energy (eV) =  1.431558443000
  State symmetry: A2    (C2v      )
  <S^2>      :  2.0000
  Dipole Moment:   -0.0000 X    -0.0000 Y    -1.5545 Z
  Trans. Moment:    0.0000 X     0.0000 Y    -0.0000 Z
  Strength   :  0.000000
  Natural transition orbitals ( 1 -> 2 ):
   e-/hole pair  1:  ampl =  0.873938 ( 76.4%)   [4 : 5]
   e-/hole pair  2:  ampl =  0.056816 (  0.3%)   [3 : 6]
   Sum of square amplitudes: 0.77

 NATURAL OCCUPATION NUMBERS (higher than 1.0E-05)
            1           2           3           4           5           6
    1   2.0000000   2.0000000   2.0000000   2.0000000   2.0000000   2.0000000
            7           8           9          10          11          12
    1   2.0000000   2.0000000   2.0000000   2.0000000   2.0000000   2.0000000
           13          14          15          16          17          18
    1   2.0000000   2.0000000   2.0000000   1.9999999   1.9999997   1.9999990
           19          20          21          22          23          24
    1   1.9999982   1.9999915   1.9999874   1.9999862   1.9999178   1.9997451
           25          26          27          28          29          30
    1   1.9992962   1.9923317   1.9441923   1.0002374   0.9999925   0.0523830
           31          32          33          34          35          36
    1   0.0071467   0.0026131   0.0013769   0.0004203   0.0002423   0.0000598
           37          38          39
    1   0.0000404   0.0000163   0.0000102

 Head-Gordon Nu:    2.13
 Head-Gordon Nu_nl: 2.02

  Amplitudes : 
  
 | HOLE  | ALPHA | BETA  | PART  |    AMPLITUDE 
--------------------------------------------------
 |       | 1100  | 1010  |       |     6.9177365231811E-01
 |       | 1010  | 1100  |       |    -6.9177365231810E-01
--------------------------------------------------
*** Contributions RASCI wfn    Active:  97.58
                                 Hole:   0.97
                                 Part:   1.45

      Mulliken population analysis 
 ---------------------------------------------------
   Atom    Charge (a.u.)   Spin (a.u.)  
 ---------------------------------------------------
   1  O   -0.169819        0.000000 
   2  C    0.400815       -0.000000 
   3  C   -0.210746        0.000000 
   4  C   -0.210746        0.000000 
   5  C   -0.133836       -0.000000 
   6  C   -0.133836       -0.000000 
   7  C    0.339298       -0.000000 
   8  O   -0.482007       -0.000000 
   9  H    0.149460       -0.000000 
  10  H    0.149460       -0.000000 
  11  H    0.150978       -0.000000 
  12  H    0.150978       -0.000000 
 ---------------------------------------------------
   Sum:    0.000000       -0.000000 
 ---------------------------------------------------
 
  
 NATURAL OCCUPATION NUMBERS (higher than 1.0E-05)
            1           2           3           4           5           6
    1   2.0000000   2.0000000   2.0000000   2.0000000   2.0000000   2.0000000
            7           8           9          10          11          12
    1   2.0000000   2.0000000   2.0000000   2.0000000   2.0000000   2.0000000
           13          14          15          16          17          18
    1   2.0000000   2.0000000   2.0000000   1.9999999   1.9999997   1.9999990
           19          20          21          22          23          24
    1   1.9999982   1.9999915   1.9999874   1.9999862   1.9999178   1.9997451
           25          26          27          28          29          30
    1   1.9992962   1.9923317   1.9441923   1.0002374   0.9999925   0.0523830
           31          32          33          34          35          36
    1   0.0071467   0.0026131   0.0013769   0.0004203   0.0002423   0.0000598
           37          38          39
    1   0.0000404   0.0000163   0.0000102
  
*** Unpaired Electrons
 Yamaguchi Nd:         2.25
 Head-Gordon Nu:       2.13
 Head-Gordon Nu_nl:    2.02
  
**************************************************
 RAS-CI total energy for state   3:   -379.329627650428
  Excitation energy (eV) =  1.562729045930
  State symmetry: A2    (C2v      )
  <S^2>      :  0.0000
  Dipole Moment:   -0.0000 X    -0.0000 Y    -1.4851 Z
  Trans. Moment:    0.0000 X     0.0000 Y    -0.0000 Z
  Strength   :  0.000000
  Natural transition orbitals ( 1 -> 3 ):
   e-/hole pair  1:  ampl =  0.851876 ( 72.6%)   [4 : 5]
   e-/hole pair  2:  ampl =  0.057800 (  0.3%)   [3 : 6]
   Sum of square amplitudes: 0.73

 NATURAL OCCUPATION NUMBERS (higher than 1.0E-05)
            1           2           3           4           5           6
    1   2.0000000   2.0000000   2.0000000   2.0000000   2.0000000   2.0000000
            7           8           9          10          11          12
    1   2.0000000   2.0000000   2.0000000   2.0000000   2.0000000   2.0000000
           13          14          15          16          17          18
    1   2.0000000   2.0000000   1.9999999   1.9999998   1.9999998   1.9999987
           19          20          21          22          23          24
    1   1.9999986   1.9999976   1.9999650   1.9999354   1.9999293   1.9998339
           25          26          27          28          29          30
    1   1.9991838   1.9930816   1.9412672   1.0001512   0.9993683   0.0550391
           31          32          33          34          35          36
    1   0.0076496   0.0023952   0.0013830   0.0004419   0.0002049   0.0000765
           37          38          39
    1   0.0000410   0.0000270   0.0000133

 Head-Gordon Nu:    2.13
 Head-Gordon Nu_nl: 2.02

  Amplitudes : 
  
 | HOLE  | ALPHA | BETA  | PART  |    AMPLITUDE 
--------------------------------------------------
 |       | 1100  | 1010  |       |     6.8862961934628E-01
 |       | 1010  | 1100  |       |     6.8862961934628E-01
--------------------------------------------------
*** Contributions RASCI wfn    Active:  96.97
                                 Hole:   1.42
                                 Part:   1.61

      Mulliken population analysis 
 ---------------------------------------------------
   Atom    Charge (a.u.)   Spin (a.u.)  
 ---------------------------------------------------
   1  O   -0.183134       -0.000000 
   2  C    0.413461        0.000000 
   3  C   -0.216619        0.000000 
   4  C   -0.216619        0.000000 
   5  C   -0.126479       -0.000000 
   6  C   -0.126479        0.000000 
   7  C    0.333322        0.000000 
   8  O   -0.478132       -0.000000 
   9  H    0.149365        0.000000 
  10  H    0.149365        0.000000 
  11  H    0.150975       -0.000000 
  12  H    0.150975       -0.000000 
 ---------------------------------------------------
   Sum:    0.000000        0.000000 
 ---------------------------------------------------
 
  
 NATURAL OCCUPATION NUMBERS (higher than 1.0E-05)
            1           2           3           4           5           6
    1   2.0000000   2.0000000   2.0000000   2.0000000   2.0000000   2.0000000
            7           8           9          10          11          12
    1   2.0000000   2.0000000   2.0000000   2.0000000   2.0000000   2.0000000
           13          14          15          16          17          18
    1   2.0000000   2.0000000   1.9999999   1.9999998   1.9999998   1.9999987
           19          20          21          22          23          24
    1   1.9999986   1.9999976   1.9999650   1.9999354   1.9999293   1.9998339
           25          26          27          28          29          30
    1   1.9991838   1.9930816   1.9412672   1.0001512   0.9993683   0.0550391
           31          32          33          34          35          36
    1   0.0076496   0.0023952   0.0013830   0.0004419   0.0002049   0.0000765
           37          38          39
    1   0.0000410   0.0000270   0.0000133
  
*** Unpaired Electrons
 Yamaguchi Nd:         2.26
 Head-Gordon Nu:       2.13
 Head-Gordon Nu_nl:    2.02
  
**************************************************
 RAS-CI total energy for state   4:   -379.279843135499
  Excitation energy (eV) =  2.917434622426
  State symmetry: A1    (C2v      )
  <S^2>      :  2.0000
  Dipole Moment:   -0.0000 X    -0.0000 Y    -1.1432 Z
  Trans. Moment:   -0.0000 X    -0.0000 Y     0.0000 Z
  Strength   :  0.000000
  Natural transition orbitals ( 1 -> 4 ):
   e-/hole pair  1:  ampl =  0.941698 ( 88.7%)   [4 : 5]
   e-/hole pair  2:  ampl =  0.192359 (  3.7%)   [3 : 6]
   Sum of square amplitudes: 0.96

 NATURAL OCCUPATION NUMBERS (higher than 1.0E-05)
            1           2           3           4           5           6
    1   2.0000000   2.0000000   2.0000000   2.0000000   2.0000000   2.0000000
            7           8           9          10          11          12
    1   2.0000000   2.0000000   2.0000000   2.0000000   2.0000000   2.0000000
           13          14          15          16          17          18
    1   2.0000000   2.0000000   2.0000000   2.0000000   1.9999999   1.9999999
           19          20          21          22          23          24
    1   1.9999997   1.9999993   1.9999953   1.9999887   1.9999829   1.9999767
           25          26          27          28          29          30
    1   1.9992219   1.9983327   1.9416430   1.0295345   0.9724342   0.0566543
           31          32          33          34          35          36
    1   0.0007353   0.0006622   0.0004640   0.0002773   0.0000506   0.0000220
           37
    1   0.0000133

 Head-Gordon Nu:    2.06
 Head-Gordon Nu_nl: 2.02

  Amplitudes : 
  
 | HOLE  | ALPHA | BETA  | PART  |    AMPLITUDE 
--------------------------------------------------
 |  19   | 1110  | 1100  |       |     5.4394744617124E-01
 |  19   | 1100  | 1110  |       |    -5.4394744617124E-01
 |  24   | 1110  | 1100  |       |     2.2182966074787E-01
 |  24   | 1100  | 1110  |       |    -2.2182966074787E-01
 |  25   | 1110  | 1100  |       |     3.6159906198874E-01
 |  25   | 1100  | 1110  |       |    -3.6159906198873E-01
--------------------------------------------------
*** Contributions RASCI wfn    Active:   1.77
                                 Hole:  97.98
                                 Part:   0.25

      Mulliken population analysis 
 ---------------------------------------------------
   Atom    Charge (a.u.)   Spin (a.u.)  
 ---------------------------------------------------
   1  O   -0.269627       -0.000000 
   2  C    0.449613        0.000000 
   3  C   -0.191371       -0.000000 
   4  C   -0.191371       -0.000000 
   5  C   -0.131116        0.000000 
   6  C   -0.131116        0.000000 
   7  C    0.334805        0.000000 
   8  O   -0.468168        0.000000 
   9  H    0.148918       -0.000000 
  10  H    0.148918       -0.000000 
  11  H    0.150258        0.000000 
  12  H    0.150258        0.000000 
 ---------------------------------------------------
   Sum:    0.000000        0.000000 
 ---------------------------------------------------
 
  
 NATURAL OCCUPATION NUMBERS (higher than 1.0E-05)
            1           2           3           4           5           6
    1   2.0000000   2.0000000   2.0000000   2.0000000   2.0000000   2.0000000
            7           8           9          10          11          12
    1   2.0000000   2.0000000   2.0000000   2.0000000   2.0000000   2.0000000
           13          14          15          16          17          18
    1   2.0000000   2.0000000   2.0000000   2.0000000   1.9999999   1.9999999
           19          20          21          22          23          24
    1   1.9999997   1.9999993   1.9999953   1.9999887   1.9999829   1.9999767
           25          26          27          28          29          30
    1   1.9992219   1.9983327   1.9416430   1.0295345   0.9724342   0.0566543
           31          32          33          34          35          36
    1   0.0007353   0.0006622   0.0004640   0.0002773   0.0000506   0.0000220
           37
    1   0.0000133
  
*** Unpaired Electrons
 Yamaguchi Nd:         2.23
 Head-Gordon Nu:       2.06
 Head-Gordon Nu_nl:    2.02
  
**************************************************
 RAS-CI total energy for state   5:   -379.240180195902
  Excitation energy (eV) =  3.996718121089
  State symmetry: B1    (C2v      )
  <S^2>      :  2.0000
  Dipole Moment:    0.0000 X    -0.0000 Y    -0.1454 Z
  Trans. Moment:    0.0000 X    -0.0000 Y    -0.0000 Z
  Strength   :  0.000000
  Natural transition orbitals ( 1 -> 5 ):
   e-/hole pair  1:  ampl =  0.912265 ( 83.2%)   [4 : 5]
   e-/hole pair  2:  ampl =  0.207027 (  4.3%)   [3 : 6]
   Sum of square amplitudes: 0.88

 NATURAL OCCUPATION NUMBERS (higher than 1.0E-05)
            1           2           3           4           5           6
    1   2.0000000   2.0000000   2.0000000   2.0000000   2.0000000   2.0000000
            7           8           9          10          11          12
    1   2.0000000   2.0000000   2.0000000   2.0000000   2.0000000   2.0000000
           13          14          15          16          17          18
    1   2.0000000   2.0000000   2.0000000   1.9999999   1.9999999   1.9999982
           19          20          21          22          23          24
    1   1.9999959   1.9999878   1.9999827   1.9999692   1.9999290   1.9998594
           25          26          27          28          29          30
    1   1.9900159   1.9789162   1.8967331   1.0524409   0.9807717   0.0698823
           31          32          33          34          35          36
    1   0.0198770   0.0097378   0.0006608   0.0005557   0.0003534   0.0001301
           37          38          39
    1   0.0000908   0.0000475   0.0000424

 Head-Gordon Nu:    2.16
 Head-Gordon Nu_nl: 2.05

  Amplitudes : 
  
 | HOLE  | ALPHA | BETA  | PART  |    AMPLITUDE 
--------------------------------------------------
 |       | 1100  | 0110  |       |     5.3156429401509E-01
 |       | 0110  | 1100  |       |    -5.3156429401508E-01
 |  25   | 1101  | 1100  |       |     1.3033518185520E-01
 |  25   | 1100  | 1101  |       |    -1.3033518185520E-01
 |  19   | 1110  | 0110  |       |    -3.0707451854250E-01
 |  19   | 0110  | 1110  |       |     3.0707451854248E-01
 |  24   | 1110  | 0110  |       |    -1.2904756469538E-01
 |  24   | 0110  | 1110  |       |     1.2904756469537E-01
 |  25   | 1110  | 0110  |       |    -1.9778152204467E-01
 |  25   | 0110  | 1110  |       |     1.9778152204466E-01
--------------------------------------------------
*** Contributions RASCI wfn    Active:  56.68
                                 Hole:  36.32
                                 Part:   7.01

      Mulliken population analysis 
 ---------------------------------------------------
   Atom    Charge (a.u.)   Spin (a.u.)  
 ---------------------------------------------------
   1  O   -0.508924       -0.000000 
   2  C    0.265441        0.000000 
   3  C    0.009800        0.000000 
   4  C    0.009800        0.000000 
   5  C   -0.059679        0.000000 
   6  C   -0.059679        0.000000 
   7  C    0.310159       -0.000000 
   8  O   -0.557240       -0.000000 
   9  H    0.145458        0.000000 
  10  H    0.145458        0.000000 
  11  H    0.149703       -0.000000 
  12  H    0.149703       -0.000000 
 ---------------------------------------------------
   Sum:    0.000000        0.000000 
 ---------------------------------------------------
 
  
 NATURAL OCCUPATION NUMBERS (higher than 1.0E-05)
            1           2           3           4           5           6
    1   2.0000000   2.0000000   2.0000000   2.0000000   2.0000000   2.0000000
            7           8           9          10          11          12
    1   2.0000000   2.0000000   2.0000000   2.0000000   2.0000000   2.0000000
           13          14          15          16          17          18
    1   2.0000000   2.0000000   2.0000000   1.9999999   1.9999999   1.9999982
           19          20          21          22          23          24
    1   1.9999959   1.9999878   1.9999827   1.9999692   1.9999290   1.9998594
           25          26          27          28          29          30
    1   1.9900159   1.9789162   1.8967331   1.0524409   0.9807717   0.0698823
           31          32          33          34          35          36
    1   0.0198770   0.0097378   0.0006608   0.0005557   0.0003534   0.0001301
           37          38          39
    1   0.0000908   0.0000475   0.0000424
  
*** Unpaired Electrons
 Yamaguchi Nd:         2.45
 Head-Gordon Nu:       2.16
 Head-Gordon Nu_nl:    2.05
  
**************************************************
 RAS-CI total energy for state   6:   -379.226501301760
  Excitation energy (eV) =  4.368939768729
  State symmetry: B2    (C2v      )
  <S^2>      :  2.0000
  Dipole Moment:    0.0000 X    -0.0000 Y    -1.5849 Z
  Trans. Moment:   -0.0000 X     0.0000 Y     0.0000 Z
  Strength   :  0.000000
  Natural transition orbitals ( 1 -> 6 ):
   e-/hole pair  1:  ampl =  0.319239 ( 10.2%)   [4 : 5]
   e-/hole pair  2:  ampl =  0.021900 (  0.0%)   [3 : 6]
   Sum of square amplitudes: 0.10

 NATURAL OCCUPATION NUMBERS (higher than 1.0E-05)
            1           2           3           4           5           6
    1   2.0000000   2.0000000   2.0000000   2.0000000   2.0000000   2.0000000
            7           8           9          10          11          12
    1   2.0000000   2.0000000   2.0000000   2.0000000   2.0000000   2.0000000
           13          14          15          16          17          18
    1   1.9999999   1.9999999   1.9999999   1.9999997   1.9999985   1.9999977
           19          20          21          22          23          24
    1   1.9999958   1.9999841   1.9999730   1.9999140   1.9998280   1.9996115
           25          26          27          28          29          30
    1   1.9994692   1.9813828   1.4339976   1.2466773   1.0003256   0.3197869
           31          32          33          34          35          36
    1   0.0138438   0.0017589   0.0015413   0.0006059   0.0005562   0.0003787
           37          38          39          40          41
    1   0.0001391   0.0001041   0.0000625   0.0000246   0.0000191

 Head-Gordon Nu:    2.68
 Head-Gordon Nu_nl: 2.83

  Amplitudes : 
  
 | HOLE  | ALPHA | BETA  | PART  |    AMPLITUDE 
--------------------------------------------------
 |       | 1100  | 1001  |       |    -3.1742954357311E-01
 |       | 1010  | 0110  |       |    -5.7377799806914E-01
 |       | 1001  | 1100  |       |     3.1742954357296E-01
 |       | 0110  | 1010  |       |     5.7377799806940E-01
 |  25   | 1110  | 1001  |       |    -1.0025006008707E-01
 |  25   | 1001  | 1110  |       |     1.0025006008702E-01
--------------------------------------------------
*** Contributions RASCI wfn    Active:  88.32
                                 Hole:   6.13
                                 Part:   5.55

      Mulliken population analysis 
 ---------------------------------------------------
   Atom    Charge (a.u.)   Spin (a.u.)  
 ---------------------------------------------------
   1  O   -0.184197        0.000000 
   2  C    0.316700        0.000000 
   3  C   -0.153964       -0.000000 
   4  C   -0.153964       -0.000000 
   5  C   -0.133068       -0.000000 
   6  C   -0.133068       -0.000000 
   7  C    0.376272       -0.000000 
   8  O   -0.534081       -0.000000 
   9  H    0.149300       -0.000000 
  10  H    0.149300       -0.000000 
  11  H    0.150385       -0.000000 
  12  H    0.150385       -0.000000 
 ---------------------------------------------------
   Sum:    0.000000       -0.000000 
 ---------------------------------------------------
 
  
 NATURAL OCCUPATION NUMBERS (higher than 1.0E-05)
            1           2           3           4           5           6
    1   2.0000000   2.0000000   2.0000000   2.0000000   2.0000000   2.0000000
            7           8           9          10          11          12
    1   2.0000000   2.0000000   2.0000000   2.0000000   2.0000000   2.0000000
           13          14          15          16          17          18
    1   1.9999999   1.9999999   1.9999999   1.9999997   1.9999985   1.9999977
           19          20          21          22          23          24
    1   1.9999958   1.9999841   1.9999730   1.9999140   1.9998280   1.9996115
           25          26          27          28          29          30
    1   1.9994692   1.9813828   1.4339976   1.2466773   1.0003256   0.3197869
           31          32          33          34          35          36
    1   0.0138438   0.0017589   0.0015413   0.0006059   0.0005562   0.0003787
           37          38          39          40          41
    1   0.0001391   0.0001041   0.0000625   0.0000246   0.0000191
  
*** Unpaired Electrons
 Yamaguchi Nd:         3.37
 Head-Gordon Nu:       2.68
 Head-Gordon Nu_nl:    2.83
  
**************************************************
 RAS-CI total energy for state   7:   -379.225404108614
  Excitation energy (eV) =  4.398795913261
  State symmetry: B2    (C2v      )
  <S^2>      :  0.0000
  Dipole Moment:    0.0000 X    -0.0000 Y    -1.5912 Z
  Trans. Moment:   -0.0000 X     0.0166 Y     0.0000 Z
  Strength   :  0.000030
  Natural transition orbitals ( 1 -> 7 ):
   e-/hole pair  1:  ampl =  0.320269 ( 10.3%)   [4 : 5]
   e-/hole pair  2:  ampl =  0.021988 (  0.0%)   [3 : 6]
   Sum of square amplitudes: 0.10

 NATURAL OCCUPATION NUMBERS (higher than 1.0E-05)
            1           2           3           4           5           6
    1   2.0000000   2.0000000   2.0000000   2.0000000   2.0000000   2.0000000
            7           8           9          10          11          12
    1   2.0000000   2.0000000   2.0000000   2.0000000   2.0000000   2.0000000
           13          14          15          16          17          18
    1   2.0000000   1.9999999   1.9999998   1.9999996   1.9999995   1.9999964
           19          20          21          22          23          24
    1   1.9999920   1.9999823   1.9999691   1.9999386   1.9998202   1.9996517
           25          26          27          28          29          30
    1   1.9994522   1.9801303   1.4334002   1.2488844   1.0003025   0.3182327
           31          32          33          34          35          36
    1   0.0151742   0.0017150   0.0015083   0.0006037   0.0005192   0.0003761
           37          38          39          40          41
    1   0.0001406   0.0001001   0.0000519   0.0000270   0.0000136

 Head-Gordon Nu:    2.68
 Head-Gordon Nu_nl: 2.83

  Amplitudes : 
  
 | HOLE  | ALPHA | BETA  | PART  |    AMPLITUDE 
--------------------------------------------------
 |       | 1100  | 1001  |       |    -3.1782055453356E-01
 |       | 1010  | 0110  |       |     5.7346899148350E-01
 |       | 1001  | 1100  |       |    -3.1782055453370E-01
 |       | 0110  | 1010  |       |     5.7346899148324E-01
--------------------------------------------------
*** Contributions RASCI wfn    Active:  88.14
                                 Hole:   6.23
                                 Part:   5.62

      Mulliken population analysis 
 ---------------------------------------------------
   Atom    Charge (a.u.)   Spin (a.u.)  
 ---------------------------------------------------
   1  O   -0.182762       -0.000000 
   2  C    0.315249       -0.000000 
   3  C   -0.153682        0.000000 
   4  C   -0.153682        0.000000 
   5  C   -0.133449        0.000000 
   6  C   -0.133449        0.000000 
   7  C    0.376339        0.000000 
   8  O   -0.533867       -0.000000 
   9  H    0.149264        0.000000 
  10  H    0.149264        0.000000 
  11  H    0.150387        0.000000 
  12  H    0.150387        0.000000 
 ---------------------------------------------------
   Sum:    0.000000        0.000000 
 ---------------------------------------------------
 
  
 NATURAL OCCUPATION NUMBERS (higher than 1.0E-05)
            1           2           3           4           5           6
    1   2.0000000   2.0000000   2.0000000   2.0000000   2.0000000   2.0000000
            7           8           9          10          11          12
    1   2.0000000   2.0000000   2.0000000   2.0000000   2.0000000   2.0000000
           13          14          15          16          17          18
    1   2.0000000   1.9999999   1.9999998   1.9999996   1.9999995   1.9999964
           19          20          21          22          23          24
    1   1.9999920   1.9999823   1.9999691   1.9999386   1.9998202   1.9996517
           25          26          27          28          29          30
    1   1.9994522   1.9801303   1.4334002   1.2488844   1.0003025   0.3182327
           31          32          33          34          35          36
    1   0.0151742   0.0017150   0.0015083   0.0006037   0.0005192   0.0003761
           37          38          39          40          41
    1   0.0001406   0.0001001   0.0000519   0.0000270   0.0000136
  
*** Unpaired Electrons
 Yamaguchi Nd:         3.37
 Head-Gordon Nu:       2.68
 Head-Gordon Nu_nl:    2.83
  
**************************************************
 RAS-CI total energy for state   8:   -379.204846432146
  Excitation energy (eV) =  4.958198751504
  State symmetry: B1    (C2v      )
  <S^2>      :  0.0000
  Dipole Moment:    0.0000 X    -0.0000 Y    -0.8798 Z
  Trans. Moment:    0.1308 X     0.0000 Y     0.0000 Z
  Strength   :  0.002078
  Natural transition orbitals ( 1 -> 8 ):
   e-/hole pair  1:  ampl =  0.897222 ( 80.5%)   [4 : 5]
   e-/hole pair  2:  ampl =  0.094981 (  0.9%)   [3 : 6]
   Sum of square amplitudes: 0.82

 NATURAL OCCUPATION NUMBERS (higher than 1.0E-05)
            1           2           3           4           5           6
    1   2.0000000   2.0000000   2.0000000   2.0000000   2.0000000   2.0000000
            7           8           9          10          11          12
    1   2.0000000   2.0000000   2.0000000   2.0000000   2.0000000   2.0000000
           13          14          15          16          17          18
    1   2.0000000   2.0000000   2.0000000   2.0000000   1.9999999   1.9999978
           19          20          21          22          23          24
    1   1.9999948   1.9999928   1.9999830   1.9999389   1.9999112   1.9998009
           25          26          27          28          29          30
    1   1.9997385   1.9807449   1.9464605   1.0105444   1.0096574   0.0257688
           31          32          33          34          35          36
    1   0.0175880   0.0071773   0.0010582   0.0005981   0.0004890   0.0002814
           37          38          39          40
    1   0.0001196   0.0000996   0.0000254   0.0000122

 Head-Gordon Nu:    2.11
 Head-Gordon Nu_nl: 2.02

  Amplitudes : 
  
 | HOLE  | ALPHA | BETA  | PART  |    AMPLITUDE 
--------------------------------------------------
 |       | 1100  | 0110  |       |     4.8819194654960E-01
 |       | 0110  | 1100  |       |     4.8819194654962E-01
 |  19   | 1110  | 0110  |       |    -3.8976378566148E-01
 |  19   | 0110  | 1110  |       |    -3.8976378566149E-01
 |  24   | 1110  | 0110  |       |    -1.6392345816797E-01
 |  24   | 0110  | 1110  |       |    -1.6392345816798E-01
 |  25   | 1110  | 0110  |       |    -2.2163129462210E-01
 |  25   | 0110  | 1110  |       |    -2.2163129462210E-01
--------------------------------------------------
*** Contributions RASCI wfn    Active:  47.72
                                 Hole:  47.38
                                 Part:   4.90

      Mulliken population analysis 
 ---------------------------------------------------
   Atom    Charge (a.u.)   Spin (a.u.)  
 ---------------------------------------------------
   1  O   -0.397690        0.000000 
   2  C    0.187849        0.000000 
   3  C    0.023200       -0.000000 
   4  C    0.023200       -0.000000 
   5  C   -0.046788       -0.000000 
   6  C   -0.046788       -0.000000 
   7  C    0.262301        0.000000 
   8  O   -0.598931        0.000000 
   9  H    0.146873        0.000000 
  10  H    0.146873        0.000000 
  11  H    0.149951       -0.000000 
  12  H    0.149951       -0.000000 
 ---------------------------------------------------
   Sum:    0.000000       -0.000000 
 ---------------------------------------------------
 
  
 NATURAL OCCUPATION NUMBERS (higher than 1.0E-05)
            1           2           3           4           5           6
    1   2.0000000   2.0000000   2.0000000   2.0000000   2.0000000   2.0000000
            7           8           9          10          11          12
    1   2.0000000   2.0000000   2.0000000   2.0000000   2.0000000   2.0000000
           13          14          15          16          17          18
    1   2.0000000   2.0000000   2.0000000   2.0000000   1.9999999   1.9999978
           19          20          21          22          23          24
    1   1.9999948   1.9999928   1.9999830   1.9999389   1.9999112   1.9998009
           25          26          27          28          29          30
    1   1.9997385   1.9807449   1.9464605   1.0105444   1.0096574   0.0257688
           31          32          33          34          35          36
    1   0.0175880   0.0071773   0.0010582   0.0005981   0.0004890   0.0002814
           37          38          39          40
    1   0.0001196   0.0000996   0.0000254   0.0000122
  
*** Unpaired Electrons
 Yamaguchi Nd:         2.25
 Head-Gordon Nu:       2.11
 Head-Gordon Nu_nl:    2.02
  
**************************************************
 RAS-CI total energy for state   9:   -379.193096563916
  Excitation energy (eV) =  5.277928933402
  State symmetry: A2    (C2v      )
  <S^2>      :  2.0000
  Dipole Moment:   -0.0000 X    -0.0000 Y    -1.6315 Z
  Trans. Moment:    0.0000 X    -0.0000 Y     0.0000 Z
  Strength   :  0.000000
  Natural transition orbitals ( 1 -> 9 ):
   e-/hole pair  1:  ampl =  0.500664 ( 25.1%)   [4 : 5]
   e-/hole pair  2:  ampl =  0.024375 (  0.1%)   [3 : 6]
   Sum of square amplitudes: 0.25

 NATURAL OCCUPATION NUMBERS (higher than 1.0E-05)
            1           2           3           4           5           6
    1   2.0000000   2.0000000   2.0000000   2.0000000   2.0000000   2.0000000
            7           8           9          10          11          12
    1   2.0000000   2.0000000   2.0000000   2.0000000   2.0000000   2.0000000
           13          14          15          16          17          18
    1   2.0000000   2.0000000   1.9999999   1.9999998   1.9999998   1.9999995
           19          20          21          22          23          24
    1   1.9999988   1.9999986   1.9999917   1.9999794   1.9998223   1.9998197
[...]
     10 H                     0.149484
     11 H                     0.150972
     12 H                     0.150972
  ----------------------------------------
  Sum of atomic charges =     0.000000

  Do orbital-by-orbital Lowdin population analysis
 

              Partial Lowdin         Populations for Occupied RHF Orbitals

                         1         2         3         4         5         6
                        1A1       2A1       3A1       4A1       1B1       5A1  
   1    O 1   s     1.99491   0.00000   0.00035   0.00000   0.00000   0.00000
   2    O 1   p     0.00001   0.00000   0.00283   0.00000   0.00001   0.00001
   3    O 1   d     0.00001   0.00000   0.00212   0.00000   0.00000   0.00001
   4    O 1   f     0.00000   0.00000   0.00008   0.00000   0.00000   0.00000
   5    C 1   s     0.00022   0.00000   1.97606   0.00000   0.00000   0.00099
   6    C 1   p     0.00109   0.00000   0.00001   0.00003   0.00347   0.00118
   7    C 1   d     0.00247   0.00000   0.00006   0.00000   0.00572   0.00452
   8    C 1   f     0.00114   0.00000   0.00005   0.00000   0.00064   0.00158
   9    C 2   s     0.00001   0.00000   0.00046   0.00001   0.98300   0.98353
  10    C 2   p     0.00006   0.00000   0.00228   0.00011   0.00006   0.00011
  11    C 2   d     0.00000   0.00000   0.00514   0.00000   0.00008   0.00006
  12    C 2   f     0.00000   0.00000   0.00113   0.00000   0.00004   0.00004
  13    C 3   s     0.00001   0.00000   0.00046   0.00001   0.98300   0.98353
  14    C 3   p     0.00006   0.00000   0.00228   0.00011   0.00006   0.00011
  15    C 3   d     0.00000   0.00000   0.00514   0.00000   0.00008   0.00006
  16    C 3   f     0.00000   0.00000   0.00113   0.00000   0.00004   0.00004
  17    C 4   s     0.00000   0.00001   0.00001   0.00044   0.00464   0.00454
  18    C 4   p     0.00000   0.00007   0.00014   0.00201   0.00145   0.00164
  19    C 4   d     0.00000   0.00000   0.00000   0.00441   0.00352   0.00359
  20    C 4   f     0.00000   0.00000   0.00000   0.00076   0.00125   0.00126
  21    C 5   s     0.00000   0.00001   0.00001   0.00044   0.00464   0.00454
  22    C 5   p     0.00000   0.00007   0.00014   0.00201   0.00145   0.00164
  23    C 5   d     0.00000   0.00000   0.00000   0.00441   0.00352   0.00359
  24    C 5   f     0.00000   0.00000   0.00000   0.00076   0.00125   0.00126
  25    C 6   s     0.00000   0.00028   0.00000   1.97615   0.00000   0.00004
  26    C 6   p     0.00000   0.00133   0.00003   0.00000   0.00010   0.00025
  27    C 6   d     0.00000   0.00301   0.00000   0.00006   0.00002   0.00000
  28    C 6   f     0.00000   0.00210   0.00000   0.00005   0.00000   0.00000
  29    O 2   s     0.00000   1.99312   0.00000   0.00050   0.00000   0.00000
  30    O 2   p     0.00000   0.00001   0.00000   0.00363   0.00000   0.00000
  31    O 2   d     0.00000   0.00001   0.00000   0.00376   0.00000   0.00000
  32    O 2   f     0.00000   0.00000   0.00000   0.00026   0.00000   0.00000
  33    H 1   s     0.00000   0.00000   0.00003   0.00000   0.00049   0.00050
  34    H 1   p     0.00000   0.00000   0.00000   0.00000   0.00045   0.00042
  35    H 2   s     0.00000   0.00000   0.00003   0.00000   0.00049   0.00050
  36    H 2   p     0.00000   0.00000   0.00000   0.00000   0.00045   0.00042
  37    H 3   s     0.00000   0.00000   0.00000   0.00003   0.00003   0.00003
  38    H 3   p     0.00000   0.00000   0.00000   0.00000   0.00000   0.00000
  39    H 4   s     0.00000   0.00000   0.00000   0.00003   0.00003   0.00003
  40    H 4   p     0.00000   0.00000   0.00000   0.00000   0.00000   0.00000
                         7         8         9        10        11        12
                        2B1       6A1       7A1       8A1       9A1       3B1  
   1    O 1   s     0.00000   0.00000   1.10094   0.00077   0.06460   0.00000
   2    O 1   p     0.00000   0.00000   0.06915   0.00003   0.01660   0.00525
   3    O 1   d     0.00000   0.00000   0.00693   0.00000   0.00034   0.00141
   4    O 1   f     0.00000   0.00000   0.00045   0.00000   0.00000   0.00010
   5    C 1   s     0.00000   0.00002   0.28309   0.00049   0.12618   0.00000
   6    C 1   p     0.00006   0.00019   0.22716   0.00281   0.18591   0.21798
   7    C 1   d     0.00003   0.00005   0.09822   0.00009   0.02136   0.04106
   8    C 1   f     0.00001   0.00002   0.02123   0.00002   0.00217   0.00119
   9    C 2   s     0.00478   0.00470   0.02438   0.00261   0.24046   0.27399
  10    C 2   p     0.00147   0.00161   0.04600   0.00527   0.05878   0.04386
  11    C 2   d     0.00347   0.00356   0.01301   0.00041   0.00988   0.01950
  12    C 2   f     0.00122   0.00124   0.00075   0.00002   0.00311   0.00258
  13    C 3   s     0.00478   0.00470   0.02438   0.00261   0.24046   0.27399
  14    C 3   p     0.00147   0.00161   0.04600   0.00527   0.05878   0.04386
  15    C 3   d     0.00347   0.00356   0.01301   0.00041   0.00988   0.01950
  16    C 3   f     0.00122   0.00124   0.00075   0.00002   0.00311   0.00258
  17    C 4   s     0.98361   0.98444   0.00212   0.02911   0.19517   0.23417
  18    C 4   p     0.00005   0.00007   0.00382   0.04829   0.06888   0.06088
  19    C 4   d     0.00003   0.00000   0.00031   0.01396   0.00993   0.02061
  20    C 4   f     0.00001   0.00001   0.00002   0.00076   0.00260   0.00220
  21    C 5   s     0.98361   0.98444   0.00212   0.02911   0.19517   0.23417
  22    C 5   p     0.00005   0.00007   0.00382   0.04829   0.06888   0.06088
  23    C 5   d     0.00003   0.00000   0.00031   0.01396   0.00993   0.02061
  24    C 5   f     0.00001   0.00001   0.00002   0.00076   0.00260   0.00220
  25    C 6   s     0.00000   0.00092   0.00099   0.34091   0.05623   0.00000
  26    C 6   p     0.00286   0.00112   0.00074   0.23255   0.16618   0.14097
  27    C 6   d     0.00546   0.00344   0.00006   0.09027   0.01061   0.03400
  28    C 6   f     0.00042   0.00110   0.00001   0.01908   0.00167   0.00123
  29    O 2   s     0.00000   0.00000   0.00029   1.00670   0.04750   0.00000
  30    O 2   p     0.00001   0.00001   0.00005   0.08443   0.00507   0.00470
  31    O 2   d     0.00000   0.00001   0.00000   0.00885   0.00001   0.00076
  32    O 2   f     0.00000   0.00000   0.00000   0.00062   0.00002   0.00005
  33    H 1   s     0.00001   0.00001   0.00444   0.00035   0.03114   0.05925
  34    H 1   p     0.00001   0.00001   0.00017   0.00000   0.00242   0.00621
  35    H 2   s     0.00001   0.00001   0.00444   0.00035   0.03114   0.05925
  36    H 2   p     0.00001   0.00001   0.00017   0.00000   0.00242   0.00621
  37    H 3   s     0.00047   0.00049   0.00032   0.00520   0.02358   0.04730
  38    H 3   p     0.00045   0.00043   0.00000   0.00022   0.00183   0.00510
  39    H 4   s     0.00047   0.00049   0.00032   0.00520   0.02358   0.04730
  40    H 4   p     0.00045   0.00043   0.00000   0.00022   0.00183   0.00510
                        13        14        15        16        17        18
                       10A1       4B1      11A1      12A1       5B1      13A1  
   1    O 1   s     0.10635   0.00000   0.06812   0.11992   0.00000   0.00581
   2    O 1   p     0.11052   0.02158   0.21743   0.78312   0.03427   0.08319
   3    O 1   d     0.00360   0.00499   0.00502   0.00828   0.00624   0.00097
   4    O 1   f     0.00008   0.00045   0.00022   0.00062   0.00058   0.00007
   5    C 1   s     0.18592   0.00000   0.09565   0.00621   0.00000   0.01012
   6    C 1   p     0.06327   0.31898   0.00289   0.23083   0.26703   0.00816
   7    C 1   d     0.05031   0.00625   0.00437   0.01503   0.00319   0.04895
   8    C 1   f     0.00093   0.00267   0.00008   0.00100   0.00209   0.00006
   9    C 2   s     0.04995   0.09222   0.05516   0.00174   0.00085   0.02308
  10    C 2   p     0.13527   0.15047   0.20516   0.10424   0.27703   0.24215
  11    C 2   d     0.03646   0.00527   0.00584   0.01335   0.00281   0.02957
  12    C 2   f     0.00215   0.00142   0.00215   0.00065   0.00183   0.00061
  13    C 3   s     0.04995   0.09222   0.05516   0.00174   0.00085   0.02308
  14    C 3   p     0.13527   0.15047   0.20516   0.10424   0.27703   0.24215
  15    C 3   d     0.03646   0.00527   0.00584   0.01335   0.00281   0.02957
  16    C 3   f     0.00215   0.00142   0.00215   0.00065   0.00183   0.00061
  17    C 4   s     0.11530   0.13354   0.01603   0.01759   0.00039   0.02249
  18    C 4   p     0.07810   0.09352   0.25503   0.13426   0.28561   0.03860
  19    C 4   d     0.03033   0.00304   0.01506   0.00147   0.00245   0.03227
  20    C 4   f     0.00284   0.00131   0.00167   0.00105   0.00279   0.00050
  21    C 5   s     0.11530   0.13354   0.01603   0.01759   0.00039   0.02249
  22    C 5   p     0.07810   0.09352   0.25503   0.13426   0.28561   0.03860
  23    C 5   d     0.03033   0.00304   0.01506   0.00147   0.00245   0.03227
  24    C 5   f     0.00284   0.00131   0.00167   0.00105   0.00279   0.00050
  25    C 6   s     0.15222   0.00000   0.10948   0.00043   0.00000   0.07441
  26    C 6   p     0.15143   0.29401   0.04536   0.00690   0.31689   0.01943
  27    C 6   d     0.04249   0.01280   0.00826   0.02535   0.00595   0.01475
  28    C 6   f     0.00199   0.00172   0.00057   0.00009   0.00145   0.00001
  29    O 2   s     0.08462   0.00000   0.05097   0.00592   0.00000   0.10612
  30    O 2   p     0.04231   0.04202   0.06812   0.01227   0.19006   0.41512
  31    O 2   d     0.00120   0.00387   0.00232   0.00015   0.00600   0.00751
  32    O 2   f     0.00000   0.00037   0.00004   0.00001   0.00061   0.00046
  33    H 1   s     0.01575   0.06898   0.06622   0.02532   0.00050   0.18218
  34    H 1   p     0.00231   0.00697   0.00591   0.00102   0.00328   0.00739
  35    H 2   s     0.01575   0.06898   0.06622   0.02532   0.00050   0.18218
  36    H 2   p     0.00231   0.00697   0.00591   0.00102   0.00328   0.00739
  37    H 3   s     0.02953   0.08051   0.02857   0.08662   0.00196   0.02196
  38    H 3   p     0.00341   0.00792   0.00373   0.00463   0.00333   0.00162
  39    H 4   s     0.02953   0.08051   0.02857   0.08662   0.00196   0.02196
  40    H 4   p     0.00341   0.00792   0.00373   0.00463   0.00333   0.00162
                        19        20        21        22        23        24
                        1B2       6B1      14A1      15A1       7B1       2B2  
   1    O 1   s     0.00000   0.00000   0.01098   0.00341   0.00000   0.00000
   2    O 1   p     1.33041   0.00232   0.15915   0.06816   0.02259   0.11857
   3    O 1   d     0.00406   0.00086   0.00042   0.00026   0.00386   0.00024
   4    O 1   f     0.00024   0.00005   0.00008   0.00004   0.00033   0.00003
   5    C 1   s     0.00000   0.00000   0.03545   0.00740   0.00000   0.00000
   6    C 1   p     0.37620   0.07714   0.12787   0.02414   0.17244   0.00952
   7    C 1   d     0.05510   0.03525   0.00634   0.03238   0.00139   0.02699
   8    C 1   f     0.02018   0.00997   0.00023   0.00010   0.00085   0.00265
   9    C 2   s     0.00000   0.00480   0.00297   0.00316   0.00277   0.00000
  10    C 2   p     0.06698   0.34258   0.09167   0.15897   0.12499   0.08413
  11    C 2   d     0.01108   0.01675   0.03819   0.00879   0.05748   0.00820
  12    C 2   f     0.00209   0.00395   0.00574   0.00035   0.00053   0.00100
  13    C 3   s     0.00000   0.00480   0.00297   0.00316   0.00277   0.00000
  14    C 3   p     0.06698   0.34258   0.09167   0.15897   0.12499   0.08413
  15    C 3   d     0.01108   0.01675   0.03819   0.00879   0.05748   0.00820
  16    C 3   f     0.00209   0.00395   0.00574   0.00035   0.00053   0.00100
  17    C 4   s     0.00000   0.00446   0.00439   0.00407   0.00368   0.00000
  18    C 4   p     0.01741   0.23919   0.24398   0.17718   0.17281   0.20149
  19    C 4   d     0.00196   0.01176   0.03083   0.01964   0.06988   0.01390
  20    C 4   f     0.00038   0.00384   0.00390   0.00162   0.00024   0.00334
  21    C 5   s     0.00000   0.00446   0.00439   0.00407   0.00368   0.00000
  22    C 5   p     0.01741   0.23919   0.24398   0.17718   0.17281   0.20149
  23    C 5   d     0.00196   0.01176   0.03083   0.01964   0.06988   0.01390
  24    C 5   f     0.00038   0.00384   0.00390   0.00162   0.00024   0.00334
  25    C 6   s     0.00000   0.00000   0.00380   0.01264   0.00000   0.00000
  26    C 6   p     0.00963   0.02118   0.12263   0.20653   0.13936   0.57103
  27    C 6   d     0.00034   0.02335   0.03678   0.02609   0.00374   0.01128
  28    C 6   f     0.00017   0.00682   0.00032   0.00029   0.01695   0.01042
  29    O 2   s     0.00000   0.00000   0.04189   0.07954   0.00000   0.00000
  30    O 2   p     0.00238   0.00025   0.21263   0.63591   0.30269   0.60851
  31    O 2   d     0.00013   0.00018   0.00205   0.00634   0.00181   0.01038
  32    O 2   f     0.00001   0.00001   0.00023   0.00075   0.00015   0.00076
  33    H 1   s     0.00000   0.17399   0.02960   0.03651   0.07815   0.00000
  34    H 1   p     0.00054   0.00449   0.00152   0.00202   0.00217   0.00085
  35    H 2   s     0.00000   0.17399   0.02960   0.03651   0.07815   0.00000
  36    H 2   p     0.00054   0.00449   0.00152   0.00202   0.00217   0.00085
  37    H 3   s     0.00000   0.10258   0.16165   0.03328   0.15058   0.00000
  38    H 3   p     0.00013   0.00293   0.00513   0.00241   0.00363   0.00189
  39    H 4   s     0.00000   0.10258   0.16165   0.03328   0.15058   0.00000
  40    H 4   p     0.00013   0.00293   0.00513   0.00241   0.00363   0.00189
                        25        26        27        28        29
                        3B2       8B1       1A2       9B1       4B2  
   1    O 1   s     0.00000   0.00000   0.00000   0.00000   0.00000
   2    O 1   p     0.19290   0.00052   0.00000   1.71932   0.12595
   3    O 1   d     0.00380   0.00012   0.00008   0.00263   0.01832
   4    O 1   f     0.00033   0.00001   0.00001   0.00062   0.00147
   5    C 1   s     0.00000   0.00000   0.00000   0.00000   0.00000
   6    C 1   p     0.14978   0.00888   0.00000   0.01401   0.46710
   7    C 1   d     0.06663   0.00167   0.08342   0.14269   0.01985
   8    C 1   f     0.00691   0.00057   0.00726   0.03643   0.00676
   9    C 2   s     0.00000   0.00150   0.00000   0.00545   0.00000
  10    C 2   p     0.28950   0.01792   0.46056   0.02674   0.03721
  11    C 2   d     0.00508   0.01838   0.01907   0.00229   0.09024
  12    C 2   f     0.00104   0.00082   0.00282   0.00018   0.00873
  13    C 3   s     0.00000   0.00150   0.00000   0.00545   0.00000
  14    C 3   p     0.28950   0.01792   0.46056   0.02674   0.03721
  15    C 3   d     0.00508   0.01838   0.01907   0.00229   0.09024
  16    C 3   f     0.00104   0.00082   0.00282   0.00018   0.00873
  17    C 4   s     0.00000   0.01315   0.00000   0.00059   0.00000
  18    C 4   p     0.09293   0.14183   0.39881   0.00251   0.25221
  19    C 4   d     0.03373   0.00914   0.02546   0.00179   0.01468
  20    C 4   f     0.00231   0.00015   0.00330   0.00014   0.00207
  21    C 5   s     0.00000   0.01315   0.00000   0.00059   0.00000
  22    C 5   p     0.09293   0.14183   0.39881   0.00251   0.25221
  23    C 5   d     0.03373   0.00914   0.02546   0.00179   0.01468
  24    C 5   f     0.00231   0.00015   0.00330   0.00014   0.00207
  25    C 6   s     0.00000   0.00000   0.00000   0.00000   0.00000
  26    C 6   p     0.07166   0.09757   0.00000   0.00013   0.12131
  27    C 6   d     0.08994   0.23264   0.05534   0.00019   0.10484
  28    C 6   f     0.00847   0.02582   0.00595   0.00009   0.01042
  29    O 2   s     0.00000   0.00000   0.00000   0.00000   0.00000
  30    O 2   p     0.54843   1.15749   0.00000   0.00008   0.29628
  31    O 2   d     0.00179   0.00669   0.00003   0.00000   0.00456
  32    O 2   f     0.00010   0.00066   0.00001   0.00000   0.00040
  33    H 1   s     0.00000   0.01672   0.00000   0.00077   0.00000
  34    H 1   p     0.00390   0.00011   0.00775   0.00053   0.00080
  35    H 2   s     0.00000   0.01672   0.00000   0.00077   0.00000
  36    H 2   p     0.00390   0.00011   0.00775   0.00053   0.00080
  37    H 3   s     0.00000   0.01251   0.00000   0.00087   0.00000
  38    H 3   p     0.00114   0.00146   0.00619   0.00004   0.00544
  39    H 4   s     0.00000   0.01251   0.00000   0.00087   0.00000
  40    H 4   p     0.00114   0.00146   0.00619   0.00004   0.00544
 
 -----------------------------------------------------------------
                    Cartesian Multipole Moments
 -----------------------------------------------------------------
    Charge (ESU x 10^10)
                 0.0000
    Dipole Moment (Debye)
         X       0.0000      Y       0.0000      Z       4.0703
       Tot       4.0703
    Quadrupole Moments (Debye-Ang)
        XX     -37.2835     XY       0.0000     YY     -47.6543
        XZ      -0.0000     YZ       0.0000     ZZ     -59.1248
    Octopole Moments (Debye-Ang^2)
       XXX       0.0000    XXY       0.0000    XYY       0.0000
       YYY       0.0000    XXZ       3.1971    XYZ      -0.0000
       YYZ       0.1284    XZZ       0.0000    YZZ       0.0000
       ZZZ      38.0389
    Hexadecapole Moments (Debye-Ang^3)
      XXXX    -266.5315   XXXY       0.0000   XXYY     -67.0387
      XYYY       0.0000   YYYY     -51.1922   XXXZ      -0.0000
      XXYZ       0.0000   XYYZ       0.0000   YYYZ       0.0000
      XXZZ    -152.1751   XYZZ       0.0000   YYZZ    -130.8667
      XZZZ       0.0000   YZZZ       0.0000   ZZZZ    -886.8854
 -----------------------------------------------------------------
 Mayer SCF Bond Order, atomic valence on the diagonal:

            1           2           3           4           5           6
    1   1.1779993   1.0936251   0.0149473   0.0149473   0.0156876   0.0156876
    2   1.0936251   3.7362136   1.2510385   1.2510385   0.0271014   0.0271014
    3   0.0149473   1.2510385   3.9037367   0.0342586   0.0150018   1.5950548
    4   0.0149473   1.2510385   0.0342586   3.9037367   1.5950548   0.0150018
    5   0.0156876   0.0271014   0.0150018   1.5950548   3.7720141  -0.0170938
    6   0.0156876   0.0271014   1.5950548   0.0150018  -0.0170938   3.7720141
    7   0.0056839   0.0538943   0.0224032   0.0224032   1.1496762   1.1496762
    8   0.0089004   0.0508015   0.0215300   0.0215300   0.0045453   0.0045453
    9   0.0033893  -0.0151752   0.9673317   0.0054927   0.0002428   0.0046214
   10   0.0033893  -0.0151752   0.0054927   0.9673317   0.0046214   0.0002428
   11   0.0008707   0.0059816  -0.0238422   0.0005204   0.0076451   0.9695316
   12   0.0008707   0.0059816   0.0005204  -0.0238422   0.9695316   0.0076451
            7           8           9          10          11          12
    1   0.0056839   0.0089004   0.0033893   0.0033893   0.0008707   0.0008707
    2   0.0538943   0.0508015  -0.0151752  -0.0151752   0.0059816   0.0059816
    3   0.0224032   0.0215300   0.9673317   0.0054927  -0.0238422   0.0005204
    4   0.0224032   0.0215300   0.0054927   0.9673317   0.0005204  -0.0238422
    5   1.1496762   0.0045453   0.0002428   0.0046214   0.0076451   0.9695316
    6   1.1496762   0.0045453   0.0046214   0.0002428   0.9695316   0.0076451
    7   4.2166541   1.7979434   0.0050120   0.0050120   0.0024749   0.0024749
    8   1.7979434   1.9312827   0.0003931   0.0003931   0.0103503   0.0103503
    9   0.0050120   0.0003931   0.9721986   0.0006732   0.0001923   0.0000254
   10   0.0050120   0.0003931   0.0006732   0.9721986   0.0000254   0.0001923
   11   0.0024749   0.0103503   0.0001923   0.0000254   0.9743083   0.0005583
   12   0.0024749   0.0103503   0.0000254   0.0001923   0.0005583   0.9743083


 Total job time:  6210.80s(wall), 3684.99s(cpu) 
 Wed Nov 15 01:05:03 2023

        *************************************************************
        *                                                           *
        *  Thank you very much for using Q-Chem.  Have a nice day.  *
        *                                                           *
        *************************************************************


