                  Welcome to Q-Chem
     A Quantum Leap Into The Future Of Chemistry


 Q-Chem 6.0 (devel), Q-Chem, Inc., Pleasanton, CA (2022)

 E. Epifanovsky,  A. T. B. Gilbert,  Xintian Feng,  Joonho Lee,  Yuezhi Mao,  
 N. Mardirossian,  P. Pokhilko,  A. White,  M. Wormit,  M. P. Coons,  
 A. L. Dempwolff,  Zhengting Gan,  D. Hait,  P. R. Horn,  L. D. Jacobson,  
 I. Kaliman,  J. Kussmann,  A. W. Lange,  Ka Un Lao,  D. S. Levine,  Jie Liu,  
 S. C. McKenzie,  A. F. Morrison,  K. Nanda,  F. Plasser,  D. R. Rehn,  
 M. L. Vidal,  Zhi-Qiang You,  Ying Zhu,  B. Alam,  B. Albrecht,  
 A. Aldossary,  E. Alguire,  J. H. Andersen,  V. Athavale,  D. Barton,  
 K. Begam,  A. Behn,  N. Bellonzi,  Y. A. Bernard,  E. J. Berquist,  
 H. Burton,  A. Carreras,  K. Carter-Fenk,  Romit Chakraborty,  
 Chandrima Chakravarty,  Junhan Chen,  A. D. Chien,  K. D. Closser,  
 V. Cofer-Shabica,  L. Cunha,  S. Dasgupta,  Jia Deng,  M. de Wergifosse,  
 M. Diedenhofen,  Hainam Do,  S. Ehlert,  Po-Tung Fang,  S. Fatehi,  
 Qingguo Feng,  T. Friedhoff,  B. Ganoe,  J. Gayvert,  Qinghui Ge,  
 G. Gidofalvi,  M. Goldey,  J. Gomes,  C. Gonzalez-Espinoza,  S. Gulania,  
 A. Gunina,  J. A. Gyamfi,  M. W. D. Hanson-Heine,  P. H. P. Harbach,  
 A. W. Hauser,  M. F. Herbst,  M. Hernandez Vera,  M. Hodecker,  
 Z. C. Holden,  S. Houck,  Xunkun Huang,  Kerwin Hui,  B. C. Huynh,  
 K. Ikeda,  M. Ivanov,  Hyunjun Ji,  Zuxin Jin,  Hanjie Jiang,  B. Kaduk,  
 S. Kaehler,  R. Kang,  K. Khistyaev,  Jaehoon Kim,  Yongbin Kim,  
 P. Klunzinger,  Z. Koczor-Benda,  Joong Hoon Koh,  D. Kosenkov,  
 Saikiran Kotaru,  L. Koulias,  T. Kowalczyk,  C. M. Krauter,  K. Kue,  
 A. Kunitsa,  T. Kus,  A. Landau,  K. V. Lawler,  D. Lefrancois,  S. Lehtola,  
 Rain Li,  Shaozhi Li,  Yi-Pei Li,  Jiashu Liang,  M. Liebenthal,  
 Hung-Hsuan Lin,  You-Sheng Lin,  Fenglai Liu,  Kuan-Yu Liu,  
 M. Loipersberger,  A. Luenser,  C. Malbon,  A. Manjanath,  P. Manohar,  
 E. Mansoor,  S. F. Manzer,  Shan-Ping Mao,  A. V. Marenich,  T. Markovich,  
 S. Mason,  F. Matz,  S. A. Maurer,  P. F. McLaughlin,  M. F. S. J. Menger,  
 J.-M. Mewes,  S. A. Mewes,  P. Morgante,  Mohammad Mostafanejad,  
 J. W. Mullinax,  K. J. Oosterbaan,  G. Paran,  V. Parravicini,  
 Alexander C. Paul,  Suranjan K. Paul,  F. Pavosevic,  Zheng Pei,  S. Prager,  
 E. I. Proynov,  E. Ramos,  B. Rana,  A. E. Rask,  A. Rettig,  R. M. Richard,  
 F. Rob,  E. Rossomme,  T. Scheele,  M. Scheurer,  M. Schneider,  
 P. E. Schneider,  N. Sergueev,  S. M. Sharada,  Hengyuan Shen,  
 W. Skomorowski,  D. W. Small,  C. J. Stein,  Yingli Su,  Yu-Chuan Su,  
 E. J. Sundstrom,  Zhen Tao,  J. Thirman,  Hung-Yi Tsai,  T. Tsuchimochi,  
 N. M. Tubman,  C. Utku,  S. P. Veccham,  O. Vydrov,  J. Wenzel,  
 Jonathan Wong,  J. Witte,  A. Yamada,  Chou-Hsun Yang,  Kun Yao,  
 S. Yeganeh,  S. R. Yost,  A. Zech,  F. Zeller,  Igor Ying Zhang,  
 Xing Zhang,  Yu Zhang,  D. Zuev,  A. Aspuru-Guzik,  A. T. Bell,  
 N. A. Besley,  K. B. Bravaya,  B. R. Brooks,  D. Casanova,  Jeng-Da Chai,  
 Hsing-Ta Chen,  S. Coriani,  C. J. Cramer,  A. E. DePrince, III,  
 R. A. DiStasio Jr.,  A. Dreuw,  B. D. Dunietz,  T. R. Furlani,  
 W. A. Goddard III,  S. Grimme,  S. Hammes-Schiffer,  T. Head-Gordon,  
 W. J. Hehre,  Chao-Ping Hsu,  T.-C. Jagau,  Yousung Jung,  A. Klamt,  
 Jing Kong,  D. S. Lambrecht,  Xiangyuan Li,  WanZhen Liang,  N. J. Mayhall,  
 C. W. McCurdy,  J. B. Neaton,  T. Neudecker,  C. Ochsenfeld,  
 J. A. Parkhill,  R. Peverati,  V. A. Rassolov,  Haisheng Ren,  Yihan Shao,  
 L. V. Slipchenko,  R. P. Steele,  J. E. Subotnik,  A. J. W. Thom,  
 A. Tkatchenko,  D. G. Truhlar,  T. Van Voorhis,  Fan Wang,  
 T. A. Wesolowski,  K. B. Whaley,  H. L. Woodcock III,  P. M. Zimmerman,  
 S. Faraji,  P. M. W. Gill,  M. Head-Gordon,  J. M. Herbert,  A. I. Krylov

 Contributors to earlier versions of Q-Chem not listed above: 
 R. D. Adamson,  B. Austin,  R. Baer,  J. Baker,  G. J. O. Beran,  
 K. Brandhorst,  S. T. Brown,  E. F. C. Byrd,  Arup K. Chakraborty,  
 G. K. L. Chan,  Chun-Min Chang,  Yunqing Chen,  C.-L. Cheng,  
 Siu Hung Chien,  D. M. Chipman,  D. L. Crittenden,  H. Dachsel,  
 R. J. Doerksen,  A. D. Dutoi,  R. G. Edgar,  J. Fosso-Tande,  
 L. Fusti-Molnar,  D. Ghosh,  A. Ghysels,  A. Golubeva-Zadorozhnaya,  
 J. Gonthier,  M. S. Gordon,  S. R. Gwaltney,  G. Hawkins,  J. E. Herr,  
 A. Heyden,  S. Hirata,  E. G. Hohenstein,  G. Kedziora,  F. J. Keil,  
 C. Kelley,  Jihan Kim,  R. A. King,  R. Z. Khaliullin,  P. P. Korambath,  
 W. Kurlancheek,  A. Laurent,  A. M. Lee,  M. S. Lee,  S. V. Levchenko,  
 Ching Yeh Lin,  D. Liotard,  E. Livshits,  R. C. Lochan,  I. Lotan,  
 L. A. Martinez-Martinez,  P. E. Maslen,  N. Nair,  D. P. O'Neill,  
 D. Neuhauser,  E. Neuscamman,  C. M. Oana,  R. Olivares-Amaya,  R. Olson,  
 T. M. Perrine,  B. Peters,  P. A. Pieniazek,  A. Prociuk,  Y. M. Rhee,  
 J. Ritchie,  M. A. Rohrdanz,  E. Rosta,  N. J. Russ,  H. F. Schaefer III,  
 M. W. Schmidt,  N. E. Schultz,  S. Sharma,  N. Shenvi,  C. D. Sherrill,  
 A. C. Simmonett,  A. Sodt,  T. Stein,  D. Stuck,  K. S. Thanthiriwatte,  
 V. Vanovschi,  L. Vogt,  Tao Wang,  A. Warshel,  M. A. Watson,  
 C. F. Williams,  Q. Wu,  X. Xu,  Jun Yang,  W. Zhang,  Yan Zhao

   Please cite Q-Chem as follows:
  "Software for the frontiers of quantum chemistry:
   An overview of developments in the Q-Chem 5 package"
   J. Chem. Phys. 155, 084801 (2021)
   https://doi.org/10.1063/5.0055522 (open access)

 Q-Chem 6.0.1 for Intel X86 EM64T Linux

 Parts of Q-Chem use Armadillo 9.900.5 (Nocturnal Misbehaviour).
 http://arma.sourceforge.net/

 Q-Chem begins on Wed Nov 29 17:07:21 2023  

 Host: atlas-169
0

     Scratch files written to ./qchem87273//
 Processing $rem in /scratch/abel/SOFTWARE/qchem/config/preferences:
 Processing $rem in /dipc/acebg/.qchemrc:

 Checking the input file for inconsistencies... 	...done.

--------------------------------------------------------------
User input:
--------------------------------------------------------------
$comment
 RAS-SF CALCULATION
$end

$molecule
 READ benzophenone.molecule
$end

$rem
!**CALCULATION TYPE***     
JOBTYPE            sp    
EXCHANGE           HF
CORRELATION        RASCI    !RASCI=Casanova; RASCI2=Zimmerman
BASIS              def2-TZVP
BASIS2             STO-3G

!***SCF REFERENCE***
INPUT_BOHR          TRUE
!SKIP_SCFMAN        FALSE
UNRESTRICTED       FALSE
!SCF_GUESS          core
!SCF_GUESS_MIX      FALSE
!SCF_GUESS_ALWAYS   FALSE
MAX_SCF_CYCLES     999
!SCF_CONVERGENCE    8
SCF_ALGORITHM      DIIS_GDM !DIIS,DM,DIIS_DM,GDM,DIIS_GDM,GD

!SYMMETRY           TRUE   !use of symmetry for calculating integrals
!SYM_IGNORE         FALSE  !turn off using symmetry
!SYM_TOL            5      !tolerance for determining point group
!USE_ABELIAN_SUBGROUP      !define to use abelian group

!THRESH             14
SCF_FINAL_PRINT     1 !0,1,2,3

!****RAS-SF****
RAS_ROOTS          20       !number of RAS-CI roots to be computed
SET_ITER           150     !number of iterations in RASCI
RAS_ELEC           14       !number of electrons in RAS2
RAS_ELEC_ALPHA     8       !spin-α electrons in RAS2 
RAS_ELEC_BETA      6       !spin-β electrons in RAS2

RAS_ACT            8      !number of orbitals in RAS2 
RAS_ACT_ORB  [28, 29, 33, 34, 37, 47, 48, 49]  !user-selected RAS2 orbitals
RAS_OCC            41       !number of orbitals in RAS1
N_FROZEN_CORE      21     !Number of frozen core orbitals
N_FROZEN_VIRTUAL   425      !Number of frozen virtual orbitals

RAS_DO_HOLE        TRUE   !presence of hole excitations in RAS-CI wave function
RAS_DO_PART        TRUE   !presence of particle excitations
!RAS_AMPL_PRINT     10     !threshold (×10 2 ) for the CI amplitudes

!RAS_GUESS_CS       0      !number of closed shell guess conﬁgurations
!RAS_SPIN_MULT      0      !spin multiplicity. Only for Ms = 0 
!RAS_SRDFT          FALSE  !short-range density functional RAS-CI
!RAS_NFRAG          0     !fragments of excitation analysis in RASCI

RAS_PRINT          2      !level of information
RAS_NATORB         TRUE   !computation of the natural orbital occupancies
!RAS_NATORB_STATE  0      !Saves NO of i RAS computed state in .fchk ﬁle
!RAS_FOD            TRUE

!****RAS-SOC****
CALC_SOC           TRUE   !calculate SOC for EOM-CC, RAS-CI, ADC, TDDFT/TDA and TDDFT
!RAS_SOC_2E        TRUE   !two-electron mean-ﬁeld contribution, default=true
RAS_SOC_SYM_DENS   TRUE   !averaging of α and β densities

!****MEMORY****
MEM_TOTAL          68000 !Default 2000 MB
MEM_STATIC         20000  !Default 64 MB

!**Molecular Properties and Analysis **                                                                                          
POP_MULLIKEN       TRUE   !Run Mulliken population analysis
LOWDIN_POPULATION  TRUE   !Run Löwdin population analysis
GUI                2       !Checkpoints generation
STATE_ANALYSIS     TRUE

!**Wave function analysis of RAS-CI states: MOLDEN**
!PLOTS = 0     ! Note: This can be omitted, default is 0
!NTO_PAIRS = 2 ! Note: This can be omitted, default is 2
!GUI 0
!MOLDEN_FORMAT      TRUE
!PRINT_ORBITALS     15

!**Wave function analysis of RAS-CI state: CUBE**
!NTO_PAIRS = 2 ! Note: This can be omitted, default is 2
!PLOTS = 1
!GUI 0

!**SR-DFT**
!RAS_SRDFT           TRUE !Perform short-range density functional RAS-CI
!RAS_SRDFT_EXC       0 !EX functional. 0=HF. 
!RAS_SRDFT_ONLY_COR  TRUE !No use of EXC functional
!RAS_SRDFT_COR       srPBE !short-range correlation functional
!ras_srdft_0         TRUE !true: no iteration (one-shot); false: iteration
!RAS_OMEGA           400 !Coulomb range-separation parameter. def=400
!RAS_SRDFT_DAMP     0.5 !dumping factor. def=0.5
$end

!$plots
!   grid_points 100 100 100
!   grid_range  (-10,10) (-10,10) (-10,10)
!$end

--------------------------------------------------------------
 ----------------------------------------------------------------
             Standard Nuclear Orientation (Bohr)
    I     Atom           X                Y                Z
 ----------------------------------------------------------------
    1      C       0.0000000000    -0.0000000000     1.7616000772
    2      O       0.0000000000    -0.0000000000     4.2626453788
    3      C      -2.4515146503    -0.0331342717     0.5854026033
    4      C       2.4515146503     0.0331342717     0.5854026033
    5      C       2.8430013288     1.0880866231    -1.8463666677
    6      C       4.5970400963    -0.8671930082     1.9264083375
    7      C       6.9748613791    -0.7928839619     0.8403562343
    8      C       5.2262074578     1.1225172668    -2.9109015756
    9      C       7.3157580598     0.1834271136    -1.5850434514
   10      H       1.2649900922     1.9042492020    -2.8578536668
   11      H       4.3392930822    -1.6659511958     3.7896568207
   12      H       5.4817259580     1.9198549006    -4.7799236178
   13      H       8.5807201718    -1.5192143035     1.8831820792
   14      H       9.1788078092     0.2325165625    -2.4295762444
   15      C      -2.8430013288    -1.0880866231    -1.8463666677
   16      C      -4.5970400963     0.8671930082     1.9264083375
   17      C      -5.2262074578    -1.1225172668    -2.9109015756
   18      C      -6.9748613791     0.7928839619     0.8403562343
   19      C      -7.3157580598    -0.1834271136    -1.5850434514
   20      H      -1.2649900922    -1.9042492020    -2.8578536668
   21      H      -5.4817259580    -1.9198549006    -4.7799236178
   22      H      -4.3392930822     1.6659511958     3.7896568207
   23      H      -8.5807201718     1.5192143035     1.8831820792
   24      H      -9.1788078092    -0.2325165625    -2.4295762444
 ----------------------------------------------------------------
 Molecular Point Group                 C2    NOp =  2
 Largest Abelian Subgroup              C2    NOp =  2
 Nuclear Repulsion Energy =         772.43069410 hartrees
 There are       49 alpha and       47 beta electrons
 Requested basis set is def2-TZVP
 There are 194 shells and 494 basis functions

 Q-Chem warning in module libmdc/get_mega.C, line 167:

 Allowed MEM_STATIC has been capped at MEM_STATIC=8191.
 Reduce the value of MEM_STATIC to silence this warning.


 Total QAlloc Memory Limit  68000 MB
 Mega-Array Size      8007 MB
 MEM_STATIC part      8191 MB

 A cutoff of  1.0D-09 yielded  13678 shell pairs
 There are     87354 function pairs (    112510 Cartesian)
 Smallest overlap matrix eigenvalue = 8.18E-06

 Q-Chem warning in module stvman/mkSTV.C, line 313:

 Overlap eigenvalue is smaller than square root of threshold
 Use THRESH >= 12 to get rid of this warning


 Scale SEOQF with 1.000000e-01/1.000000e+00/1.000000e-01

 Standard Electronic Orientation quadrupole field applied
 Nucleus-field energy     =     0.0000000231 hartrees
 Requested basis set is STO-3G
 There are 38 shells and 80 basis functions
 A cutoff of  1.0D-09 yielded    531 shell pairs
 There are      2742 function pairs
 Smallest overlap matrix eigenvalue = 1.73E-01
 Constructing guess Fock matrix from core Hamiltonian
 Applying Wolfsberg-Helmholtz approximation
 A restricted Hartree-Fock SCF calculation will be
 performed using Geometric Direct Minimization
 SCF converges when RMS gradient is below 1.0E-04
 ---------------------------------------
  Cycle       Energy        RMS Gradient
 ---------------------------------------
    1    -563.5189813627      3.78E-01 Descent step
    2    -564.1073352384      2.94E-01 Descent step
    3    -564.5762614188      2.35E-01 Descent step
    4    -564.9424222796      3.10E-01 Descent step
    5    -565.2385720744      4.42E-01 Descent step
    6    -565.5186594576      2.72E-01 Descent step
    7    -565.7068111177      1.77E-01 Descent step
    8    -565.8063347325      7.75E-02 Dog-leg BFGS step
    9    -565.8197166914      7.27E-02 Normal BFGS step
   10    -565.8079560722      8.11E-02 Line search: overstep
   11    -565.8300208096      4.05E-02 Descent step
   12    -565.8348600491      3.54E-02 Normal BFGS step
   13    -565.8355378695      1.28E-02 Normal BFGS step
   14    -565.8358576558      4.09E-03 Normal BFGS step
   15    -565.8359171123      2.92E-03 Normal BFGS step
   16    -565.8359561849      1.86E-03 Normal BFGS step
   17    -565.8359781573      1.30E-03 Normal BFGS step
   18    -565.8359889881      1.08E-03 Normal BFGS step
   19    -565.8359931603      7.13E-04 Normal BFGS step
   20    -565.8359947151      3.36E-04 Normal BFGS step
   21    -565.8359951645      1.96E-04 Normal BFGS step
   22    -565.8359952311      9.64E-05 Convergence criterion met
 ---------------------------------------
 One-Electron    Energy = -2305.4763240232
 Total Coulomb   Energy =  1046.6215714433
 Alpha Exchange  Energy =   -40.3563193634
 Beta  Exchange  Energy =   -39.0556174122
 DFT   Exchange  Energy =     0.0000000000
 DFT Correlation Energy =     0.0000000000
 Nuclear Repu.   Energy =   772.4306941244
 Nuclear Attr.   Energy = -2866.5234544087
 Kinetic         Energy =   561.0471303854
 SCF time:  CPU 2.97 s  wall 4.89 s
 SCF   energy in the small basis set = -565.83599523
 Total energy in the small basis set = -565.83599523
 ----------------------------------------------------
  Cycle       Energy    
 ----------------------------------------------------
    1     -71.5185056489     -7.15E+01
 A restricted Hartree-Fock SCF calculation will be
 performed using Geometric Direct Minimization
 SCF converges when RMS gradient is below 1.0E-05
 ---------------------------------------
  Cycle       Energy        RMS Gradient
 ---------------------------------------
    1    -572.8384162148      4.89E-01 Descent step
    2    -572.8764802812      3.47E-01 Descent step
    3    -573.0028633520      9.82E-02 Descent step
    4    -573.0646717880      1.32E-01 Normal BFGS step
    5    -573.0781860123      1.34E-01 Normal BFGS step
    6    -573.0794718724      1.07E-01 Normal BFGS step
    7    -573.0875361402      3.49E-02 Normal BFGS step
    8    -573.0895883328      2.03E-02 Normal BFGS step
    9    -573.0904120621      1.26E-02 Normal BFGS step
   10    -573.0913895967      1.03E-02 Normal BFGS step
   11    -573.0918054956      7.53E-03 Normal BFGS step
   12    -573.0920914255      3.74E-03 Normal BFGS step
   13    -573.0921412321      1.92E-03 Normal BFGS step
   14    -573.0921486914      9.60E-04 Normal BFGS step
   15    -573.0921498064      3.98E-04 Normal BFGS step
   16    -573.0921492016      3.61E-05 Line search: overstep
   17    -573.0921499934      2.66E-04 Normal BFGS step
   18    -573.0921493321      2.49E-05 Line search: overstep
   19    -573.0921501081      1.94E-04 Normal BFGS step
   20    -573.0921493493      1.95E-05 Line search: overstep
   21    -573.0921501020      6.35E-05 Line search: overstep
   22    -573.0921511756      6.75E-05 Line search: understep
   23    -573.0921501963      1.64E-04 Normal BFGS step
   24    -573.0921495614      6.61E-05 Line search: overstep
   25    -573.0921502007      1.34E-04 Normal BFGS step
   26    -573.0921496268      1.61E-05 Line search: overstep
   27    -573.0921502144      1.17E-04 Normal BFGS step
   28    -573.0921495319      1.78E-05 Line search: overstep
   29    -573.0921502554      1.04E-04 Normal BFGS step
   30    -573.0921502299      5.78E-05 Line search: overstep
   31    -573.0921507408      5.88E-05 Normal BFGS step
   32    -573.0921509999      1.64E-05 Normal BFGS step
   33    -573.0921495139      6.51E-06 Convergence criterion met
 ---------------------------------------
 One-Electron    Energy = -2309.5737999987
 Total Coulomb   Energy =  1043.3490984323
 Alpha Exchange  Energy =   -40.2366623579
 Beta  Exchange  Energy =   -39.0614797141
 DFT   Exchange  Energy =     0.0000000000
 DFT Correlation Energy =     0.0000000000
 Nuclear Repu.   Energy =   772.4306941244
 Nuclear Attr.   Energy = -2882.1129269061
 Kinetic         Energy =   572.5391269075
 SCF time:  CPU 2514.56 s  wall 2525.71 s
 SCF   energy in the final basis set = -573.09214951
 Total energy in the final basis set = -573.09214951
  
     ##========================================##
     ||                                        ||
     ||              R A S M A N 2             ||
     ||________________________________________||
     ||                                        ||
     ||  Author:                               ||
     ||                                        ||
     ||        David Casanova (2010)           ||
     ||                                        ||
     ##========================================##
  
Setting single-point xc-functionals (if necessary)

  ***************************************************
  *  RAS-CI Dimensions:                             *
  *                                                 *
  *  Active Elec.:  14 ( 8, 6)   Active Orb.:   8   *
  *  Doubly Occ. :  41           Doubly Vir.: 445   *
  *  Frozen Occ. :  21           Frozen Vir.: 425   *
  *                                                 *
  *  Total CI configurations:      5788             * 
  *    Active configurations:        28             * 
  *      Hole configurations:       160             * 
  *  Particle configurations:      5600             * 
  *                                                 *
  *   Requested states:       20                    *
  *  Spin multiplicity: Any multiplicity            *
  *                                                 *
  ***************************************************
-----------------------------------------
    Memory requirements of RASCI

 Each CI-vector requires      0.04 MiB 
 Max. subspace vectors           3000      

 Reduced Lists                0.00 MiB 
 Excitation Lists             0.00 MiB 
 Excitation Lists Sign        0.00 MiB 
 CI-space (Max)             202.05 MiB 
 Integrals                  236.72 MiB 
 Memory required (Max)      236.72 MiB 
 Memory available          7811.55 MiB 

    Disk requirements of RASCI

 Fock matrix                  3.72 MiB 
 2-electron integrals         2.33 MiB 
 CI-space                   264.95 MiB 
 Disk required              271.01 MiB 
-----------------------------------------
  
RAS1 HF-like energy:           -546.2059166093
 Computing integrals
 Computing J and K matrices
 Computing addressing
 Making amplitude guesses
 
Direct CI diagonalization
 ---------------------------------------------------
 Iter    Rts Conv    Rts Left    Ttl Dev     Max Dev
 ---------------------------------------------------
   1         0          20      0.028768    0.002220
   2         0          20      0.035155    0.002873
   3         0          20      0.030919    0.002870
   4         0          20      0.029550    0.003011
   5         0          20      0.022310    0.002359
   6         0          20      0.021011    0.003340
   7         0          20      0.022541    0.002201
   8         0          20      0.021490    0.002206
   9         0          20      0.015459    0.001657
  10         0          20      0.011487    0.001174
  11         0          20      0.007599    0.000854
  12         0          20      0.006949    0.001019
  13         1          19      0.005035    0.000884
  14         1          19      0.004713    0.001085
  15         1          19      0.003802    0.001052
  16         1          19      0.002755    0.000823
  17         2          18      0.001768    0.000693
  18         3          17      0.001142    0.000475
  19         3          17      0.000695    0.000263
  20         4          16      0.000471    0.000162
  21         5          15      0.000333    0.000098
  22         6          14      0.000262    0.000069
  23         8          12      0.000325    0.000193
  24         9          11      0.000230    0.000140
  25        10          10      0.000161    0.000102
  26        12           8      0.000109    0.000072
  27        13           7      0.000069    0.000046
  28        14           6      0.000044    0.000029
  29        16           4      0.000030    0.000019
  30        18           2      0.000020    0.000012
  31        19           1      0.000014    0.000007
  32        19           1      0.000011    0.000005
  33        19           1      0.000009    0.000003
  34        19           1      0.000008    0.000002
  35        19           1      0.000007    0.000001
  36        20           0      0.000007    0.000001    Roots Converged
 ---------------------------------------------------
   
**************************************************
 RAS-CI total energy for state   1:   -573.095061052745
  Excitation energy (eV) =  0.000000000000
 Warning : Irrep of orbital( 140) could not be determined
 Warning : Irrep of orbital( 141) could not be determined
 Warning : Irrep of orbital( 140) could not be determined
 Warning : Irrep of orbital( 141) could not be determined
  State symmetry: A     (C2       )
  <S^2>      :  2.0000
  Dipole Moment:   -0.0000 X    -0.0000 Y     0.4800 Z
 NATURAL OCCUPATION NUMBERS (higher than 1.0E-05)
            1           2           3           4           5           6
    1   2.0000000   2.0000000   2.0000000   2.0000000   2.0000000   2.0000000
            7           8           9          10          11          12
    1   2.0000000   2.0000000   2.0000000   2.0000000   2.0000000   2.0000000
           13          14          15          16          17          18
    1   2.0000000   2.0000000   2.0000000   2.0000000   2.0000000   2.0000000
           19          20          21          22          23          24
    1   2.0000000   2.0000000   2.0000000   2.0000000   2.0000000   2.0000000
           25          26          27          28          29          30
    1   2.0000000   2.0000000   2.0000000   2.0000000   2.0000000   2.0000000
           31          32          33          34          35          36
    1   2.0000000   2.0000000   2.0000000   2.0000000   2.0000000   1.9999998
           37          38          39          40          41          42
    1   1.9999998   1.9999986   1.9999952   1.9999910   1.9999450   1.9999287
           43          44          45          46          47          48
    1   1.9999018   1.9996807   1.9986789   1.9970369   1.9967555   1.0024836
           49          50          51          52          53          54
    1   1.0012041   0.0027324   0.0010831   0.0001601   0.0001317   0.0000941
           55          56          57          58          59          60
    1   0.0000489   0.0000374   0.0000330   0.0000193   0.0000143   0.0000131
           61
    1   0.0000106

 Head-Gordon Nu:    2.01
 Head-Gordon Nu_nl: 2.00

  Amplitudes : 
  
 | HOLE  | ALPHA    | BETA     | PART  |    AMPLITUDE 
--------------------------------------------------
 |       | 11111111 | 11111100 |       |     9.9687996655875E-01
--------------------------------------------------
*** Contributions RASCI wfn    Active:  99.39
                                 Hole:   0.16
                                 Part:   0.45

      Mulliken population analysis 
 ---------------------------------------------------
   Atom    Charge (a.u.)   Spin (a.u.)  
 ---------------------------------------------------
   1  C    0.283333        0.600313 
   2  O   -0.218481        1.025015 
   3  C    0.181584        0.040607 
   4  C    0.181854        0.040599 
   5  C   -0.330852        0.043170 
   6  C   -0.230250        0.052445 
   7  C   -0.105543        0.001547 
   8  C   -0.078671        0.000878 
   9  C   -0.147934        0.051965 
  10  H    0.154312       -0.000752 
  11  H    0.142977       -0.002174 
  12  H    0.127375       -0.000516 
  13  H    0.126498        0.000116 
  14  H    0.127819        0.000056 
  15  C   -0.330669        0.043169 
  16  C   -0.230043        0.052444 
  17  C   -0.078885        0.000877 
  18  C   -0.105685        0.001547 
  19  C   -0.147737        0.051964 
  20  H    0.154326       -0.000752 
  21  H    0.127371       -0.000517 
  22  H    0.142974       -0.002174 
  23  H    0.126496        0.000116 
  24  H    0.127830        0.000058 
 ---------------------------------------------------
   Sum:    0.000000        2.000000 
 ---------------------------------------------------
 
  
 NATURAL OCCUPATION NUMBERS (higher than 1.0E-05)
            1           2           3           4           5           6
    1   2.0000000   2.0000000   2.0000000   2.0000000   2.0000000   2.0000000
            7           8           9          10          11          12
    1   2.0000000   2.0000000   2.0000000   2.0000000   2.0000000   2.0000000
           13          14          15          16          17          18
    1   2.0000000   2.0000000   2.0000000   2.0000000   2.0000000   2.0000000
           19          20          21          22          23          24
    1   2.0000000   2.0000000   2.0000000   2.0000000   2.0000000   2.0000000
           25          26          27          28          29          30
    1   2.0000000   2.0000000   2.0000000   2.0000000   2.0000000   2.0000000
           31          32          33          34          35          36
    1   2.0000000   2.0000000   2.0000000   2.0000000   2.0000000   1.9999998
           37          38          39          40          41          42
    1   1.9999998   1.9999986   1.9999952   1.9999910   1.9999450   1.9999287
           43          44          45          46          47          48
    1   1.9999018   1.9996807   1.9986789   1.9970369   1.9967555   1.0024836
           49          50          51          52          53          54
    1   1.0012041   0.0027324   0.0010831   0.0001601   0.0001317   0.0000941
           55          56          57          58          59          60
    1   0.0000489   0.0000374   0.0000330   0.0000193   0.0000143   0.0000131
           61
    1   0.0000106
  
*** Unpaired Electrons
 Yamaguchi Nd:         2.02
 Head-Gordon Nu:       2.01
 Head-Gordon Nu_nl:    2.00
  
**************************************************
 RAS-CI total energy for state   2:   -573.050803037929
  Excitation energy (eV) =  1.204321857119
  State symmetry: A     (C2       )
  <S^2>      :  2.0000
  Dipole Moment:   -0.0000 X    -0.0000 Y     0.7646 Z
  Trans. Moment:    0.0000 X    -0.0000 Y     0.0795 Z
  Strength   :  0.000186
  Natural transition orbitals ( 1 -> 2 ):
   e-/hole pair  1 alpha:  ampl =  0.010902 (  0.0%)   [8 : 9]
   e-/hole pair  2 alpha:  ampl =  0.006621 (  0.0%)   [7 : 10]
   e-/hole pair  1 beta :  ampl =  0.996028 ( 99.2%)   [8 : 9]
   e-/hole pair  2 beta :  ampl =  0.030523 (  0.1%)   [7 : 10]
   Sum of square amplitudes: 0.99

 NATURAL OCCUPATION NUMBERS (higher than 1.0E-05)
            1           2           3           4           5           6
    1   2.0000000   2.0000000   2.0000000   2.0000000   2.0000000   2.0000000
            7           8           9          10          11          12
    1   2.0000000   2.0000000   2.0000000   2.0000000   2.0000000   2.0000000
           13          14          15          16          17          18
    1   2.0000000   2.0000000   2.0000000   2.0000000   2.0000000   2.0000000
           19          20          21          22          23          24
    1   2.0000000   2.0000000   2.0000000   2.0000000   2.0000000   2.0000000
           25          26          27          28          29          30
    1   2.0000000   2.0000000   2.0000000   2.0000000   2.0000000   2.0000000
           31          32          33          34          35          36
    1   2.0000000   2.0000000   2.0000000   1.9999999   1.9999998   1.9999996
           37          38          39          40          41          42
    1   1.9999968   1.9999870   1.9999682   1.9999669   1.9999389   1.9999357
           43          44          45          46          47          48
    1   1.9999050   1.9997706   1.9994167   1.9989891   1.9971312   1.0031589
           49          50          51          52          53          54
    1   0.9985890   0.0025400   0.0003220   0.0001066   0.0000679   0.0000483
           55          56          57          58          59
    1   0.0000439   0.0000374   0.0000199   0.0000199   0.0000127

 Head-Gordon Nu:    2.00
 Head-Gordon Nu_nl: 2.00

  Amplitudes : 
  
 | HOLE  | ALPHA    | BETA     | PART  |    AMPLITUDE 
--------------------------------------------------
 |       | 11111111 | 11110110 |       |     6.1906855840222E-01
 |       | 11111111 | 11101110 |       |     4.7712287603492E-01
 |  29   | 11111111 | 11111110 |       |     3.1824961703145E-01
 |  34   | 11111111 | 11111110 |       |    -1.0547450160370E-01
 |  36   | 11111111 | 11111110 |       |     3.4094106556242E-01
 |  39   | 11111111 | 11111110 |       |     3.7254985954929E-01
--------------------------------------------------
*** Contributions RASCI wfn    Active:  61.16
                                 Hole:  38.48
                                 Part:   0.36

      Mulliken population analysis 
 ---------------------------------------------------
   Atom    Charge (a.u.)   Spin (a.u.)  
 ---------------------------------------------------
   1  C    0.330232        0.670966 
   2  O   -0.298836        0.946560 
   3  C    0.171555        0.034296 
   4  C    0.171831        0.034293 
   5  C   -0.322247        0.050207 
   6  C   -0.218440        0.056246 
   7  C   -0.104078        0.002231 
   8  C   -0.078053        0.002844 
   9  C   -0.138760        0.046352 
  10  H    0.153398        0.000024 
  11  H    0.139147       -0.001313 
  12  H    0.127266       -0.000178 
  13  H    0.126480        0.000292 
  14  H    0.127771        0.000238 
  15  C   -0.322063        0.050206 
  16  C   -0.218229        0.056247 
  17  C   -0.078268        0.002844 
  18  C   -0.104222        0.002230 
  19  C   -0.138563        0.046352 
  20  H    0.153413        0.000024 
  21  H    0.127261       -0.000178 
  22  H    0.139145       -0.001314 
  23  H    0.126477        0.000292 
  24  H    0.127783        0.000239 
 ---------------------------------------------------
   Sum:    0.000000        2.000000 
 ---------------------------------------------------
 
  
 NATURAL OCCUPATION NUMBERS (higher than 1.0E-05)
            1           2           3           4           5           6
    1   2.0000000   2.0000000   2.0000000   2.0000000   2.0000000   2.0000000
            7           8           9          10          11          12
    1   2.0000000   2.0000000   2.0000000   2.0000000   2.0000000   2.0000000
           13          14          15          16          17          18
    1   2.0000000   2.0000000   2.0000000   2.0000000   2.0000000   2.0000000
           19          20          21          22          23          24
    1   2.0000000   2.0000000   2.0000000   2.0000000   2.0000000   2.0000000
           25          26          27          28          29          30
    1   2.0000000   2.0000000   2.0000000   2.0000000   2.0000000   2.0000000
           31          32          33          34          35          36
    1   2.0000000   2.0000000   2.0000000   1.9999999   1.9999998   1.9999996
           37          38          39          40          41          42
    1   1.9999968   1.9999870   1.9999682   1.9999669   1.9999389   1.9999357
           43          44          45          46          47          48
    1   1.9999050   1.9997706   1.9994167   1.9989891   1.9971312   1.0031589
           49          50          51          52          53          54
    1   0.9985890   0.0025400   0.0003220   0.0001066   0.0000679   0.0000483
           55          56          57          58          59
    1   0.0000439   0.0000374   0.0000199   0.0000199   0.0000127
  
*** Unpaired Electrons
 Yamaguchi Nd:         2.02
 Head-Gordon Nu:       2.00
 Head-Gordon Nu_nl:    2.00
  
**************************************************
 RAS-CI total energy for state   3:   -572.943964454255
  Excitation energy (eV) =  4.111547633906
  State symmetry: B     (C2       )
  <S^2>      :  2.0000
  Dipole Moment:   -0.0000 X     0.0000 Y     1.0570 Z
  Trans. Moment:   -0.1984 X    -0.0139 Y     0.0000 Z
  Strength   :  0.003983
  Natural transition orbitals ( 1 -> 3 ):
   e-/hole pair  1 alpha:  ampl =  0.403630 ( 16.3%)   [8 : 9]
   e-/hole pair  2 alpha:  ampl =  0.045001 (  0.2%)   [7 : 10]
   e-/hole pair  1 beta :  ampl =  0.778224 ( 60.6%)   [8 : 9]
   e-/hole pair  2 beta :  ampl =  0.171604 (  2.9%)   [7 : 10]
   Sum of square amplitudes: 0.80

 NATURAL OCCUPATION NUMBERS (higher than 1.0E-05)
            1           2           3           4           5           6
    1   2.0000000   2.0000000   2.0000000   2.0000000   2.0000000   2.0000000
            7           8           9          10          11          12
    1   2.0000000   2.0000000   2.0000000   2.0000000   2.0000000   2.0000000
           13          14          15          16          17          18
    1   2.0000000   2.0000000   2.0000000   2.0000000   2.0000000   2.0000000
           19          20          21          22          23          24
    1   2.0000000   2.0000000   2.0000000   2.0000000   2.0000000   2.0000000
           25          26          27          28          29          30
    1   2.0000000   2.0000000   2.0000000   2.0000000   2.0000000   2.0000000
           31          32          33          34          35          36
    1   2.0000000   2.0000000   2.0000000   1.9999999   1.9999998   1.9999977
           37          38          39          40          41          42
    1   1.9999569   1.9999454   1.9999184   1.9998625   1.9998503   1.9992925
           43          44          45          46          47          48
    1   1.9985452   1.9943269   1.9429713   1.9178670   1.7690171   1.2473200
           49          50          51          52          53          54
    1   0.9212143   0.1686776   0.0337121   0.0051443   0.0012742   0.0005806
           55          56          57          58          59          60
    1   0.0001596   0.0000911   0.0000834   0.0000767   0.0000318   0.0000215
           61          62
    1   0.0000195   0.0000115

 Head-Gordon Nu:    2.26
 Head-Gordon Nu_nl: 2.17

  Amplitudes : 
  
 | HOLE  | ALPHA    | BETA     | PART  |    AMPLITUDE 
--------------------------------------------------
 |       | 11111111 | 11111010 |       |     5.5375979596129E-01
 |       | 11111111 | 11111001 |       |     2.4401080909231E-01
 |       | 11111111 | 11110011 |       |    -2.3281312889869E-01
 |       | 11111111 | 11101011 |       |    -1.8108424830092E-01
 |       | 11111111 | 11011110 |       |     2.2494203239325E-01
 |       | 11111111 | 10111110 |       |     2.7178906410416E-01
 |       | 11111111 | 01111110 |       |     2.0467089399530E-01
 |  26   | 11111111 | 11111110 |       |     1.4453149894875E-01
 |  30   | 11111111 | 11111110 |       |    -1.1397990815968E-01
 |  37   | 11111111 | 11111110 |       |    -1.2901972444920E-01
 |  29   | 11111111 | 11111011 |       |    -1.0733301488544E-01
 |  36   | 11111111 | 11111011 |       |    -1.1661932054019E-01
 |  39   | 11111111 | 11111011 |       |    -1.1025283500518E-01
 |       | 11111110 | 11111100 |  50   |     3.9562883092638E-01
 |       | 11111110 | 11111010 |  55   |    -1.8933095648248E-01
 |       | 11111110 | 11111001 |  55   |    -1.0858442349956E-01
--------------------------------------------------
*** Contributions RASCI wfn    Active:  62.06
                                 Hole:  12.36
                                 Part:  25.58

      Mulliken population analysis 
 ---------------------------------------------------
   Atom    Charge (a.u.)   Spin (a.u.)  
 ---------------------------------------------------
   1  C    0.333842        0.226250 
   2  O   -0.391457        0.745287 
   3  C    0.230529        0.155702 
   4  C    0.230807        0.155707 
   5  C   -0.344081        0.060205 
   6  C   -0.203151        0.089879 
   7  C   -0.106839        0.020642 
   8  C   -0.063035        0.038618 
   9  C   -0.158884        0.149935 
  10  H    0.156395       -0.000628 
  11  H    0.124940       -0.001123 
  12  H    0.128837        0.000320 
  13  H    0.130979        0.000475 
  14  H    0.132849        0.000202 
  15  C   -0.343892        0.060209 
  16  C   -0.202932        0.089884 
  17  C   -0.063252        0.038617 
  18  C   -0.106986        0.020640 
  19  C   -0.158682        0.149934 
  20  H    0.156409       -0.000627 
  21  H    0.128829        0.000319 
  22  H    0.124936       -0.001123 
  23  H    0.130978        0.000475 
  24  H    0.132862        0.000202 
 ---------------------------------------------------
   Sum:    0.000000        2.000000 
 ---------------------------------------------------
 
  
 NATURAL OCCUPATION NUMBERS (higher than 1.0E-05)
            1           2           3           4           5           6
    1   2.0000000   2.0000000   2.0000000   2.0000000   2.0000000   2.0000000
            7           8           9          10          11          12
    1   2.0000000   2.0000000   2.0000000   2.0000000   2.0000000   2.0000000
           13          14          15          16          17          18
    1   2.0000000   2.0000000   2.0000000   2.0000000   2.0000000   2.0000000
           19          20          21          22          23          24
    1   2.0000000   2.0000000   2.0000000   2.0000000   2.0000000   2.0000000
           25          26          27          28          29          30
    1   2.0000000   2.0000000   2.0000000   2.0000000   2.0000000   2.0000000
           31          32          33          34          35          36
    1   2.0000000   2.0000000   2.0000000   1.9999999   1.9999998   1.9999977
           37          38          39          40          41          42
    1   1.9999569   1.9999454   1.9999184   1.9998625   1.9998503   1.9992925
           43          44          45          46          47          48
    1   1.9985452   1.9943269   1.9429713   1.9178670   1.7690171   1.2473200
           49          50          51          52          53          54
    1   0.9212143   0.1686776   0.0337121   0.0051443   0.0012742   0.0005806
           55          56          57          58          59          60
    1   0.0001596   0.0000911   0.0000834   0.0000767   0.0000318   0.0000215
           61          62
    1   0.0000195   0.0000115
  
*** Unpaired Electrons
 Yamaguchi Nd:         3.02
 Head-Gordon Nu:       2.26
 Head-Gordon Nu_nl:    2.17
  
**************************************************
 RAS-CI total energy for state   4:   -572.928850310896
  Excitation energy (eV) =  4.522824399818
  State symmetry: B     (C2       )
  <S^2>      :  2.0000
  Dipole Moment:   -0.0000 X     0.0000 Y    -0.3556 Z
  Trans. Moment:   -1.0898 X    -0.0607 Y    -0.0000 Z
  Strength   :  0.132010
  Natural transition orbitals ( 1 -> 4 ):
   e-/hole pair  1 alpha:  ampl =  0.762384 ( 58.1%)   [8 : 9]
   e-/hole pair  2 alpha:  ampl =  0.095011 (  0.9%)   [7 : 10]
   e-/hole pair  1 beta :  ampl =  0.527268 ( 27.8%)   [8 : 9]
   e-/hole pair  2 beta :  ampl =  0.253628 (  6.4%)   [7 : 10]
   Sum of square amplitudes: 0.93

 NATURAL OCCUPATION NUMBERS (higher than 1.0E-05)
            1           2           3           4           5           6
    1   2.0000000   2.0000000   2.0000000   2.0000000   2.0000000   2.0000000
            7           8           9          10          11          12
    1   2.0000000   2.0000000   2.0000000   2.0000000   2.0000000   2.0000000
           13          14          15          16          17          18
    1   2.0000000   2.0000000   2.0000000   2.0000000   2.0000000   2.0000000
           19          20          21          22          23          24
    1   2.0000000   2.0000000   2.0000000   2.0000000   2.0000000   2.0000000
           25          26          27          28          29          30
    1   2.0000000   2.0000000   2.0000000   2.0000000   2.0000000   2.0000000
           31          32          33          34          35          36
    1   2.0000000   2.0000000   2.0000000   1.9999999   1.9999998   1.9999990
           37          38          39          40          41          42
    1   1.9999100   1.9999054   1.9999000   1.9998198   1.9997178   1.9993758
           43          44          45          46          47          48
    1   1.9992164   1.9974478   1.9805440   1.8980204   1.6940315   1.2906244
           49          50          51          52          53          54
    1   0.5918844   0.5133305   0.0335796   0.0015686   0.0003770   0.0002047
           55          56          57          58          59          60
    1   0.0001391   0.0001309   0.0000960   0.0000604   0.0000337   0.0000231
           61          62
    1   0.0000159   0.0000126

 Head-Gordon Nu:    2.28
 Head-Gordon Nu_nl: 2.43

  Amplitudes : 
  
 | HOLE  | ALPHA    | BETA     | PART  |    AMPLITUDE 
--------------------------------------------------
 |       | 11111111 | 11111010 |       |    -1.9663048821566E-01
 |       | 11111111 | 11111001 |       |     2.8196551930866E-01
 |       | 11111111 | 11011110 |       |    -2.0327587329256E-01
 |       | 11111111 | 10111110 |       |    -2.6064950407706E-01
 |       | 11111111 | 01111110 |       |    -1.9517965684163E-01
 |  26   | 11111111 | 11111110 |       |    -1.4382180990996E-01
 |  30   | 11111111 | 11111110 |       |     1.0596931634632E-01
 |  37   | 11111111 | 11111110 |       |     1.1787801063521E-01
 |       | 11111110 | 11111100 |  50   |     7.4481372920956E-01
 |       | 11111110 | 11111100 |  51   |     1.0817277662890E-01
 |       | 11111110 | 11111100 |  68   |     1.0779407032775E-01
 |       | 11111110 | 11111001 |  55   |    -1.6292656050080E-01
--------------------------------------------------
*** Contributions RASCI wfn    Active:  28.16
                                 Hole:   7.79
                                 Part:  64.05

      Mulliken population analysis 
 ---------------------------------------------------
   Atom    Charge (a.u.)   Spin (a.u.)  
 ---------------------------------------------------
   1  C    0.575247        0.170490 
   2  O   -0.189357        0.912722 
   3  C    0.124891        0.151281 
   4  C    0.125168        0.151278 
   5  C   -0.357601        0.075787 
   6  C   -0.242117        0.075269 
   7  C   -0.117562        0.022942 
   8  C   -0.085352        0.021736 
   9  C   -0.192475        0.108477 
  10  H    0.154307        0.000393 
  11  H    0.139430        0.001251 
  12  H    0.127538        0.000180 
  13  H    0.127305        0.000416 
  14  H    0.128431        0.000663 
  15  C   -0.357420        0.075790 
  16  C   -0.241910        0.075272 
  17  C   -0.085566        0.021736 
  18  C   -0.117705        0.022941 
  19  C   -0.192278        0.108478 
  20  H    0.154322        0.000393 
  21  H    0.127532        0.000180 
  22  H    0.139427        0.001249 
  23  H    0.127304        0.000416 
  24  H    0.128443        0.000663 
 ---------------------------------------------------
   Sum:    0.000000        2.000000 
 ---------------------------------------------------
 
  
 NATURAL OCCUPATION NUMBERS (higher than 1.0E-05)
            1           2           3           4           5           6
    1   2.0000000   2.0000000   2.0000000   2.0000000   2.0000000   2.0000000
            7           8           9          10          11          12
    1   2.0000000   2.0000000   2.0000000   2.0000000   2.0000000   2.0000000
           13          14          15          16          17          18
    1   2.0000000   2.0000000   2.0000000   2.0000000   2.0000000   2.0000000
           19          20          21          22          23          24
    1   2.0000000   2.0000000   2.0000000   2.0000000   2.0000000   2.0000000
           25          26          27          28          29          30
    1   2.0000000   2.0000000   2.0000000   2.0000000   2.0000000   2.0000000
           31          32          33          34          35          36
    1   2.0000000   2.0000000   2.0000000   1.9999999   1.9999998   1.9999990
           37          38          39          40          41          42
    1   1.9999100   1.9999054   1.9999000   1.9998198   1.9997178   1.9993758
           43          44          45          46          47          48
    1   1.9992164   1.9974478   1.9805440   1.8980204   1.6940315   1.2906244
           49          50          51          52          53          54
    1   0.5918844   0.5133305   0.0335796   0.0015686   0.0003770   0.0002047
           55          56          57          58          59          60
    1   0.0001391   0.0001309   0.0000960   0.0000604   0.0000337   0.0000231
           61          62
    1   0.0000159   0.0000126
  
*** Unpaired Electrons
 Yamaguchi Nd:         3.34
 Head-Gordon Nu:       2.28
 Head-Gordon Nu_nl:    2.43
  
**************************************************
 RAS-CI total energy for state   5:   -572.912945215873
  Excitation energy (eV) =  4.955624055551
  State symmetry: B     (C2       )
  <S^2>      :  2.0000
  Dipole Moment:   -0.0000 X    -0.0000 Y     1.1821 Z
  Trans. Moment:    0.8262 X     0.0823 Y    -0.0000 Z
  Strength   :  0.083692
  Natural transition orbitals ( 1 -> 5 ):
   e-/hole pair  1 alpha:  ampl =  0.249292 (  6.2%)   [8 : 9]
   e-/hole pair  2 alpha:  ampl =  0.018294 (  0.0%)   [7 : 10]
   e-/hole pair  1 beta :  ampl =  0.844814 ( 71.4%)   [8 : 9]
   e-/hole pair  2 beta :  ampl =  0.075108 (  0.6%)   [7 : 10]
   Sum of square amplitudes: 0.78

 NATURAL OCCUPATION NUMBERS (higher than 1.0E-05)
            1           2           3           4           5           6
    1   2.0000000   2.0000000   2.0000000   2.0000000   2.0000000   2.0000000
            7           8           9          10          11          12
    1   2.0000000   2.0000000   2.0000000   2.0000000   2.0000000   2.0000000
           13          14          15          16          17          18
    1   2.0000000   2.0000000   2.0000000   2.0000000   2.0000000   2.0000000
           19          20          21          22          23          24
    1   2.0000000   2.0000000   2.0000000   2.0000000   2.0000000   2.0000000
           25          26          27          28          29          30
    1   2.0000000   2.0000000   2.0000000   2.0000000   2.0000000   2.0000000
           31          32          33          34          35          36
    1   2.0000000   2.0000000   2.0000000   1.9999999   1.9999996   1.9999972
           37          38          39          40          41          42
    1   1.9999320   1.9999087   1.9998940   1.9998897   1.9998100   1.9991684
           43          44          45          46          47          48
    1   1.9988514   1.9942797   1.9288455   1.8941350   1.8701268   1.1922916
           49          50          51          52          53          54
    1   1.0094959   0.0658616   0.0371264   0.0077005   0.0011643   0.0006760
           55          56          57          58          59          60
    1   0.0002799   0.0001446   0.0001357   0.0001059   0.0000411   0.0000321
           61          62          63          64
    1   0.0000306   0.0000227   0.0000200   0.0000111

 Head-Gordon Nu:    2.23
 Head-Gordon Nu_nl: 2.07

  Amplitudes : 
  
 | HOLE  | ALPHA    | BETA     | PART  |    AMPLITUDE 
--------------------------------------------------
 |       | 11111111 | 11111010 |       |     4.2684104088372E-01
 |       | 11111111 | 11110011 |       |    -2.5655646719504E-01
 |       | 11111111 | 11101011 |       |    -1.9747437521855E-01
 |       | 11111111 | 11011110 |       |    -3.3373240483950E-01
 |       | 11111111 | 10111110 |       |    -4.0845466525040E-01
 |       | 11111111 | 01111110 |       |    -3.0181570381964E-01
 |  22   | 11111111 | 11111110 |       |    -1.0514260182185E-01
 |  26   | 11111111 | 11111110 |       |    -2.1407941960610E-01
 |  30   | 11111111 | 11111110 |       |     1.6060735707757E-01
 |  31   | 11111111 | 11111110 |       |    -1.1222453735330E-01
 |  33   | 11111111 | 11111110 |       |     1.4519812612173E-01
 |  37   | 11111111 | 11111110 |       |     1.7867666719388E-01
 |  29   | 11111111 | 11111011 |       |    -1.2128593379937E-01
 |  36   | 11111111 | 11111011 |       |    -1.2724496858372E-01
 |  39   | 11111111 | 11111011 |       |    -1.2131192077413E-01
 |       | 11111110 | 11111100 |  50   |    -2.4435187661099E-01
 |       | 11111110 | 11111010 |  55   |    -1.7838516251259E-01
--------------------------------------------------
*** Contributions RASCI wfn    Active:  66.24
                                 Hole:  20.59
                                 Part:  13.17

      Mulliken population analysis 
 ---------------------------------------------------
   Atom    Charge (a.u.)   Spin (a.u.)  
 ---------------------------------------------------
   1  C    0.314099        0.393377 
   2  O   -0.414747        0.754888 
   3  C    0.238037        0.136827 
   4  C    0.238311        0.136825 
   5  C   -0.347044        0.049201 
   6  C   -0.208827        0.070931 
   7  C   -0.104934        0.015198 
   8  C   -0.061582        0.034137 
   9  C   -0.138827        0.121138 
  10  H    0.156421       -0.000421 
  11  H    0.126675       -0.001849 
  12  H    0.128700        0.000208 
  13  H    0.129907        0.000371 
  14  H    0.131534        0.000128 
  15  C   -0.346857        0.049201 
  16  C   -0.208610        0.070934 
  17  C   -0.061802        0.034134 
  18  C   -0.105084        0.015194 
  19  C   -0.138623        0.121141 
  20  H    0.156435       -0.000421 
  21  H    0.128693        0.000208 
  22  H    0.126672       -0.001849 
  23  H    0.129906        0.000371 
  24  H    0.131546        0.000128 
 ---------------------------------------------------
   Sum:    0.000000        2.000000 
 ---------------------------------------------------
 
  
 NATURAL OCCUPATION NUMBERS (higher than 1.0E-05)
            1           2           3           4           5           6
    1   2.0000000   2.0000000   2.0000000   2.0000000   2.0000000   2.0000000
            7           8           9          10          11          12
    1   2.0000000   2.0000000   2.0000000   2.0000000   2.0000000   2.0000000
           13          14          15          16          17          18
    1   2.0000000   2.0000000   2.0000000   2.0000000   2.0000000   2.0000000
           19          20          21          22          23          24
    1   2.0000000   2.0000000   2.0000000   2.0000000   2.0000000   2.0000000
           25          26          27          28          29          30
    1   2.0000000   2.0000000   2.0000000   2.0000000   2.0000000   2.0000000
           31          32          33          34          35          36
    1   2.0000000   2.0000000   2.0000000   1.9999999   1.9999996   1.9999972
           37          38          39          40          41          42
    1   1.9999320   1.9999087   1.9998940   1.9998897   1.9998100   1.9991684
           43          44          45          46          47          48
    1   1.9988514   1.9942797   1.9288455   1.8941350   1.8701268   1.1922916
           49          50          51          52          53          54
    1   1.0094959   0.0658616   0.0371264   0.0077005   0.0011643   0.0006760
           55          56          57          58          59          60
    1   0.0002799   0.0001446   0.0001357   0.0001059   0.0000411   0.0000321
           61          62          63          64
    1   0.0000306   0.0000227   0.0000200   0.0000111
  
*** Unpaired Electrons
 Yamaguchi Nd:         2.78
 Head-Gordon Nu:       2.23
 Head-Gordon Nu_nl:    2.07
  
**************************************************
 RAS-CI total energy for state   6:   -572.898168736541
  Excitation energy (eV) =  5.357712515791
  State symmetry: B     (C2       )
  <S^2>      :  2.0000
  Dipole Moment:   -0.0000 X     0.0000 Y    -1.0965 Z
  Trans. Moment:    0.2788 X     0.1588 Y     0.0000 Z
  Strength   :  0.013515
  Natural transition orbitals ( 1 -> 6 ):
   e-/hole pair  1 alpha:  ampl =  0.909394 ( 82.7%)   [8 : 9]
   e-/hole pair  2 alpha:  ampl =  0.126524 (  1.6%)   [7 : 10]
   e-/hole pair  1 beta :  ampl =  0.278105 (  7.7%)   [8 : 9]
   e-/hole pair  2 beta :  ampl =  0.068540 (  0.5%)   [7 : 10]
   Sum of square amplitudes: 0.93

 NATURAL OCCUPATION NUMBERS (higher than 1.0E-05)
            1           2           3           4           5           6
    1   2.0000000   2.0000000   2.0000000   2.0000000   2.0000000   2.0000000
            7           8           9          10          11          12
    1   2.0000000   2.0000000   2.0000000   2.0000000   2.0000000   2.0000000
           13          14          15          16          17          18
    1   2.0000000   2.0000000   2.0000000   2.0000000   2.0000000   2.0000000
           19          20          21          22          23          24
    1   2.0000000   2.0000000   2.0000000   2.0000000   2.0000000   2.0000000
           25          26          27          28          29          30
    1   2.0000000   2.0000000   2.0000000   2.0000000   2.0000000   2.0000000
           31          32          33          34          35          36
    1   2.0000000   2.0000000   2.0000000   2.0000000   2.0000000   1.9999988
           37          38          39          40          41          42
    1   1.9999931   1.9999681   1.9999564   1.9999040   1.9998853   1.9997334
           43          44          45          46          47          48
    1   1.9989596   1.9976064   1.9940640   1.9889385   1.8516386   1.0151157
           49          50          51          52          53          54
    1   0.8439375   0.2583408   0.0468129   0.0041938   0.0005218   0.0001506
           55          56          57          58          59
    1   0.0000792   0.0000520   0.0000490   0.0000379   0.0000294

 Head-Gordon Nu:    2.31
 Head-Gordon Nu_nl: 2.24

  Amplitudes : 
  
 | HOLE  | ALPHA    | BETA     | PART  |    AMPLITUDE 
--------------------------------------------------
 |       | 11111111 | 11111001 |       |     2.3906841972813E-01
 |       | 11111110 | 11111100 |  50   |    -2.3912201683263E-01
 |       | 11111110 | 11111100 |  51   |     8.7171483265729E-01
 |       | 11111011 | 11111100 |  52   |    -1.2524627937780E-01
 |       | 11111110 | 11111001 |  52   |     2.0156841127785E-01
--------------------------------------------------
*** Contributions RASCI wfn    Active:   6.39
                                 Hole:   0.93
                                 Part:  92.68

      Mulliken population analysis 
 ---------------------------------------------------
   Atom    Charge (a.u.)   Spin (a.u.)  
 ---------------------------------------------------
   1  C    0.601894        0.083618 
   2  O   -0.090365        0.949494 
   3  C    0.257586        0.004574 
   4  C    0.257893        0.004529 
   5  C   -0.416168        0.130088 
   6  C   -0.277380        0.102395 
   7  C   -0.200598        0.102180 
   8  C   -0.173573        0.111183 
   9  C   -0.121372        0.027086 
  10  H    0.154371        0.000594 
  11  H    0.140040        0.003277 
  12  H    0.126765        0.000864 
  13  H    0.125822        0.001162 
  14  H    0.128454        0.000070 
  15  C   -0.415964        0.130066 
  16  C   -0.277155        0.102380 
  17  C   -0.173806        0.111204 
  18  C   -0.200755        0.102194 
  19  C   -0.121165        0.027081 
  20  H    0.154386        0.000593 
  21  H    0.126760        0.000865 
  22  H    0.140044        0.003270 
  23  H    0.125820        0.001162 
  24  H    0.128466        0.000070 
 ---------------------------------------------------
   Sum:    0.000000        2.000000 
 ---------------------------------------------------
 
  
 NATURAL OCCUPATION NUMBERS (higher than 1.0E-05)
            1           2           3           4           5           6
    1   2.0000000   2.0000000   2.0000000   2.0000000   2.0000000   2.0000000
            7           8           9          10          11          12
    1   2.0000000   2.0000000   2.0000000   2.0000000   2.0000000   2.0000000
           13          14          15          16          17          18
    1   2.0000000   2.0000000   2.0000000   2.0000000   2.0000000   2.0000000
           19          20          21          22          23          24
    1   2.0000000   2.0000000   2.0000000   2.0000000   2.0000000   2.0000000
           25          26          27          28          29          30
    1   2.0000000   2.0000000   2.0000000   2.0000000   2.0000000   2.0000000
           31          32          33          34          35          36
    1   2.0000000   2.0000000   2.0000000   2.0000000   2.0000000   1.9999988
           37          38          39          40          41          42
    1   1.9999931   1.9999681   1.9999564   1.9999040   1.9998853   1.9997334
           43          44          45          46          47          48
    1   1.9989596   1.9976064   1.9940640   1.9889385   1.8516386   1.0151157
           49          50          51          52          53          54
    1   0.8439375   0.2583408   0.0468129   0.0041938   0.0005218   0.0001506
           55          56          57          58          59
    1   0.0000792   0.0000520   0.0000490   0.0000379   0.0000294
  
*** Unpaired Electrons
 Yamaguchi Nd:         2.84
 Head-Gordon Nu:       2.31
 Head-Gordon Nu_nl:    2.24
  
**************************************************
 RAS-CI total energy for state   7:   -572.894762700507
  Excitation energy (eV) =  5.450395471852
  State symmetry: A     (C2       )
  <S^2>      :  2.0000
  Dipole Moment:    0.0000 X     0.0000 Y     0.0308 Z
  Trans. Moment:   -0.0001 X    -0.0000 Y     0.1981 Z
  Strength   :  0.005238
  Natural transition orbitals ( 1 -> 7 ):
   e-/hole pair  1 alpha:  ampl =  0.636528 ( 40.5%)   [8 : 9]
   e-/hole pair  2 alpha:  ampl =  0.184411 (  3.4%)   [7 : 10]
   e-/hole pair  1 beta :  ampl =  0.561686 ( 31.5%)   [8 : 9]
   e-/hole pair  2 beta :  ampl =  0.189055 (  3.6%)   [7 : 10]
   Sum of square amplitudes: 0.80

 NATURAL OCCUPATION NUMBERS (higher than 1.0E-05)
            1           2           3           4           5           6
    1   2.0000000   2.0000000   2.0000000   2.0000000   2.0000000   2.0000000
            7           8           9          10          11          12
    1   2.0000000   2.0000000   2.0000000   2.0000000   2.0000000   2.0000000
           13          14          15          16          17          18
    1   2.0000000   2.0000000   2.0000000   2.0000000   2.0000000   2.0000000
           19          20          21          22          23          24
    1   2.0000000   2.0000000   2.0000000   2.0000000   2.0000000   2.0000000
           25          26          27          28          29          30
    1   2.0000000   2.0000000   2.0000000   2.0000000   2.0000000   2.0000000
           31          32          33          34          35          36
    1   2.0000000   2.0000000   2.0000000   2.0000000   1.9999996   1.9999989
           37          38          39          40          41          42
    1   1.9999934   1.9999836   1.9999243   1.9999023   1.9998573   1.9995502
           43          44          45          46          47          48
    1   1.9993786   1.9989908   1.9844051   1.7385829   1.6816738   1.1297700
           49          50          51          52          53          54
    1   0.7954814   0.4107596   0.2603976   0.0006112   0.0003729   0.0000752
           55          56          57          58          59          60
    1   0.0000635   0.0000580   0.0000482   0.0000308   0.0000232   0.0000183
           61          62
    1   0.0000135   0.0000105

 Head-Gordon Nu:    2.94
 Head-Gordon Nu_nl: 3.01

  Amplitudes : 
  
 | HOLE  | ALPHA    | BETA     | PART  |    AMPLITUDE 
--------------------------------------------------
 |  39   | 11111111 | 11111110 |       |     1.3775909737920E-01
 |  36   | 11111111 | 11111101 |       |     1.1716072068728E-01
 |  39   | 11111111 | 11111101 |       |     5.2182324065080E-01
 |       | 11111110 | 11111100 |  52   |     3.8423404389243E-01
 |       | 11111110 | 11111100 |  55   |    -4.9617706559655E-01
 |       | 11111011 | 11111100 |  50   |    -1.6177110703241E-01
 |       | 11111110 | 11111010 |  50   |     1.7659483996530E-01
 |       | 11111110 | 11111001 |  50   |     3.5159567590695E-01
 |       | 11111110 | 11111001 |  51   |     1.5917089962032E-01
 |       | 11111111 | 11111000 |  50   |     1.7382479665186E-01
--------------------------------------------------
*** Contributions RASCI wfn    Active:   0.91
                                 Hole:  31.75
                                 Part:  67.34

      Mulliken population analysis 
 ---------------------------------------------------
   Atom    Charge (a.u.)   Spin (a.u.)  
 ---------------------------------------------------
   1  C    0.306952        0.032874 
   2  O   -0.192711        0.932856 
   3  C    0.223414        0.162627 
   4  C    0.223694        0.162634 
   5  C   -0.327377        0.028626 
   6  C   -0.248581        0.081029 
   7  C   -0.101278        0.017038 
   8  C   -0.132818        0.105025 
   9  C   -0.147037        0.119438 
  10  H    0.154006        0.000281 
  11  H    0.142261        0.000654 
  12  H    0.126437        0.001107 
  13  H    0.126462        0.000158 
  14  H    0.127120        0.001171 
  15  C   -0.327187        0.028616 
  16  C   -0.248372        0.081018 
  17  C   -0.133023        0.105013 
  18  C   -0.101421        0.017038 
  19  C   -0.146842        0.119427 
  20  H    0.154020        0.000281 
  21  H    0.126432        0.001107 
  22  H    0.142258        0.000653 
  23  H    0.126460        0.000158 
  24  H    0.127132        0.001171 
 ---------------------------------------------------
   Sum:    0.000000        2.000000 
 ---------------------------------------------------
 
  
 NATURAL OCCUPATION NUMBERS (higher than 1.0E-05)
            1           2           3           4           5           6
    1   2.0000000   2.0000000   2.0000000   2.0000000   2.0000000   2.0000000
            7           8           9          10          11          12
    1   2.0000000   2.0000000   2.0000000   2.0000000   2.0000000   2.0000000
           13          14          15          16          17          18
    1   2.0000000   2.0000000   2.0000000   2.0000000   2.0000000   2.0000000
           19          20          21          22          23          24
    1   2.0000000   2.0000000   2.0000000   2.0000000   2.0000000   2.0000000
           25          26          27          28          29          30
    1   2.0000000   2.0000000   2.0000000   2.0000000   2.0000000   2.0000000
           31          32          33          34          35          36
    1   2.0000000   2.0000000   2.0000000   2.0000000   1.9999996   1.9999989
           37          38          39          40          41          42
    1   1.9999934   1.9999836   1.9999243   1.9999023   1.9998573   1.9995502
           43          44          45          46          47          48
    1   1.9993786   1.9989908   1.9844051   1.7385829   1.6816738   1.1297700
           49          50          51          52          53          54
    1   0.7954814   0.4107596   0.2603976   0.0006112   0.0003729   0.0000752
           55          56          57          58          59          60
    1   0.0000635   0.0000580   0.0000482   0.0000308   0.0000232   0.0000183
           61          62
    1   0.0000135   0.0000105
  
*** Unpaired Electrons
 Yamaguchi Nd:         4.08
 Head-Gordon Nu:       2.94
 Head-Gordon Nu_nl:    3.01
  
**************************************************
 RAS-CI total energy for state   8:   -572.888246781061
  Excitation energy (eV) =  5.627702661083
  State symmetry: B     (C2       )
  <S^2>      :  2.0000
  Dipole Moment:    0.0000 X     0.0000 Y     0.5548 Z
  Trans. Moment:   -2.1817 X     0.0283 Y    -0.0000 Z
  Strength   :  0.656370
  Natural transition orbitals ( 1 -> 8 ):
   e-/hole pair  1 alpha:  ampl =  0.488796 ( 23.9%)   [8 : 9]
   e-/hole pair  2 alpha:  ampl =  0.031750 (  0.1%)   [7 : 10]
   e-/hole pair  1 beta :  ampl =  0.811849 ( 65.9%)   [8 : 9]
   e-/hole pair  2 beta :  ampl =  0.050196 (  0.3%)   [7 : 10]
   Sum of square amplitudes: 0.90

 NATURAL OCCUPATION NUMBERS (higher than 1.0E-05)
            1           2           3           4           5           6
    1   2.0000000   2.0000000   2.0000000   2.0000000   2.0000000   2.0000000
            7           8           9          10          11          12
    1   2.0000000   2.0000000   2.0000000   2.0000000   2.0000000   2.0000000
           13          14          15          16          17          18
    1   2.0000000   2.0000000   2.0000000   2.0000000   2.0000000   2.0000000
           19          20          21          22          23          24
    1   2.0000000   2.0000000   2.0000000   2.0000000   2.0000000   2.0000000
           25          26          27          28          29          30
    1   2.0000000   2.0000000   2.0000000   2.0000000   2.0000000   2.0000000
           31          32          33          34          35          36
    1   2.0000000   2.0000000   2.0000000   1.9999998   1.9999997   1.9999934
           37          38          39          40          41          42
    1   1.9999652   1.9998894   1.9998399   1.9996853   1.9996098   1.9994682
           43          44          45          46          47          48
    1   1.9985721   1.9983328   1.9963715   1.9936192   1.4925506   1.2465087
           49          50          51          52          53          54
    1   1.0052792   0.2440091   0.0192558   0.0042473   0.0014324   0.0003132
           55          56          57          58          59          60
    1   0.0002923   0.0002112   0.0001975   0.0001105   0.0001014   0.0000455
           61          62          63          64          65
    1   0.0000241   0.0000208   0.0000181   0.0000124   0.0000105

 Head-Gordon Nu:    2.54
 Head-Gordon Nu_nl: 2.64

  Amplitudes : 
  
 | HOLE  | ALPHA    | BETA     | PART  |    AMPLITUDE 
--------------------------------------------------
 |       | 11111111 | 11111001 |       |    -7.6146187733336E-01
 |       | 11111110 | 11111100 |  50   |     3.3048871320509E-01
 |       | 11111110 | 11111100 |  51   |     3.3172561678058E-01
 |       | 11111110 | 11111100 |  68   |     1.0184383335046E-01
 |       | 11111110 | 11111001 |  55   |     2.4461066630692E-01
 |       | 11111111 | 11111000 |  55   |     2.4262602938682E-01
--------------------------------------------------
*** Contributions RASCI wfn    Active:  59.48
                                 Hole:   1.98
                                 Part:  38.54

      Mulliken population analysis 
 ---------------------------------------------------
   Atom    Charge (a.u.)   Spin (a.u.)  
 ---------------------------------------------------
   1  C    0.188200        0.076640 
   2  O   -0.209919        0.932942 
   3  C    0.290716        0.135361 
   4  C    0.290991        0.135323 
   5  C   -0.336800        0.048247 
   6  C   -0.265896        0.103510 
   7  C   -0.104346        0.021204 
   8  C   -0.072854        0.038564 
   9  C   -0.184766        0.143509 
  10  H    0.154253        0.000816 
  11  H    0.139853        0.003944 
  12  H    0.128148       -0.000117 
  13  H    0.129903        0.000125 
  14  H    0.132380        0.000070 
  15  C   -0.336610        0.048238 
  16  C   -0.265679        0.103498 
  17  C   -0.073068        0.038568 
  18  C   -0.104497        0.021215 
  19  C   -0.184564        0.143509 
  20  H    0.154268        0.000816 
  21  H    0.128142       -0.000117 
  22  H    0.139852        0.003939 
  23  H    0.129902        0.000125 
  24  H    0.132392        0.000070 
 ---------------------------------------------------
   Sum:    0.000000        2.000000 
 ---------------------------------------------------
 
  
 NATURAL OCCUPATION NUMBERS (higher than 1.0E-05)
            1           2           3           4           5           6
    1   2.0000000   2.0000000   2.0000000   2.0000000   2.0000000   2.0000000
            7           8           9          10          11          12
    1   2.0000000   2.0000000   2.0000000   2.0000000   2.0000000   2.0000000
           13          14          15          16          17          18
    1   2.0000000   2.0000000   2.0000000   2.0000000   2.0000000   2.0000000
           19          20          21          22          23          24
    1   2.0000000   2.0000000   2.0000000   2.0000000   2.0000000   2.0000000
           25          26          27          28          29          30
    1   2.0000000   2.0000000   2.0000000   2.0000000   2.0000000   2.0000000
           31          32          33          34          35          36
    1   2.0000000   2.0000000   2.0000000   1.9999998   1.9999997   1.9999934
           37          38          39          40          41          42
    1   1.9999652   1.9998894   1.9998399   1.9996853   1.9996098   1.9994682
           43          44          45          46          47          48
    1   1.9985721   1.9983328   1.9963715   1.9936192   1.4925506   1.2465087
           49          50          51          52          53          54
    1   1.0052792   0.2440091   0.0192558   0.0042473   0.0014324   0.0003132
           55          56          57          58          59          60
    1   0.0002923   0.0002112   0.0001975   0.0001105   0.0001014   0.0000455
           61          62          63          64          65
    1   0.0000241   0.0000208   0.0000181   0.0000124   0.0000105
  
*** Unpaired Electrons
 Yamaguchi Nd:         3.21
 Head-Gordon Nu:       2.54
 Head-Gordon Nu_nl:    2.64
  
**************************************************
 RAS-CI total energy for state   9:   -572.885472194628
  Excitation energy (eV) =  5.703202999252
  State symmetry: A     (C2       )
  <S^2>      :  2.0000
  Dipole Moment:   -0.0000 X    -0.0000 Y    -0.7781 Z
  Trans. Moment:    0.0000 X     0.0000 Y     0.3640 Z
  Strength   :  0.018517
  Natural transition orbitals ( 1 -> 9 ):
   e-/hole pair  1 alpha:  ampl =  0.870632 ( 75.8%)   [8 : 9]
   e-/hole pair  2 alpha:  ampl =  0.163583 (  2.7%)   [7 : 10]
   e-/hole pair  1 beta :  ampl =  0.262078 (  6.9%)   [8 : 9]
   e-/hole pair  2 beta :  ampl =  0.121569 (  1.5%)   [7 : 10]
   Sum of square amplitudes: 0.87

 NATURAL OCCUPATION NUMBERS (higher than 1.0E-05)
            1           2           3           4           5           6
    1   2.0000000   2.0000000   2.0000000   2.0000000   2.0000000   2.0000000
            7           8           9          10          11          12
    1   2.0000000   2.0000000   2.0000000   2.0000000   2.0000000   2.0000000
           13          14          15          16          17          18
    1   2.0000000   2.0000000   2.0000000   2.0000000   2.0000000   2.0000000
           19          20          21          22          23          24
    1   2.0000000   2.0000000   2.0000000   2.0000000   2.0000000   2.0000000
           25          26          27          28          29          30
    1   2.0000000   2.0000000   2.0000000   2.0000000   2.0000000   2.0000000
           31          32          33          34          35          36
    1   2.0000000   2.0000000   2.0000000   2.0000000   2.0000000   1.9999998
           37          38          39          40          41          42
    1   1.9999979   1.9999964   1.9999570   1.9999121   1.9998937   1.9998650
           43          44          45          46          47          48
    1   1.9996326   1.9994816   1.9863393   1.9302479   1.8453571   1.0326833
           49          50          51          52          53          54
    1   0.7741227   0.2778118   0.1531125   0.0011535   0.0002049   0.0000716
           55          56          57          58
    1   0.0000460   0.0000271   0.0000237   0.0000202

 Head-Gordon Nu:    2.41
 Head-Gordon Nu_nl: 2.31

  Amplitudes : 
  
 | HOLE  | ALPHA    | BETA     | PART  |    AMPLITUDE 
--------------------------------------------------
 |  39   | 11111111 | 11111101 |       |    -2.2809697343325E-01
 |       | 11111110 | 11111100 |  52   |     8.3798864495799E-01
 |       | 11111110 | 11111100 |  55   |     2.2632132563549E-01
 |       | 11111011 | 11111100 |  50   |     1.1509203807135E-01
 |       | 11111011 | 11111100 |  51   |    -1.1476811749417E-01
 |       | 11111110 | 11111010 |  50   |    -1.2265822146598E-01
 |       | 11111110 | 11111001 |  50   |    -2.1707046253738E-01
 |       | 11111110 | 11111001 |  51   |     1.9838424276405E-01
--------------------------------------------------
*** Contributions RASCI wfn    Active:   0.18
                                 Hole:   6.95
                                 Part:  92.87

      Mulliken population analysis 
 ---------------------------------------------------
   Atom    Charge (a.u.)   Spin (a.u.)  
 ---------------------------------------------------
   1  C    0.650776       -0.030422 
   2  O   -0.115604        0.946073 
   3  C    0.218923        0.062426 
   4  C    0.219196        0.062424 
   5  C   -0.389280        0.106691 
   6  C   -0.263650        0.083997 
   7  C   -0.238673        0.149630 
   8  C   -0.128738        0.067820 
   9  C   -0.120247        0.044957 
  10  H    0.133047        0.021647 
  11  H    0.140963        0.002438 
  12  H    0.127328        0.000198 
  13  H    0.125247        0.001432 
  14  H    0.127236        0.000938 
  15  C   -0.389101        0.106695 
  16  C   -0.263444        0.083997 
  17  C   -0.128954        0.067822 
  18  C   -0.238819        0.149634 
  19  C   -0.120049        0.044954 
  20  H    0.133066        0.021643 
  21  H    0.127322        0.000199 
  22  H    0.140961        0.002438 
  23  H    0.125244        0.001432 
  24  H    0.127249        0.000937 
 ---------------------------------------------------
   Sum:    0.000000        2.000000 
 ---------------------------------------------------
 
  
 NATURAL OCCUPATION NUMBERS (higher than 1.0E-05)
            1           2           3           4           5           6
    1   2.0000000   2.0000000   2.0000000   2.0000000   2.0000000   2.0000000
            7           8           9          10          11          12
    1   2.0000000   2.0000000   2.0000000   2.0000000   2.0000000   2.0000000
           13          14          15          16          17          18
    1   2.0000000   2.0000000   2.0000000   2.0000000   2.0000000   2.0000000
           19          20          21          22          23          24
    1   2.0000000   2.0000000   2.0000000   2.0000000   2.0000000   2.0000000
           25          26          27          28          29          30
    1   2.0000000   2.0000000   2.0000000   2.0000000   2.0000000   2.0000000
           31          32          33          34          35          36
    1   2.0000000   2.0000000   2.0000000   2.0000000   2.0000000   1.9999998
           37          38          39          40          41          42
    1   1.9999979   1.9999964   1.9999570   1.9999121   1.9998937   1.9998650
           43          44          45          46          47          48
    1   1.9996326   1.9994816   1.9863393   1.9302479   1.8453571   1.0326833
           49          50          51          52          53          54
    1   0.7741227   0.2778118   0.1531125   0.0011535   0.0002049   0.0000716
           55          56          57          58
    1   0.0000460   0.0000271   0.0000237   0.0000202
  
*** Unpaired Electrons
 Yamaguchi Nd:         3.16
 Head-Gordon Nu:       2.41
 Head-Gordon Nu_nl:    2.31
  
**************************************************
 RAS-CI total energy for state  10:   -572.866517127957
  Excitation energy (eV) =  6.218996606145
  State symmetry: A     (C2       )
  <S^2>      :  2.0000
  Dipole Moment:   -0.0000 X    -0.0000 Y     1.5466 Z
  Trans. Moment:   -0.0000 X     0.0000 Y     0.0303 Z
  Strength   :  0.000140
  Natural transition orbitals ( 1 -> 10 ):
   e-/hole pair  1 alpha:  ampl =  0.242108 (  5.9%)   [8 : 9]
   e-/hole pair  2 alpha:  ampl =  0.085172 (  0.7%)   [7 : 10]
   e-/hole pair  1 beta :  ampl =  0.321686 ( 10.3%)   [8 : 9]
   e-/hole pair  2 beta :  ampl =  0.235500 (  5.5%)   [7 : 10]
   Sum of square amplitudes: 0.24

 NATURAL OCCUPATION NUMBERS (higher than 1.0E-05)
            1           2           3           4           5           6
    1   2.0000000   2.0000000   2.0000000   2.0000000   2.0000000   2.0000000
            7           8           9          10          11          12
    1   2.0000000   2.0000000   2.0000000   2.0000000   2.0000000   2.0000000
           13          14          15          16          17          18
    1   2.0000000   2.0000000   2.0000000   2.0000000   2.0000000   2.0000000
           19          20          21          22          23          24
    1   2.0000000   2.0000000   2.0000000   2.0000000   2.0000000   2.0000000
           25          26          27          28          29          30
    1   2.0000000   2.0000000   2.0000000   2.0000000   2.0000000   2.0000000
           31          32          33          34          35          36
    1   2.0000000   2.0000000   2.0000000   2.0000000   1.9999999   1.9999998
           37          38          39          40          41          42
    1   1.9999960   1.9999843   1.9999754   1.9999236   1.9998981   1.9994007
           43          44          45          46          47          48
    1   1.9991760   1.9955974   1.9436676   1.8673239   1.6393722   1.1506462
           49          50          51          52          53          54
    1   0.8485611   0.5475873   0.0080062   0.0002570   0.0002557   0.0001839
           55          56          57          58
[...]
246 A   247 A   243 B   248 A   249 A                                          
 
 Beta MOs, Restricted
 -- Doubly Occupied --           
-20.658 -11.299 -11.261 -11.261 -11.240 -11.240 -11.240 -11.240
  1 A     2 A     1 B     3 A     2 B     4 A     3 B     5 A                  
-11.239 -11.239 -11.239 -11.239 -11.237 -11.237  -1.459  -1.167
  4 B     6 A     7 A     5 B     8 A     6 B     9 A    10 A                  
 -1.156  -1.068  -1.027  -1.025  -1.020  -0.923  -0.848  -0.836
  7 B    11 A     8 B    12 A     9 B    13 A    10 B    14 A                  
 -0.825  -0.784  -0.722  -0.662  -0.645  -0.628  -0.596  -0.600
 11 B    15 A    12 B    13 B    14 B    16 A    17 A    15 B                  
 -0.526  -0.514  -0.512  -0.516  -0.496  -0.495  -0.387  -0.352
 18 A    16 B    19 A    17 B    20 A    18 B    19 B    21 A                  
 -0.350  -0.710  -0.674  -0.608  -0.616  -0.611  -0.348
 20 B    22 A    23 A    24 A    21 B    22 B    25 A                          
 -- Singly Occupied (Vacant) --  
 -0.644  -0.271
 23 B    24 B                                                                  
 -- Virtual --                   
  0.095   0.112   0.122   0.154   0.159   0.162   0.173   0.182
 26 A    27 A    25 B    28 A    26 B    27 B    29 A    28 B                  
  0.185   0.198   0.206   0.208   0.213   0.219   0.247   0.263
 30 A    29 B    31 A    30 B    32 A    31 B    33 A    32 B                  
  0.285   0.290   0.297   0.316   0.319   0.329   0.332   0.339
 34 A    33 B    35 A    36 A    34 B    37 A    35 B    36 B                  
  0.340   0.344   0.346   0.362   0.363   0.371   0.373   0.391
 38 A    37 B    39 A    38 B    40 A    39 B    41 A    40 B                  
  0.399   0.402   0.413   0.423   0.437   0.440   0.454   0.457
 42 A    43 A    44 A    41 B    42 B    45 A    46 A    43 B                  
  0.462   0.466   0.473   0.479   0.489   0.500   0.506   0.511
 47 A    44 B    48 A    45 B    46 B    49 A    50 A    47 B                  
  0.527   0.534   0.538   0.543   0.545   0.550   0.563   0.567
 48 B    51 A    49 B    52 A    50 B    53 A    51 B    54 A                  
  0.568   0.572   0.581   0.590   0.591   0.599   0.612   0.614
 52 B    55 A    56 A    57 A    53 B    54 B    58 A    55 B                  
  0.627   0.629   0.633   0.648   0.661   0.662   0.668   0.678
 56 B    59 A    60 A    57 B    58 B    61 A    59 B    62 A                  
  0.687   0.689   0.708   0.744   0.753   0.757   0.770   0.782
 60 B    63 A    64 A    61 B    62 B    63 B    65 A    66 A                  
  0.803   0.818   0.836   0.842   0.843   0.852   0.857   0.878
 67 A    64 B    65 B    68 A    66 B    67 B    69 A    68 B                  
  0.880   0.898   0.910   0.910   0.910   0.919   0.924   0.931
 70 A    71 A     0 xxx   0 xxx  69 B    72 A    70 B    73 A                  
  0.936   0.956   0.973   0.978   0.977   1.000   1.008   1.016
 71 B    74 A    72 B    75 A    73 B    74 B    76 A    75 B                  
  1.034   1.058   1.060   1.072   1.072   1.078   1.088   1.090
 77 A    78 A    76 B    79 A    77 B    80 A    81 A    78 B                  
  1.107   1.116   1.155   1.183   1.183   1.194   1.199   1.214
 79 B    82 A    80 B    83 A    81 B    84 A    82 B    85 A                  
  1.223   1.236   1.252   1.271   1.298   1.312   1.327   1.342
 83 B    84 B    86 A    87 A    85 B    86 B    88 A    89 A                  
  1.345   1.355   1.403   1.407   1.424   1.424   1.431   1.436
 87 B    90 A    88 B    91 A    89 B    92 A    90 B    93 A                  
  1.451   1.451   1.477   1.483   1.494   1.508   1.509   1.515
 91 B    94 A    95 A    92 B    93 B    94 B    96 A    97 A                  
  1.527   1.538   1.568   1.575   1.588   1.622   1.622   1.640
 95 B    98 A    96 B    99 A    97 B    98 B   100 A   101 A                  
  1.670   1.683   1.698   1.701   1.723   1.730   1.731   1.734
102 A    99 B   103 A   100 B   104 A   101 B   102 B   105 A                  
  1.785   1.785   1.790   1.804   1.809   1.806   1.821   1.834
106 A   103 B   107 A   104 B   105 B   108 A   109 A   106 B                  
  1.836   1.859   1.867   1.894   1.899   1.907   1.928   1.935
110 A   107 B   111 A   108 B   112 A   109 B   113 A   110 B                  
  1.963   1.974   1.988   1.988   1.991   2.000   2.001   2.016
114 A   115 A   111 B   116 A   112 B   113 B   117 A   114 B                  
  2.020   2.045   2.072   2.077   2.122   2.133   2.141   2.156
118 A   119 A   115 B   116 B   120 A   117 B   121 A   122 A                  
  2.155   2.175   2.195   2.199   2.228   2.269   2.290   2.303
118 B   119 B   120 B   123 A   124 A   121 B   125 A   126 A                  
  2.307   2.313   2.337   2.349   2.368   2.384   2.403   2.418
122 B   123 B   127 A   124 B   128 A   125 B   129 A   126 B                  
  2.422   2.436   2.455   2.477   2.478   2.489   2.501   2.511
130 A   131 A   127 B   128 B   132 A   133 A   129 B   134 A                  
  2.516   2.550   2.556   2.578   2.587   2.625   2.644   2.683
130 B   135 A   131 B   132 B   136 A   133 B   137 A   134 B                  
  2.693   2.706   2.742   2.759   2.771   2.784   2.787   2.812
138 A   135 B   139 A   136 B   140 A   141 A   137 B   138 B                  
  2.841   2.869   2.875   2.878   2.902   2.908   2.923   2.926
142 A   139 B   143 A   140 B   144 A   141 B   145 A   142 B                  
  2.943   2.957   2.960   2.961   2.979   2.977   2.992   2.994
143 B   146 A   144 B   147 A   148 A   145 B   146 B   149 A                  
  3.003   3.005   3.011   3.025   3.032   3.045   3.053   3.058
147 B   150 A   151 A   148 B   149 B   152 A   150 B   153 A                  
  3.083   3.084   3.090   3.098   3.108   3.114   3.126   3.130
151 B   154 A   155 A   152 B   156 A   153 B   157 A   154 B                  
  3.139   3.153   3.160   3.165   3.170   3.171   3.192   3.202
158 A   155 B   159 A   156 B   160 A   157 B   161 A   158 B                  
  3.208   3.228   3.232   3.238   3.292   3.292   3.307   3.326
159 B   162 A   163 A   160 B   164 A   161 B   165 A   162 B                  
  3.337   3.348   3.361   3.370   3.385   3.402   3.413   3.415
166 A   163 B   167 A   164 B   168 A   165 B   166 B   169 A                  
  3.432   3.438   3.456   3.460   3.463   3.473   3.483   3.483
170 A   167 B   171 A   168 B   169 B   172 A   173 A   174 A                  
  3.491   3.512   3.517   3.521   3.530   3.541   3.545   3.567
170 B   171 B   172 B   175 A   176 A   177 A   173 B   178 A                  
  3.582   3.598   3.607   3.619   3.623   3.635   3.638   3.654
174 B   179 A   175 B   176 B   180 A   181 A   177 B   182 A                  
  3.669   3.686   3.692   3.694   3.703   3.707   3.716   3.724
178 B   179 B   183 A   180 B   181 B   184 A   182 B   185 A                  
  3.736   3.748   3.760   3.786   3.788   3.796   3.799   3.805
183 B   186 A   184 B   187 A   185 B   188 A   186 B   189 A                  
  3.813   3.817   3.830   3.847   3.859   3.871   3.879   3.886
190 A   187 B   191 A   188 B   192 A   193 A   189 B   190 B                  
  3.900   3.908   3.909   3.947   3.991   3.998   4.020   4.026
194 A   191 B   195 A   192 B   196 A   197 A   198 A   193 B                  
  4.041   4.070   4.075   4.092   4.118   4.149   4.173   4.199
194 B   195 B   199 A   196 B   200 A   201 A   197 B   198 B                  
  4.238   4.259   4.285   4.300   4.309   4.312   4.338   4.347
202 A   199 B   200 B   203 A   201 B   204 A   202 B   205 A                  
  4.376   4.395   4.425   4.457   4.472   4.475   4.506   4.508
203 B   206 A   204 B   207 A   205 B   208 A   206 B   209 A                  
  4.536   4.540   4.557   4.575   4.576   4.581   4.588   4.595
207 B   210 A   208 B   211 A   209 B   212 A   213 A   210 B                  
  4.603   4.629   4.636   4.653   4.671   4.688   4.701   4.740
214 A   215 A   211 B   212 B   213 B   216 A   217 A   214 B                  
  4.784   4.790   4.868   4.895   4.902   4.991   5.008   5.010
215 B   218 A   219 A   220 A   216 B   217 B   221 A   218 B                  
  5.018   5.044   5.058   5.071   5.111   5.136   5.172   5.247
222 A   223 A   219 B   220 B   224 A   221 B   225 A   222 B                  
  5.262   5.276   5.295   5.311   5.395   5.454   5.470   5.532
226 A   227 A   223 B   228 A   224 B   225 B   229 A   226 B                  
  5.562   5.585   5.586   5.618   5.634   5.721   5.764   5.768
227 B   230 A   228 B   231 A   229 B   232 A   230 B   233 A                  
  5.834   5.832   5.862   5.864   6.002   6.055   6.055   6.329
231 B   234 A   232 B   235 A   236 A   237 A   233 B   234 B                  
  6.594   6.800   6.790   6.966   7.243   7.426   7.461  23.100
238 A   235 B   239 A   240 A   236 B   241 A   237 B   242 A                  
 23.323  23.676  23.684  23.700  23.706  23.818  23.847  23.885
238 B   243 A   239 B   244 A   240 B   241 B   245 A   242 B                  
 23.939  24.181  24.248  24.494  45.382
246 A   247 A   243 B   248 A   249 A                                          
 --------------------------------------------------------------
 
          Ground-State Mulliken Net Atomic Charges

     Atom                 Charge (a.u.)
  ----------------------------------------
      1 C                     0.286234
      2 O                    -0.221444
      3 C                     0.180091
      4 C                     0.180361
      5 C                    -0.330927
      6 C                    -0.230321
      7 C                    -0.105450
      8 C                    -0.078732
      9 C                    -0.146293
     10 H                     0.154250
     11 H                     0.143275
     12 H                     0.127302
     13 H                     0.126434
     14 H                     0.127718
     15 C                    -0.330744
     16 C                    -0.230114
     17 C                    -0.078946
     18 C                    -0.105593
     19 C                    -0.146097
     20 H                     0.154265
     21 H                     0.127297
     22 H                     0.143272
     23 H                     0.126432
     24 H                     0.127730
  ----------------------------------------
  Sum of atomic charges =     0.000000

  Do orbital-by-orbital Lowdin population analysis
 
 
 Partial Mulliken analysis unavailable for frozen orbitals
 
 -----------------------------------------------------------------
                    Cartesian Multipole Moments
 -----------------------------------------------------------------
    Charge (ESU x 10^10)
                 0.0000
    Dipole Moment (Debye)
         X       0.0000      Y       0.0000      Z      -1.2403
       Tot       1.2403
    Quadrupole Moments (Debye-Ang)
        XX     -70.5259     XY      -2.3255     YY     -86.4440
        XZ      -0.0000     YZ      -0.0000     ZZ     -78.6484
    Octopole Moments (Debye-Ang^2)
       XXX       0.0000    XXY       0.0000    XYY      -0.0000
       YYY       0.0000    XXZ      -1.6719    XYZ     -16.8560
       YYZ       3.7668    XZZ       0.0000    YZZ       0.0000
       ZZZ      -5.0451
    Hexadecapole Moments (Debye-Ang^3)
      XXXX   -3099.2427   XXXY     -65.8070   XXYY    -666.2262
      XYYY      -4.3101   YYYY    -208.5015   XXXZ      -0.0001
      XXYZ      -0.0000   XYYZ      -0.0000   YYYZ       0.0000
      XXZZ    -643.5833   XYZZ       8.0175   YYZZ    -151.0575
      XZZZ      -0.0000   YZZZ      -0.0000   ZZZZ    -736.3449
 -----------------------------------------------------------------
 Mayer SCF Bond Order, atomic valence on the diagonal:

            1           2           3           4           5           6
    1   1.7547322   0.1597129   0.2293561   0.0697691   0.0137770   0.0524818
    2   0.1597129   1.1032004  -0.0302247  -0.0302050   0.0072896   0.0197268
    3   0.2293561  -0.0302247   3.6750207  -0.0719751   0.0017499   0.0072078
    4   0.0697691  -0.0302050  -0.0719751   3.6750544   1.3576825   1.3822919
    5   0.0137770   0.0072896   0.0017499   1.3576825   4.0190813   0.0522992
    6   0.0524818   0.0197268   0.0072078   1.3822919   0.0522992   3.9783969
    7   0.0140114  -0.0000036  -0.0007995  -0.0273988   0.0634408   1.4661570
    8   0.0245196   0.0011518   0.0024988  -0.0472869   1.4845714   0.0610399
    9   0.0155069   0.0034278   0.0006780   0.0465061   0.0619042   0.0429067
   10   0.0054736   0.0001352  -0.0003649  -0.0112309   0.9761987   0.0058155
   11   0.0021392   0.0081445  -0.0000722  -0.0031697   0.0062084   0.9701662
   12   0.0016535   0.0001087   0.0000549   0.0056781  -0.0123491   0.0006222
   13  -0.0026128   0.0000569   0.0001783   0.0059075   0.0005238  -0.0121027
   14  -0.0002190   0.0000368   0.0000302   0.0006196   0.0051993   0.0053833
   15   0.0343801   0.0072920   1.3576519   0.0017826   0.0230842   0.0081512
   16   0.0339277   0.0197318   1.3822445   0.0072242   0.0081451   0.0030867
   17  -0.0460287   0.0011506  -0.0471808   0.0024798  -0.0025486  -0.0021342
   18  -0.0174215  -0.0000057  -0.0272935  -0.0008142  -0.0013149   0.0004558
   19   0.0100997   0.0034290   0.0464784   0.0006921   0.0027500   0.0021291
   20  -0.0076019   0.0001351  -0.0112141  -0.0003653  -0.0002651   0.0000089
   21   0.0060059   0.0001089   0.0056798   0.0000544   0.0000174   0.0000832
   22  -0.0041873   0.0081446  -0.0031791  -0.0000703   0.0002057   0.0000441
   23   0.0026654   0.0000569   0.0059091   0.0001788  -0.0000187   0.0000282
   24   0.0000247   0.0000368   0.0006164   0.0000312   0.0000947   0.0000635
            7           8           9          10          11          12
    1   0.0140114   0.0245196   0.0155069   0.0054736   0.0021392   0.0016535
    2  -0.0000036   0.0011518   0.0034278   0.0001352   0.0081445   0.0001087
    3  -0.0007995   0.0024988   0.0006780  -0.0003649  -0.0000722   0.0000549
    4  -0.0273988  -0.0472869   0.0465061  -0.0112309  -0.0031697   0.0056781
    5   0.0634408   1.4845714   0.0619042   0.9761987   0.0062084  -0.0123491
    6   1.4661570   0.0610399   0.0429067   0.0058155   0.9701662   0.0006222
    7   3.9286879   0.0200978   1.4344537   0.0006291  -0.0118716   0.0057307
    8   0.0200978   3.9007581   1.4073301  -0.0116554   0.0006091   0.9793611
    9   1.4344537   1.4073301   3.9821951   0.0065026   0.0061336  -0.0100988
   10   0.0006291  -0.0116554   0.0065026   0.9677970   0.0007044  -0.0001531
   11  -0.0118716   0.0006091   0.0061336   0.0007044   0.9755160   0.0000044
   12   0.0057307   0.9793611  -0.0100988  -0.0001531   0.0000044   0.9704728
   13   0.9804872   0.0060096  -0.0102763   0.0000099  -0.0001077   0.0006701
   14  -0.0101525  -0.0105820   0.9795625   0.0005336   0.0005739  -0.0001221
   15  -0.0013190  -0.0025483   0.0027524  -0.0002638   0.0002057   0.0000172
   16   0.0004589  -0.0021251   0.0021242   0.0000102   0.0000444   0.0000831
   17   0.0008190   0.0036559  -0.0010719   0.0002083  -0.0000583   0.0000098
   18  -0.0001275   0.0008153   0.0002256   0.0004132   0.0000199  -0.0000395
   19   0.0002236  -0.0010697   0.0015285   0.0004142   0.0000056   0.0000379
   20   0.0004131   0.0002104   0.0004146  -0.0035408   0.0000148   0.0000062
   21  -0.0000396   0.0000096   0.0000380   0.0000062   0.0000053   0.0000014
   22   0.0000200  -0.0000581   0.0000056   0.0000147   0.0000020   0.0000053
   23   0.0000087   0.0000339   0.0000041   0.0000029   0.0000025  -0.0000008
   24   0.0000058  -0.0000711   0.0000369   0.0000102   0.0000026  -0.0000004
           13          14          15          16          17          18
    1  -0.0026128  -0.0002190   0.0343801   0.0339277  -0.0460287  -0.0174215
    2   0.0000569   0.0000368   0.0072920   0.0197318   0.0011506  -0.0000057
    3   0.0001783   0.0000302   1.3576519   1.3822445  -0.0471808  -0.0272935
    4   0.0059075   0.0006196   0.0017826   0.0072242   0.0024798  -0.0008142
    5   0.0005238   0.0051993   0.0230842   0.0081451  -0.0025486  -0.0013149
    6  -0.0121027   0.0053833   0.0081512   0.0030867  -0.0021342   0.0004558
    7   0.9804872  -0.0101525  -0.0013190   0.0004589   0.0008190  -0.0001275
    8   0.0060096  -0.0105820  -0.0025483  -0.0021251   0.0036559   0.0008153
    9  -0.0102763   0.9795625   0.0027524   0.0021242  -0.0010719   0.0002256
   10   0.0000099   0.0005336  -0.0002638   0.0000102   0.0002083   0.0004132
   11  -0.0001077   0.0005739   0.0002057   0.0000444  -0.0000583   0.0000199
   12   0.0006701  -0.0001221   0.0000172   0.0000831   0.0000098  -0.0000395
   13   0.9719989  -0.0001334  -0.0000185   0.0000283   0.0000337   0.0000087
   14  -0.0001334   0.9715138   0.0000965   0.0000638  -0.0000722   0.0000057
   15  -0.0000185   0.0000965   4.0189015   0.0521831   1.4846376   0.0634515
   16   0.0000283   0.0000638   0.0521831   3.9783333   0.0610688   1.4662333
   17   0.0000337  -0.0000722   1.4846376   0.0610688   3.9010926   0.0201550
   18   0.0000087   0.0000057   0.0634515   1.4662333   0.0201550   3.9289643
   19   0.0000042   0.0000373   0.0617941   0.0428142   1.4074341   1.4345411
   20   0.0000029   0.0000103   0.9761646   0.0058094  -0.0116308   0.0006303
   21  -0.0000008  -0.0000005  -0.0123460   0.0006236   0.9793604   0.0057318
   22   0.0000025   0.0000026   0.0062085   0.9701667   0.0006092  -0.0118726
   23   0.0000010  -0.0000001   0.0005232  -0.0120952   0.0060100   0.9804752
   24  -0.0000001   0.0000013   0.0051994   0.0053822  -0.0105684  -0.0101391
           19          20          21          22          23          24
    1   0.0100997  -0.0076019   0.0060059  -0.0041873   0.0026654   0.0000247
    2   0.0034290   0.0001351   0.0001089   0.0081446   0.0000569   0.0000368
    3   0.0464784  -0.0112141   0.0056798  -0.0031791   0.0059091   0.0006164
    4   0.0006921  -0.0003653   0.0000544  -0.0000703   0.0001788   0.0000312
    5   0.0027500  -0.0002651   0.0000174   0.0002057  -0.0000187   0.0000947
    6   0.0021291   0.0000089   0.0000832   0.0000441   0.0000282   0.0000635
    7   0.0002236   0.0004131  -0.0000396   0.0000200   0.0000087   0.0000058
    8  -0.0010697   0.0002104   0.0000096  -0.0000581   0.0000339  -0.0000711
    9   0.0015285   0.0004146   0.0000380   0.0000056   0.0000041   0.0000369
   10   0.0004142  -0.0035408   0.0000062   0.0000147   0.0000029   0.0000102
   11   0.0000056   0.0000148   0.0000053   0.0000020   0.0000025   0.0000026
   12   0.0000379   0.0000062   0.0000014   0.0000053  -0.0000008  -0.0000004
   13   0.0000042   0.0000029  -0.0000008   0.0000025   0.0000010  -0.0000001
   14   0.0000373   0.0000103  -0.0000005   0.0000026  -0.0000001   0.0000013
   15   0.0617941   0.9761646  -0.0123460   0.0062085   0.0005232   0.0051994
   16   0.0428142   0.0058094   0.0006236   0.9701667  -0.0120952   0.0053822
   17   1.4074341  -0.0116308   0.9793604   0.0006092   0.0060100  -0.0105684
   18   1.4345411   0.0006303   0.0057318  -0.0118726   0.9804752  -0.0101391
   19   3.9821869   0.0064970  -0.0100983   0.0061331  -0.0102683   0.9795256
   20   0.0064970   0.9677880  -0.0001519   0.0007045   0.0000098   0.0005344
   21  -0.0100983  -0.0001519   0.9704792   0.0000045   0.0006702  -0.0001220
   22   0.0061331   0.0007045   0.0000045   0.9755137  -0.0001077   0.0005743
   23  -0.0102683   0.0000098   0.0006702  -0.0001077   0.9720043  -0.0001328
   24   0.9795256   0.0005344  -0.0001220   0.0005743  -0.0001328   0.9715020


 Total job time:  13349.83s(wall), 13078.67s(cpu) 
 Wed Nov 29 20:49:51 2023

        *************************************************************
        *                                                           *
        *  Thank you very much for using Q-Chem.  Have a nice day.  *
        *                                                           *
        *************************************************************


