                  Welcome to Q-Chem
     A Quantum Leap Into The Future Of Chemistry


 Q-Chem 6.0 (devel), Q-Chem, Inc., Pleasanton, CA (2022)

 E. Epifanovsky,  A. T. B. Gilbert,  Xintian Feng,  Joonho Lee,  Yuezhi Mao,  
 N. Mardirossian,  P. Pokhilko,  A. White,  M. Wormit,  M. P. Coons,  
 A. L. Dempwolff,  Zhengting Gan,  D. Hait,  P. R. Horn,  L. D. Jacobson,  
 I. Kaliman,  J. Kussmann,  A. W. Lange,  Ka Un Lao,  D. S. Levine,  Jie Liu,  
 S. C. McKenzie,  A. F. Morrison,  K. Nanda,  F. Plasser,  D. R. Rehn,  
 M. L. Vidal,  Zhi-Qiang You,  Ying Zhu,  B. Alam,  B. Albrecht,  
 A. Aldossary,  E. Alguire,  J. H. Andersen,  V. Athavale,  D. Barton,  
 K. Begam,  A. Behn,  N. Bellonzi,  Y. A. Bernard,  E. J. Berquist,  
 H. Burton,  A. Carreras,  K. Carter-Fenk,  Romit Chakraborty,  
 Chandrima Chakravarty,  Junhan Chen,  A. D. Chien,  K. D. Closser,  
 V. Cofer-Shabica,  L. Cunha,  S. Dasgupta,  Jia Deng,  M. de Wergifosse,  
 M. Diedenhofen,  Hainam Do,  S. Ehlert,  Po-Tung Fang,  S. Fatehi,  
 Qingguo Feng,  T. Friedhoff,  B. Ganoe,  J. Gayvert,  Qinghui Ge,  
 G. Gidofalvi,  M. Goldey,  J. Gomes,  C. Gonzalez-Espinoza,  S. Gulania,  
 A. Gunina,  J. A. Gyamfi,  M. W. D. Hanson-Heine,  P. H. P. Harbach,  
 A. W. Hauser,  M. F. Herbst,  M. Hernandez Vera,  M. Hodecker,  
 Z. C. Holden,  S. Houck,  Xunkun Huang,  Kerwin Hui,  B. C. Huynh,  
 K. Ikeda,  M. Ivanov,  Hyunjun Ji,  Zuxin Jin,  Hanjie Jiang,  B. Kaduk,  
 S. Kaehler,  R. Kang,  K. Khistyaev,  Jaehoon Kim,  Yongbin Kim,  
 P. Klunzinger,  Z. Koczor-Benda,  Joong Hoon Koh,  D. Kosenkov,  
 Saikiran Kotaru,  L. Koulias,  T. Kowalczyk,  C. M. Krauter,  K. Kue,  
 A. Kunitsa,  T. Kus,  A. Landau,  K. V. Lawler,  D. Lefrancois,  S. Lehtola,  
 Rain Li,  Shaozhi Li,  Yi-Pei Li,  Jiashu Liang,  M. Liebenthal,  
 Hung-Hsuan Lin,  You-Sheng Lin,  Fenglai Liu,  Kuan-Yu Liu,  
 M. Loipersberger,  A. Luenser,  C. Malbon,  A. Manjanath,  P. Manohar,  
 E. Mansoor,  S. F. Manzer,  Shan-Ping Mao,  A. V. Marenich,  T. Markovich,  
 S. Mason,  F. Matz,  S. A. Maurer,  P. F. McLaughlin,  M. F. S. J. Menger,  
 J.-M. Mewes,  S. A. Mewes,  P. Morgante,  Mohammad Mostafanejad,  
 J. W. Mullinax,  K. J. Oosterbaan,  G. Paran,  V. Parravicini,  
 Alexander C. Paul,  Suranjan K. Paul,  F. Pavosevic,  Zheng Pei,  S. Prager,  
 E. I. Proynov,  E. Ramos,  B. Rana,  A. E. Rask,  A. Rettig,  R. M. Richard,  
 F. Rob,  E. Rossomme,  T. Scheele,  M. Scheurer,  M. Schneider,  
 P. E. Schneider,  N. Sergueev,  S. M. Sharada,  Hengyuan Shen,  
 W. Skomorowski,  D. W. Small,  C. J. Stein,  Yingli Su,  Yu-Chuan Su,  
 E. J. Sundstrom,  Zhen Tao,  J. Thirman,  Hung-Yi Tsai,  T. Tsuchimochi,  
 N. M. Tubman,  C. Utku,  S. P. Veccham,  O. Vydrov,  J. Wenzel,  
 Jonathan Wong,  J. Witte,  A. Yamada,  Chou-Hsun Yang,  Kun Yao,  
 S. Yeganeh,  S. R. Yost,  A. Zech,  F. Zeller,  Igor Ying Zhang,  
 Xing Zhang,  Yu Zhang,  D. Zuev,  A. Aspuru-Guzik,  A. T. Bell,  
 N. A. Besley,  K. B. Bravaya,  B. R. Brooks,  D. Casanova,  Jeng-Da Chai,  
 Hsing-Ta Chen,  S. Coriani,  C. J. Cramer,  A. E. DePrince, III,  
 R. A. DiStasio Jr.,  A. Dreuw,  B. D. Dunietz,  T. R. Furlani,  
 W. A. Goddard III,  S. Grimme,  S. Hammes-Schiffer,  T. Head-Gordon,  
 W. J. Hehre,  Chao-Ping Hsu,  T.-C. Jagau,  Yousung Jung,  A. Klamt,  
 Jing Kong,  D. S. Lambrecht,  Xiangyuan Li,  WanZhen Liang,  N. J. Mayhall,  
 C. W. McCurdy,  J. B. Neaton,  T. Neudecker,  C. Ochsenfeld,  
 J. A. Parkhill,  R. Peverati,  V. A. Rassolov,  Haisheng Ren,  Yihan Shao,  
 L. V. Slipchenko,  R. P. Steele,  J. E. Subotnik,  A. J. W. Thom,  
 A. Tkatchenko,  D. G. Truhlar,  T. Van Voorhis,  Fan Wang,  
 T. A. Wesolowski,  K. B. Whaley,  H. L. Woodcock III,  P. M. Zimmerman,  
 S. Faraji,  P. M. W. Gill,  M. Head-Gordon,  J. M. Herbert,  A. I. Krylov

 Contributors to earlier versions of Q-Chem not listed above: 
 R. D. Adamson,  B. Austin,  R. Baer,  J. Baker,  G. J. O. Beran,  
 K. Brandhorst,  S. T. Brown,  E. F. C. Byrd,  Arup K. Chakraborty,  
 G. K. L. Chan,  Chun-Min Chang,  Yunqing Chen,  C.-L. Cheng,  
 Siu Hung Chien,  D. M. Chipman,  D. L. Crittenden,  H. Dachsel,  
 R. J. Doerksen,  A. D. Dutoi,  R. G. Edgar,  J. Fosso-Tande,  
 L. Fusti-Molnar,  D. Ghosh,  A. Ghysels,  A. Golubeva-Zadorozhnaya,  
 J. Gonthier,  M. S. Gordon,  S. R. Gwaltney,  G. Hawkins,  J. E. Herr,  
 A. Heyden,  S. Hirata,  E. G. Hohenstein,  G. Kedziora,  F. J. Keil,  
 C. Kelley,  Jihan Kim,  R. A. King,  R. Z. Khaliullin,  P. P. Korambath,  
 W. Kurlancheek,  A. Laurent,  A. M. Lee,  M. S. Lee,  S. V. Levchenko,  
 Ching Yeh Lin,  D. Liotard,  E. Livshits,  R. C. Lochan,  I. Lotan,  
 L. A. Martinez-Martinez,  P. E. Maslen,  N. Nair,  D. P. O'Neill,  
 D. Neuhauser,  E. Neuscamman,  C. M. Oana,  R. Olivares-Amaya,  R. Olson,  
 T. M. Perrine,  B. Peters,  P. A. Pieniazek,  A. Prociuk,  Y. M. Rhee,  
 J. Ritchie,  M. A. Rohrdanz,  E. Rosta,  N. J. Russ,  H. F. Schaefer III,  
 M. W. Schmidt,  N. E. Schultz,  S. Sharma,  N. Shenvi,  C. D. Sherrill,  
 A. C. Simmonett,  A. Sodt,  T. Stein,  D. Stuck,  K. S. Thanthiriwatte,  
 V. Vanovschi,  L. Vogt,  Tao Wang,  A. Warshel,  M. A. Watson,  
 C. F. Williams,  Q. Wu,  X. Xu,  Jun Yang,  W. Zhang,  Yan Zhao

   Please cite Q-Chem as follows:
  "Software for the frontiers of quantum chemistry:
   An overview of developments in the Q-Chem 5 package"
   J. Chem. Phys. 155, 084801 (2021)
   https://doi.org/10.1063/5.0055522 (open access)

 Q-Chem 6.0.1 for Intel X86 EM64T Linux

 Parts of Q-Chem use Armadillo 9.900.5 (Nocturnal Misbehaviour).
 http://arma.sourceforge.net/

 Q-Chem begins on Tue Nov 14 15:42:28 2023  

 Host: atlas-113
0

     Scratch files written to ./qchem167760//
 Processing $rem in /scratch/abel/SOFTWARE/qchem/config/preferences:
 Processing $rem in /dipc/acebg/.qchemrc:

 Checking the input file for inconsistencies... 	...done.

--------------------------------------------------------------
User input:
--------------------------------------------------------------
$comment
 RAS-SF CALCULATION
$end

$molecule
 READ benzophenone.molecule
$end

$rem
!**CALCULATION TYPE***     
JOBTYPE            sp    
EXCHANGE           HF
CORRELATION        RASCI    !RASCI=Casanova; RASCI2=Zimmerman
BASIS              def2-TZVP
BASIS2             STO-3G

!***SCF REFERENCE***
INPUT_BOHR          TRUE
!SKIP_SCFMAN        FALSE
UNRESTRICTED       FALSE
!SCF_GUESS          core
!SCF_GUESS_MIX      FALSE
!SCF_GUESS_ALWAYS   FALSE
MAX_SCF_CYCLES     999
!SCF_CONVERGENCE    8
SCF_ALGORITHM      DIIS_GDM !DIIS,DM,DIIS_DM,GDM,DIIS_GDM,GD

!SYMMETRY           TRUE   !use of symmetry for calculating integrals
!SYM_IGNORE         FALSE  !turn off using symmetry
!SYM_TOL            5      !tolerance for determining point group
!USE_ABELIAN_SUBGROUP      !define to use abelian group

!THRESH             14
SCF_FINAL_PRINT     1 !0,1,2,3

!****RAS-SF****
RAS_ROOTS          50       !number of RAS-CI roots to be computed
SET_ITER           150     !number of iterations in RASCI
RAS_ELEC           4       !number of electrons in RAS2
!RAS_ELEC_ALPHA     3       !spin-α electrons in RAS2 
!RAS_ELEC_BETA      1       !spin-β electrons in RAS2

RAS_ACT            4      !number of orbitals in RAS2 
RAS_ACT_ORB  [47, 48, 49, 50]  !user-selected RAS2 orbitals
RAS_OCC            46       !number of orbitals in RAS1
!N_FROZEN_CORE      23     !Number of frozen core orbitals
!N_FROZEN_VIRTUAL   422      !Number of frozen virtual orbitals

RAS_DO_HOLE        TRUE   !presence of hole excitations in RAS-CI wave function
RAS_DO_PART        TRUE   !presence of particle excitations
!RAS_AMPL_PRINT     10     !threshold (×10 2 ) for the CI amplitudes

!RAS_GUESS_CS       0      !number of closed shell guess conﬁgurations
RAS_SPIN_MULT       0      !spin multiplicity. Only for Ms = 0 
!RAS_SRDFT          FALSE  !short-range density functional RAS-CI
!RAS_NFRAG          0     !fragments of excitation analysis in RASCI

RAS_PRINT          2      !level of information
RAS_NATORB         TRUE   !computation of the natural orbital occupancies
!RAS_NATORB_STATE  0      !Saves NO of i RAS computed state in .fchk ﬁle
!RAS_FOD            TRUE

!****RAS-SOC****
CALC_SOC           TRUE   !calculate SOC for EOM-CC, RAS-CI, ADC, TDDFT/TDA and TDDFT
!RAS_SOC_2E        TRUE   !two-electron mean-ﬁeld contribution, default=true
RAS_SOC_SYM_DENS   TRUE   !averaging of α and β densities

!****MEMORY****
MEM_TOTAL          68000 !Default 2000 MB
MEM_STATIC         20000  !Default 64 MB

!**Molecular Properties and Analysis **                                                                                          
POP_MULLIKEN       TRUE   !Run Mulliken population analysis
LOWDIN_POPULATION  TRUE   !Run Löwdin population analysis
GUI                2       !Checkpoints generation
STATE_ANALYSIS     TRUE

!**Wave function analysis of RAS-CI states: MOLDEN**
!PLOTS = 0     ! Note: This can be omitted, default is 0
!NTO_PAIRS = 2 ! Note: This can be omitted, default is 2
!GUI 0
!MOLDEN_FORMAT      TRUE
!PRINT_ORBITALS     15

!**Wave function analysis of RAS-CI state: CUBE**
!NTO_PAIRS = 2 ! Note: This can be omitted, default is 2
!PLOTS = 1
!GUI 0

!**SR-DFT**
!RAS_SRDFT           TRUE !Perform short-range density functional RAS-CI
!RAS_SRDFT_EXC       0 !EX functional. 0=HF. 
!RAS_SRDFT_ONLY_COR  TRUE !No use of EXC functional
!RAS_SRDFT_COR       srPBE !short-range correlation functional
!ras_srdft_0         TRUE !true: no iteration (one-shot); false: iteration
!RAS_OMEGA           400 !Coulomb range-separation parameter. def=400
!RAS_SRDFT_DAMP     0.5 !dumping factor. def=0.5
$end

!$plots
!   grid_points 100 100 100
!   grid_range  (-10,10) (-10,10) (-10,10)
!$end

--------------------------------------------------------------
 ----------------------------------------------------------------
             Standard Nuclear Orientation (Bohr)
    I     Atom           X                Y                Z
 ----------------------------------------------------------------
    1      C       0.0000000000    -0.0000000000     1.7616000772
    2      O       0.0000000000    -0.0000000000     4.2626453788
    3      C      -2.4515146503    -0.0331342717     0.5854026033
    4      C       2.4515146503     0.0331342717     0.5854026033
    5      C       2.8430013288     1.0880866231    -1.8463666677
    6      C       4.5970400963    -0.8671930082     1.9264083375
    7      C       6.9748613791    -0.7928839619     0.8403562343
    8      C       5.2262074578     1.1225172668    -2.9109015756
    9      C       7.3157580598     0.1834271136    -1.5850434514
   10      H       1.2649900922     1.9042492020    -2.8578536668
   11      H       4.3392930822    -1.6659511958     3.7896568207
   12      H       5.4817259580     1.9198549006    -4.7799236178
   13      H       8.5807201718    -1.5192143035     1.8831820792
   14      H       9.1788078092     0.2325165625    -2.4295762444
   15      C      -2.8430013288    -1.0880866231    -1.8463666677
   16      C      -4.5970400963     0.8671930082     1.9264083375
   17      C      -5.2262074578    -1.1225172668    -2.9109015756
   18      C      -6.9748613791     0.7928839619     0.8403562343
   19      C      -7.3157580598    -0.1834271136    -1.5850434514
   20      H      -1.2649900922    -1.9042492020    -2.8578536668
   21      H      -5.4817259580    -1.9198549006    -4.7799236178
   22      H      -4.3392930822     1.6659511958     3.7896568207
   23      H      -8.5807201718     1.5192143035     1.8831820792
   24      H      -9.1788078092    -0.2325165625    -2.4295762444
 ----------------------------------------------------------------
 Molecular Point Group                 C2    NOp =  2
 Largest Abelian Subgroup              C2    NOp =  2
 Nuclear Repulsion Energy =         772.43069410 hartrees
 There are       49 alpha and       47 beta electrons
 Requested basis set is def2-TZVP
 There are 194 shells and 494 basis functions

 Q-Chem warning in module libmdc/get_mega.C, line 167:

 Allowed MEM_STATIC has been capped at MEM_STATIC=8191.
 Reduce the value of MEM_STATIC to silence this warning.


 Total QAlloc Memory Limit  68000 MB
 Mega-Array Size      8007 MB
 MEM_STATIC part      8191 MB

 A cutoff of  1.0D-09 yielded  13678 shell pairs
 There are     87354 function pairs (    112510 Cartesian)
 Smallest overlap matrix eigenvalue = 8.18E-06

 Q-Chem warning in module stvman/mkSTV.C, line 313:

 Overlap eigenvalue is smaller than square root of threshold
 Use THRESH >= 12 to get rid of this warning


 Scale SEOQF with 1.000000e-01/1.000000e+00/1.000000e-01

 Standard Electronic Orientation quadrupole field applied
 Nucleus-field energy     =     0.0000000231 hartrees
 Requested basis set is STO-3G
 There are 38 shells and 80 basis functions
 A cutoff of  1.0D-09 yielded    531 shell pairs
 There are      2742 function pairs
 Smallest overlap matrix eigenvalue = 1.73E-01
 Constructing guess Fock matrix from core Hamiltonian
 Applying Wolfsberg-Helmholtz approximation
 A restricted Hartree-Fock SCF calculation will be
 performed using Geometric Direct Minimization
 SCF converges when RMS gradient is below 1.0E-04
 ---------------------------------------
  Cycle       Energy        RMS Gradient
 ---------------------------------------
    1    -563.5189813627      3.78E-01 Descent step
    2    -564.1073352384      2.94E-01 Descent step
    3    -564.5762614188      2.35E-01 Descent step
    4    -564.9424222796      3.10E-01 Descent step
    5    -565.2385720744      4.42E-01 Descent step
    6    -565.5186594576      2.72E-01 Descent step
    7    -565.7068111177      1.77E-01 Descent step
    8    -565.8063347325      7.75E-02 Dog-leg BFGS step
    9    -565.8197166914      7.27E-02 Normal BFGS step
   10    -565.8079560722      8.11E-02 Line search: overstep
   11    -565.8300208096      4.05E-02 Descent step
   12    -565.8348600491      3.54E-02 Normal BFGS step
   13    -565.8355378695      1.28E-02 Normal BFGS step
   14    -565.8358576558      4.09E-03 Normal BFGS step
   15    -565.8359171123      2.92E-03 Normal BFGS step
   16    -565.8359561849      1.86E-03 Normal BFGS step
   17    -565.8359781573      1.30E-03 Normal BFGS step
   18    -565.8359889881      1.08E-03 Normal BFGS step
   19    -565.8359931603      7.13E-04 Normal BFGS step
   20    -565.8359947151      3.36E-04 Normal BFGS step
   21    -565.8359951645      1.96E-04 Normal BFGS step
   22    -565.8359952311      9.64E-05 Convergence criterion met
 ---------------------------------------
 One-Electron    Energy = -2305.4763240232
 Total Coulomb   Energy =  1046.6215714433
 Alpha Exchange  Energy =   -40.3563193634
 Beta  Exchange  Energy =   -39.0556174122
 DFT   Exchange  Energy =     0.0000000000
 DFT Correlation Energy =     0.0000000000
 Nuclear Repu.   Energy =   772.4306941244
 Nuclear Attr.   Energy = -2866.5234544087
 Kinetic         Energy =   561.0471303854
 SCF time:  CPU 2.69 s  wall 4.22 s
 SCF   energy in the small basis set = -565.83599523
 Total energy in the small basis set = -565.83599523
 ----------------------------------------------------
  Cycle       Energy    
 ----------------------------------------------------
    1     -71.5185056489     -7.15E+01
 A restricted Hartree-Fock SCF calculation will be
 performed using Geometric Direct Minimization
 SCF converges when RMS gradient is below 1.0E-05
 ---------------------------------------
  Cycle       Energy        RMS Gradient
 ---------------------------------------
    1    -572.8384162148      4.89E-01 Descent step
    2    -572.8764802812      3.47E-01 Descent step
    3    -573.0028633520      9.82E-02 Descent step
    4    -573.0646717880      1.32E-01 Normal BFGS step
    5    -573.0781860123      1.34E-01 Normal BFGS step
    6    -573.0794718724      1.07E-01 Normal BFGS step
    7    -573.0875361402      3.49E-02 Normal BFGS step
    8    -573.0895883328      2.03E-02 Normal BFGS step
    9    -573.0904120621      1.26E-02 Normal BFGS step
   10    -573.0913895967      1.03E-02 Normal BFGS step
   11    -573.0918054956      7.53E-03 Normal BFGS step
   12    -573.0920914255      3.74E-03 Normal BFGS step
   13    -573.0921412321      1.92E-03 Normal BFGS step
   14    -573.0921486914      9.60E-04 Normal BFGS step
   15    -573.0921498064      3.98E-04 Normal BFGS step
   16    -573.0921492016      3.61E-05 Line search: overstep
   17    -573.0921499934      2.66E-04 Normal BFGS step
   18    -573.0921493321      2.49E-05 Line search: overstep
   19    -573.0921501081      1.94E-04 Normal BFGS step
   20    -573.0921493493      1.95E-05 Line search: overstep
   21    -573.0921501020      6.35E-05 Line search: overstep
   22    -573.0921511756      6.75E-05 Line search: understep
   23    -573.0921501963      1.64E-04 Normal BFGS step
   24    -573.0921495614      6.61E-05 Line search: overstep
   25    -573.0921502007      1.34E-04 Normal BFGS step
   26    -573.0921496268      1.61E-05 Line search: overstep
   27    -573.0921502144      1.17E-04 Normal BFGS step
   28    -573.0921495319      1.78E-05 Line search: overstep
   29    -573.0921502554      1.04E-04 Normal BFGS step
   30    -573.0921502299      5.78E-05 Line search: overstep
   31    -573.0921507408      5.88E-05 Normal BFGS step
   32    -573.0921509999      1.64E-05 Normal BFGS step
   33    -573.0921495139      6.51E-06 Convergence criterion met
 ---------------------------------------
 One-Electron    Energy = -2309.5737999987
 Total Coulomb   Energy =  1043.3490984323
 Alpha Exchange  Energy =   -40.2366623579
 Beta  Exchange  Energy =   -39.0614797141
 DFT   Exchange  Energy =     0.0000000000
 DFT Correlation Energy =     0.0000000000
 Nuclear Repu.   Energy =   772.4306941244
 Nuclear Attr.   Energy = -2882.1129269061
 Kinetic         Energy =   572.5391269075
 SCF time:  CPU 2141.64 s  wall 2153.18 s
 SCF   energy in the final basis set = -573.09214951
 Total energy in the final basis set = -573.09214951
  
     ##========================================##
     ||                                        ||
     ||              R A S M A N 2             ||
     ||________________________________________||
     ||                                        ||
     ||  Author:                               ||
     ||                                        ||
     ||        David Casanova (2010)           ||
     ||                                        ||
     ##========================================##
  
Setting single-point xc-functionals (if necessary)

  ***************************************************
  *  RAS-CI Dimensions:                             *
  *                                                 *
  *  Active Elec.:   4 ( 2, 2)   Active Orb.:   4   *
  *  Doubly Occ. :  46           Doubly Vir.: 444   *
  *  Frozen Occ. :   0           Frozen Vir.:   0   *
  *                                                 *
  *  Total CI configurations:     23556             * 
  *    Active configurations:        36             * 
  *      Hole configurations:      2208             * 
  *  Particle configurations:     21312             * 
  *                                                 *
  *   Requested states:       50                    *
  *  Spin multiplicity: Any multiplicity            *
  *                                                 *
  ***************************************************
-----------------------------------------
    Memory requirements of RASCI

 Each CI-vector requires      0.18 MiB 
 Max. subspace vectors           7500      

 Reduced Lists                0.00 MiB 
 Excitation Lists             0.00 MiB 
 Excitation Lists Sign        0.00 MiB 
 CI-space (Max)            1786.08 MiB 
 Integrals                   67.57 MiB 
 Memory required (Max)     1786.08 MiB 
 Memory available          7811.55 MiB 

    Disk requirements of RASCI

 Fock matrix                  3.72 MiB 
 2-electron integrals       102.76 MiB 
 CI-space                  2695.77 MiB 
 Disk required             2802.25 MiB 
-----------------------------------------
  
RAS1 HF-like energy:           -570.2558338683
 Computing integrals
 Computing J and K matrices
 Computing addressing
 Making amplitude guesses
 
Direct CI diagonalization
 ---------------------------------------------------
 Iter    Rts Conv    Rts Left    Ttl Dev     Max Dev
 ---------------------------------------------------
   1         0          50      0.045805    0.002875
   2         0          50      0.041855    0.002385
   3         0          50      0.040704    0.001827
   4         0          50      0.039886    0.001491
   5         0          50      0.041587    0.002188
   6         0          50      0.036890    0.001444
   7         0          50      0.032256    0.001404
   8         0          50      0.028364    0.001290
   9         2          48      0.022764    0.001112
  10         2          48      0.017355    0.000916
  11         2          48      0.013316    0.000966
  12         3          47      0.009706    0.000807
  13         3          47      0.009021    0.000909
  14         4          46      0.005709    0.000656
  15         5          45      0.004209    0.000414
  16         6          44      0.002991    0.000423
  17        11          39      0.002466    0.000398
  18        14          36      0.002262    0.000585
  19        18          32      0.001623    0.000419
  20        25          25      0.001138    0.000309
  21        25          25      0.000764    0.000233
  22        27          23      0.000511    0.000163
  23        32          18      0.000324    0.000105
  24        35          15      0.000198    0.000059
  25        37          13      0.000122    0.000036
  26        41           9      0.000074    0.000021
  27        42           8      0.000046    0.000013
  28        44           6      0.000032    0.000008
  29        47           3      0.000024    0.000005
  30        48           2      0.000020    0.000003
  31        49           1      0.000018    0.000001
  32        50           0      0.000017    0.000001    Roots Converged
 ---------------------------------------------------
   
**************************************************
 RAS-CI total energy for state   1:   -573.181022837726
  Excitation energy (eV) =  0.000000000000
 Warning : Irrep of orbital( 140) could not be determined
 Warning : Irrep of orbital( 141) could not be determined
 Warning : Irrep of orbital( 140) could not be determined
 Warning : Irrep of orbital( 141) could not be determined
  State symmetry: A     (C2       )
  <S^2>      :  0.0000
  Dipole Moment:   -0.0000 X    -0.0000 Y     1.1441 Z
 NATURAL OCCUPATION NUMBERS (higher than 1.0E-05)
            1           2           3           4           5           6
    1   2.0000000   2.0000000   2.0000000   2.0000000   2.0000000   2.0000000
            7           8           9          10          11          12
    1   2.0000000   2.0000000   2.0000000   2.0000000   2.0000000   2.0000000
           13          14          15          16          17          18
    1   2.0000000   2.0000000   2.0000000   2.0000000   2.0000000   2.0000000
           19          20          21          22          23          24
    1   2.0000000   2.0000000   2.0000000   2.0000000   2.0000000   2.0000000
           25          26          27          28          29          30
    1   2.0000000   2.0000000   2.0000000   2.0000000   2.0000000   2.0000000
           31          32          33          34          35          36
    1   2.0000000   2.0000000   2.0000000   2.0000000   1.9999998   1.9999994
           37          38          39          40          41          42
    1   1.9999988   1.9999963   1.9999945   1.9999862   1.9999754   1.9999739
           43          44          45          46          47          48
    1   1.9999449   1.9996451   1.9983233   1.9887597   1.9871711   1.9412802
           49          50          51          52          53          54
    1   0.0631445   0.0112018   0.0090941   0.0005362   0.0003521   0.0001843
           55          56          57          58          59
    1   0.0001825   0.0001572   0.0000521   0.0000265   0.0000118

 Head-Gordon Nu:    0.17
 Head-Gordon Nu_nl: 0.03

  Amplitudes : 
  
 | HOLE  | ALPHA | BETA  | PART  |    AMPLITUDE 
--------------------------------------------------
 |       | 1100  | 1100  |       |     8.1973785238947E-01
 |  31   | 1110  | 1100  |       |     1.3275473561305E-01
 |  31   | 1100  | 1110  |       |     1.3275473561305E-01
 |  34   | 1110  | 1100  |       |    -1.9382006169356E-01
 |  34   | 1100  | 1110  |       |    -1.9382006169356E-01
 |  37   | 1110  | 1100  |       |    -2.4769630356334E-01
 |  37   | 1100  | 1110  |       |    -2.4769630356334E-01
 |  41   | 1110  | 1100  |       |    -1.1503875191431E-01
 |  41   | 1100  | 1110  |       |    -1.1503875191431E-01
--------------------------------------------------
*** Contributions RASCI wfn    Active:  67.93
                                 Hole:  28.85
                                 Part:   3.22

      Mulliken population analysis 
 ---------------------------------------------------
   Atom    Charge (a.u.)   Spin (a.u.)  
 ---------------------------------------------------
   1  C    0.347867       -0.000000 
   2  O   -0.387001        0.000000 
   3  C    0.196915        0.000000 
   4  C    0.197186       -0.000000 
   5  C   -0.323974       -0.000000 
   6  C   -0.214346        0.000000 
   7  C   -0.098627       -0.000000 
   8  C   -0.081085       -0.000000 
   9  C   -0.134228       -0.000000 
  10  H    0.154069       -0.000000 
  11  H    0.139177        0.000000 
  12  H    0.127153       -0.000000 
  13  H    0.126473       -0.000000 
  14  H    0.127782       -0.000000 
  15  C   -0.323791       -0.000000 
  16  C   -0.214137       -0.000000 
  17  C   -0.081298        0.000000 
  18  C   -0.098770        0.000000 
  19  C   -0.134033       -0.000000 
  20  H    0.154083        0.000000 
  21  H    0.127148       -0.000000 
  22  H    0.139173       -0.000000 
  23  H    0.126471        0.000000 
  24  H    0.127794        0.000000 
 ---------------------------------------------------
   Sum:    0.000000       -0.000000 
 ---------------------------------------------------
 
  
 NATURAL OCCUPATION NUMBERS (higher than 1.0E-05)
            1           2           3           4           5           6
    1   2.0000000   2.0000000   2.0000000   2.0000000   2.0000000   2.0000000
            7           8           9          10          11          12
    1   2.0000000   2.0000000   2.0000000   2.0000000   2.0000000   2.0000000
           13          14          15          16          17          18
    1   2.0000000   2.0000000   2.0000000   2.0000000   2.0000000   2.0000000
           19          20          21          22          23          24
    1   2.0000000   2.0000000   2.0000000   2.0000000   2.0000000   2.0000000
           25          26          27          28          29          30
    1   2.0000000   2.0000000   2.0000000   2.0000000   2.0000000   2.0000000
           31          32          33          34          35          36
    1   2.0000000   2.0000000   2.0000000   2.0000000   1.9999998   1.9999994
           37          38          39          40          41          42
    1   1.9999988   1.9999963   1.9999945   1.9999862   1.9999754   1.9999739
           43          44          45          46          47          48
    1   1.9999449   1.9996451   1.9983233   1.9887597   1.9871711   1.9412802
           49          50          51          52          53          54
    1   0.0631445   0.0112018   0.0090941   0.0005362   0.0003521   0.0001843
           55          56          57          58          59
    1   0.0001825   0.0001572   0.0000521   0.0000265   0.0000118
  
*** Unpaired Electrons
 Yamaguchi Nd:         0.33
 Head-Gordon Nu:       0.17
 Head-Gordon Nu_nl:    0.03
  
**************************************************
 RAS-CI total energy for state   2:   -573.099437081553
  Excitation energy (eV) =  2.220061378685
  State symmetry: A     (C2       )
  <S^2>      :  2.0000
  Dipole Moment:   -0.0000 X     0.0000 Y     0.4897 Z
  Trans. Moment:   -0.0000 X     0.0000 Y     0.0000 Z
  Strength   :  0.000000
  Natural transition orbitals ( 1 -> 2 ):
   e-/hole pair  1:  ampl =  0.909392 ( 82.7%)   [4 : 5]
   e-/hole pair  2:  ampl =  0.069764 (  0.5%)   [3 : 6]
   Sum of square amplitudes: 0.83

 NATURAL OCCUPATION NUMBERS (higher than 1.0E-05)
            1           2           3           4           5           6
    1   2.0000000   2.0000000   2.0000000   2.0000000   2.0000000   2.0000000
            7           8           9          10          11          12
    1   2.0000000   2.0000000   2.0000000   2.0000000   2.0000000   2.0000000
           13          14          15          16          17          18
    1   2.0000000   2.0000000   2.0000000   2.0000000   2.0000000   2.0000000
           19          20          21          22          23          24
    1   2.0000000   2.0000000   2.0000000   2.0000000   2.0000000   2.0000000
           25          26          27          28          29          30
    1   2.0000000   2.0000000   2.0000000   2.0000000   2.0000000   2.0000000
           31          32          33          34          35          36
    1   2.0000000   1.9999999   1.9999999   1.9999998   1.9999994   1.9999986
           37          38          39          40          41          42
    1   1.9999981   1.9999927   1.9999866   1.9999822   1.9999749   1.9999074
           43          44          45          46          47          48
    1   1.9998969   1.9998615   1.9998473   1.9978232   1.9823598   1.0008092
           49          50          51          52          53          54
    1   0.9992079   0.0169089   0.0023789   0.0004660   0.0002594   0.0001571
           55          56          57          58
    1   0.0000541   0.0000468   0.0000381   0.0000213

 Head-Gordon Nu:    2.04
 Head-Gordon Nu_nl: 2.00

  Amplitudes : 
  
 | HOLE  | ALPHA | BETA  | PART  |    AMPLITUDE 
--------------------------------------------------
 |       | 1100  | 1010  |       |    -7.0215487023898E-01
 |       | 1010  | 1100  |       |     7.0215487023862E-01
--------------------------------------------------
*** Contributions RASCI wfn    Active:  99.20
                                 Hole:   0.33
                                 Part:   0.46

      Mulliken population analysis 
 ---------------------------------------------------
   Atom    Charge (a.u.)   Spin (a.u.)  
 ---------------------------------------------------
   1  C    0.288092       -0.000000 
   2  O   -0.222784        0.000000 
   3  C    0.180778       -0.000000 
   4  C    0.181047       -0.000000 
   5  C   -0.333492       -0.000000 
   6  C   -0.229415       -0.000000 
   7  C   -0.107201       -0.000000 
   8  C   -0.077975       -0.000000 
   9  C   -0.144479       -0.000000 
  10  H    0.154168       -0.000000 
  11  H    0.143250        0.000000 
  12  H    0.127312       -0.000000 
  13  H    0.126427        0.000000 
  14  H    0.127716       -0.000000 
  15  C   -0.333310       -0.000000 
  16  C   -0.229208       -0.000000 
  17  C   -0.078188       -0.000000 
  18  C   -0.107343        0.000000 
  19  C   -0.144284       -0.000000 
  20  H    0.154182       -0.000000 
  21  H    0.127307       -0.000000 
  22  H    0.143248        0.000000 
  23  H    0.126425        0.000000 
  24  H    0.127728       -0.000000 
 ---------------------------------------------------
   Sum:    0.000000        0.000000 
 ---------------------------------------------------
 
  
 NATURAL OCCUPATION NUMBERS (higher than 1.0E-05)
            1           2           3           4           5           6
    1   2.0000000   2.0000000   2.0000000   2.0000000   2.0000000   2.0000000
            7           8           9          10          11          12
    1   2.0000000   2.0000000   2.0000000   2.0000000   2.0000000   2.0000000
           13          14          15          16          17          18
    1   2.0000000   2.0000000   2.0000000   2.0000000   2.0000000   2.0000000
           19          20          21          22          23          24
    1   2.0000000   2.0000000   2.0000000   2.0000000   2.0000000   2.0000000
           25          26          27          28          29          30
    1   2.0000000   2.0000000   2.0000000   2.0000000   2.0000000   2.0000000
           31          32          33          34          35          36
    1   2.0000000   1.9999999   1.9999999   1.9999998   1.9999994   1.9999986
           37          38          39          40          41          42
    1   1.9999981   1.9999927   1.9999866   1.9999822   1.9999749   1.9999074
           43          44          45          46          47          48
    1   1.9998969   1.9998615   1.9998473   1.9978232   1.9823598   1.0008092
           49          50          51          52          53          54
    1   0.9992079   0.0169089   0.0023789   0.0004660   0.0002594   0.0001571
           55          56          57          58
    1   0.0000541   0.0000468   0.0000381   0.0000213
  
*** Unpaired Electrons
 Yamaguchi Nd:         2.08
 Head-Gordon Nu:       2.04
 Head-Gordon Nu_nl:    2.00
  
**************************************************
 RAS-CI total energy for state   3:   -573.091674461252
  Excitation energy (eV) =  2.431293024205
  State symmetry: A     (C2       )
  <S^2>      :  0.0000
  Dipole Moment:   -0.0000 X     0.0000 Y     0.5427 Z
  Trans. Moment:    0.0000 X    -0.0000 Y    -0.0878 Z
  Strength   :  0.000459
  Natural transition orbitals ( 1 -> 3 ):
   e-/hole pair  1:  ampl =  0.889026 ( 79.0%)   [4 : 5]
   e-/hole pair  2:  ampl =  0.054500 (  0.3%)   [3 : 6]
   Sum of square amplitudes: 0.79

 NATURAL OCCUPATION NUMBERS (higher than 1.0E-05)
            1           2           3           4           5           6
    1   2.0000000   2.0000000   2.0000000   2.0000000   2.0000000   2.0000000
            7           8           9          10          11          12
    1   2.0000000   2.0000000   2.0000000   2.0000000   2.0000000   2.0000000
           13          14          15          16          17          18
    1   2.0000000   2.0000000   2.0000000   2.0000000   2.0000000   2.0000000
           19          20          21          22          23          24
    1   2.0000000   2.0000000   2.0000000   2.0000000   2.0000000   2.0000000
           25          26          27          28          29          30
    1   2.0000000   2.0000000   2.0000000   2.0000000   2.0000000   2.0000000
           31          32          33          34          35          36
    1   2.0000000   1.9999999   1.9999999   1.9999995   1.9999991   1.9999991
           37          38          39          40          41          42
    1   1.9999952   1.9999864   1.9999766   1.9999766   1.9999440   1.9999414
           43          44          45          46          47          48
    1   1.9998951   1.9998210   1.9996866   1.9977961   1.9819514   1.0503071
           49          50          51          52          53          54
    1   0.9500495   0.0171830   0.0023891   0.0004770   0.0002678   0.0001593
           55          56          57          58          59
    1   0.0000587   0.0000473   0.0000389   0.0000241   0.0000131

 Head-Gordon Nu:    1.94
 Head-Gordon Nu_nl: 1.99

  Amplitudes : 
  
 | HOLE  | ALPHA | BETA  | PART  |    AMPLITUDE 
--------------------------------------------------
 |       | 1100  | 1010  |       |     6.9516254915772E-01
 |       | 1010  | 1100  |       |     6.9516254915807E-01
--------------------------------------------------
*** Contributions RASCI wfn    Active:  97.48
                                 Hole:   1.95
                                 Part:   0.57

      Mulliken population analysis 
 ---------------------------------------------------
   Atom    Charge (a.u.)   Spin (a.u.)  
 ---------------------------------------------------
   1  C    0.317908        0.000000 
   2  O   -0.242785       -0.000000 
   3  C    0.171554        0.000000 
   4  C    0.171823        0.000000 
   5  C   -0.331789        0.000000 
   6  C   -0.228195        0.000000 
   7  C   -0.107113        0.000000 
   8  C   -0.078243       -0.000000 
   9  C   -0.143467        0.000000 
  10  H    0.154215        0.000000 
  11  H    0.143758       -0.000000 
  12  H    0.127305        0.000000 
  13  H    0.126433       -0.000000 
  14  H    0.127722        0.000000 
  15  C   -0.331607        0.000000 
  16  C   -0.227989        0.000000 
  17  C   -0.078456       -0.000000 
  18  C   -0.107256        0.000000 
  19  C   -0.143271        0.000000 
  20  H    0.154230       -0.000000 
  21  H    0.127300       -0.000000 
  22  H    0.143756       -0.000000 
  23  H    0.126431       -0.000000 
  24  H    0.127734        0.000000 
 ---------------------------------------------------
   Sum:    0.000000       -0.000000 
 ---------------------------------------------------
 
  
 NATURAL OCCUPATION NUMBERS (higher than 1.0E-05)
            1           2           3           4           5           6
    1   2.0000000   2.0000000   2.0000000   2.0000000   2.0000000   2.0000000
            7           8           9          10          11          12
    1   2.0000000   2.0000000   2.0000000   2.0000000   2.0000000   2.0000000
           13          14          15          16          17          18
    1   2.0000000   2.0000000   2.0000000   2.0000000   2.0000000   2.0000000
           19          20          21          22          23          24
    1   2.0000000   2.0000000   2.0000000   2.0000000   2.0000000   2.0000000
           25          26          27          28          29          30
    1   2.0000000   2.0000000   2.0000000   2.0000000   2.0000000   2.0000000
           31          32          33          34          35          36
    1   2.0000000   1.9999999   1.9999999   1.9999995   1.9999991   1.9999991
           37          38          39          40          41          42
    1   1.9999952   1.9999864   1.9999766   1.9999766   1.9999440   1.9999414
           43          44          45          46          47          48
    1   1.9998951   1.9998210   1.9996866   1.9977961   1.9819514   1.0503071
           49          50          51          52          53          54
    1   0.9500495   0.0171830   0.0023891   0.0004770   0.0002678   0.0001593
           55          56          57          58          59
    1   0.0000587   0.0000473   0.0000389   0.0000241   0.0000131
  
*** Unpaired Electrons
 Yamaguchi Nd:         2.08
 Head-Gordon Nu:       1.94
 Head-Gordon Nu_nl:    1.99
  
**************************************************
 RAS-CI total energy for state   4:   -573.053051126292
  Excitation energy (eV) =  3.482287441391
  State symmetry: A     (C2       )
  <S^2>      :  2.0000
  Dipole Moment:   -0.0000 X    -0.0000 Y     0.7073 Z
  Trans. Moment:    0.0000 X    -0.0000 Y     0.0000 Z
  Strength   :  0.000000
  Natural transition orbitals ( 1 -> 4 ):
   e-/hole pair  1:  ampl =  0.962003 ( 92.5%)   [4 : 5]
   e-/hole pair  2:  ampl =  0.149832 (  2.2%)   [3 : 6]
   Sum of square amplitudes: 0.95

 NATURAL OCCUPATION NUMBERS (higher than 1.0E-05)
            1           2           3           4           5           6
    1   2.0000000   2.0000000   2.0000000   2.0000000   2.0000000   2.0000000
            7           8           9          10          11          12
    1   2.0000000   2.0000000   2.0000000   2.0000000   2.0000000   2.0000000
           13          14          15          16          17          18
    1   2.0000000   2.0000000   2.0000000   2.0000000   2.0000000   2.0000000
           19          20          21          22          23          24
    1   2.0000000   2.0000000   2.0000000   2.0000000   2.0000000   2.0000000
           25          26          27          28          29          30
    1   2.0000000   2.0000000   2.0000000   2.0000000   2.0000000   2.0000000
           31          32          33          34          35          36
    1   2.0000000   2.0000000   2.0000000   2.0000000   1.9999999   1.9999999
           37          38          39          40          41          42
    1   1.9999990   1.9999984   1.9999974   1.9999959   1.9999954   1.9999916
           43          44          45          46          47          48
    1   1.9999541   1.9999499   1.9996653   1.9986781   1.9852868   1.0065167
           49          50          51          52          53          54
    1   0.9945974   0.0144734   0.0004207   0.0002000   0.0001417   0.0000444
           55          56          57
    1   0.0000422   0.0000358   0.0000102

 Head-Gordon Nu:    2.02
 Head-Gordon Nu_nl: 2.00

  Amplitudes : 
  
 | HOLE  | ALPHA | BETA  | PART  |    AMPLITUDE 
--------------------------------------------------
 |  31   | 1110  | 1100  |       |    -2.2389310491468E-01
 |  31   | 1100  | 1110  |       |     2.2389310491468E-01
 |  34   | 1110  | 1100  |       |     3.3828527428384E-01
 |  34   | 1100  | 1110  |       |    -3.3828527428384E-01
 |  37   | 1110  | 1100  |       |     4.3837870711494E-01
 |  37   | 1100  | 1110  |       |    -4.3837870711494E-01
 |  41   | 1110  | 1100  |       |     2.3676113152465E-01
 |  41   | 1100  | 1110  |       |    -2.3676113152465E-01
 |  44   | 1110  | 1100  |       |     2.5972838104186E-01
 |  44   | 1100  | 1110  |       |    -2.5972838104186E-01
--------------------------------------------------
*** Contributions RASCI wfn    Active:   0.38
                                 Hole:  99.53
                                 Part:   0.09

      Mulliken population analysis 
 ---------------------------------------------------
   Atom    Charge (a.u.)   Spin (a.u.)  
 ---------------------------------------------------
   1  C    0.352718        0.000000 
   2  O   -0.300048       -0.000000 
   3  C    0.174312       -0.000000 
   4  C    0.174585        0.000000 
   5  C   -0.328236       -0.000000 
   6  C   -0.226195        0.000000 
   7  C   -0.104955        0.000000 
   8  C   -0.077526        0.000000 
   9  C   -0.143631        0.000000 
  10  H    0.154268       -0.000000 
  11  H    0.143958       -0.000000 
  12  H    0.127268       -0.000000 
  13  H    0.126417        0.000000 
  14  H    0.127724       -0.000000 
  15  C   -0.328053        0.000000 
  16  C   -0.225986       -0.000000 
  17  C   -0.077740        0.000000 
  18  C   -0.105097       -0.000000 
  19  C   -0.143435       -0.000000 
  20  H    0.154282        0.000000 
  21  H    0.127263       -0.000000 
  22  H    0.143955       -0.000000 
  23  H    0.126414       -0.000000 
  24  H    0.127736       -0.000000 
 ---------------------------------------------------
   Sum:    0.000000        0.000000 
 ---------------------------------------------------
 
  
 NATURAL OCCUPATION NUMBERS (higher than 1.0E-05)
            1           2           3           4           5           6
    1   2.0000000   2.0000000   2.0000000   2.0000000   2.0000000   2.0000000
            7           8           9          10          11          12
    1   2.0000000   2.0000000   2.0000000   2.0000000   2.0000000   2.0000000
           13          14          15          16          17          18
    1   2.0000000   2.0000000   2.0000000   2.0000000   2.0000000   2.0000000
           19          20          21          22          23          24
    1   2.0000000   2.0000000   2.0000000   2.0000000   2.0000000   2.0000000
           25          26          27          28          29          30
    1   2.0000000   2.0000000   2.0000000   2.0000000   2.0000000   2.0000000
           31          32          33          34          35          36
    1   2.0000000   2.0000000   2.0000000   2.0000000   1.9999999   1.9999999
           37          38          39          40          41          42
    1   1.9999990   1.9999984   1.9999974   1.9999959   1.9999954   1.9999916
           43          44          45          46          47          48
    1   1.9999541   1.9999499   1.9996653   1.9986781   1.9852868   1.0065167
           49          50          51          52          53          54
    1   0.9945974   0.0144734   0.0004207   0.0002000   0.0001417   0.0000444
           55          56          57
    1   0.0000422   0.0000358   0.0000102
  
*** Unpaired Electrons
 Yamaguchi Nd:         2.06
 Head-Gordon Nu:       2.02
 Head-Gordon Nu_nl:    2.00
  
**************************************************
 RAS-CI total energy for state   5:   -572.998957374361
  Excitation energy (eV) =  4.954253322701
  State symmetry: B     (C2       )
  <S^2>      :  2.0000
  Dipole Moment:   -0.0000 X    -0.0000 Y     0.5822 Z
  Trans. Moment:    0.0000 X     0.0000 Y     0.0000 Z
  Strength   :  0.000000
  Natural transition orbitals ( 1 -> 5 ):
   e-/hole pair  1:  ampl =  0.558123 ( 31.2%)   [4 : 5]
   e-/hole pair  2:  ampl =  0.351987 ( 12.4%)   [3 : 6]
   Sum of square amplitudes: 0.44

 NATURAL OCCUPATION NUMBERS (higher than 1.0E-05)
            1           2           3           4           5           6
    1   2.0000000   2.0000000   2.0000000   2.0000000   2.0000000   2.0000000
            7           8           9          10          11          12
    1   2.0000000   2.0000000   2.0000000   2.0000000   2.0000000   2.0000000
           13          14          15          16          17          18
    1   2.0000000   2.0000000   2.0000000   2.0000000   2.0000000   2.0000000
           19          20          21          22          23          24
    1   2.0000000   2.0000000   2.0000000   2.0000000   2.0000000   2.0000000
           25          26          27          28          29          30
    1   2.0000000   2.0000000   2.0000000   1.9999999   1.9999999   1.9999999
           31          32          33          34          35          36
    1   1.9999996   1.9999993   1.9999977   1.9999952   1.9999949   1.9999865
           37          38          39          40          41          42
    1   1.9999829   1.9999571   1.9999465   1.9997802   1.9997249   1.9991958
           43          44          45          46          47          48
    1   1.9988198   1.9960405   1.9922771   1.9481695   1.6433401   1.1250619
           49          50          51          52          53          54
    1   0.6541857   0.5879015   0.0455572   0.0051197   0.0028787   0.0006667
           55          56          57          58          59          60
    1   0.0005009   0.0003251   0.0002225   0.0001174   0.0001020   0.0000441
           61          62          63          64
    1   0.0000367   0.0000226   0.0000158   0.0000117

 Head-Gordon Nu:    2.60
 Head-Gordon Nu_nl: 2.80

  Amplitudes : 
  
 | HOLE  | ALPHA | BETA  | PART  |    AMPLITUDE 
--------------------------------------------------
 |       | 1100  | 1001  |       |    -4.7974816888272E-01
 |       | 1100  | 0110  |       |    -2.0906087777986E-01
 |       | 1010  | 0110  |       |    -2.6148051645114E-01
 |       | 1001  | 1100  |       |     4.7974816888258E-01
 |       | 0110  | 1100  |       |     2.0906087777988E-01
 |       | 0110  | 1010  |       |     2.6148051645121E-01
 |  44   | 1011  | 1100  |       |    -1.4086075869194E-01
 |  44   | 1100  | 1011  |       |     1.4086075869196E-01
 |  44   | 1110  | 1001  |       |    -2.2938799695893E-01
 |  44   | 1001  | 1110  |       |     2.2938799695885E-01
 |       | 1000  | 0110  |  55   |     1.6652639613287E-01
 |       | 0110  | 1000  |  55   |    -1.6652639613293E-01
--------------------------------------------------
*** Contributions RASCI wfn    Active:  68.85
                                 Hole:  19.70
                                 Part:  11.44

      Mulliken population analysis 
 ---------------------------------------------------
   Atom    Charge (a.u.)   Spin (a.u.)  
 ---------------------------------------------------
   1  C    0.347588        0.000000 
   2  O   -0.270137        0.000000 
   3  C    0.147826       -0.000000 
   4  C    0.148096       -0.000000 
   5  C   -0.338533       -0.000000 
   6  C   -0.192604       -0.000000 
   7  C   -0.127750       -0.000000 
   8  C   -0.067137       -0.000000 
   9  C   -0.136432       -0.000000 
  10  H    0.153746       -0.000000 
  11  H    0.141198       -0.000000 
  12  H    0.127357        0.000000 
  13  H    0.126026       -0.000000 
  14  H    0.127321       -0.000000 
  15  C   -0.338351       -0.000000 
  16  C   -0.192399       -0.000000 
  17  C   -0.067350       -0.000000 
  18  C   -0.127892       -0.000000 
  19  C   -0.136237       -0.000000 
  20  H    0.153761       -0.000000 
  21  H    0.127352        0.000000 
  22  H    0.141195       -0.000000 
  23  H    0.126024       -0.000000 
  24  H    0.127333       -0.000000 
 ---------------------------------------------------
   Sum:    0.000000        0.000000 
 ---------------------------------------------------
 
  
 NATURAL OCCUPATION NUMBERS (higher than 1.0E-05)
            1           2           3           4           5           6
    1   2.0000000   2.0000000   2.0000000   2.0000000   2.0000000   2.0000000
            7           8           9          10          11          12
    1   2.0000000   2.0000000   2.0000000   2.0000000   2.0000000   2.0000000
           13          14          15          16          17          18
    1   2.0000000   2.0000000   2.0000000   2.0000000   2.0000000   2.0000000
           19          20          21          22          23          24
    1   2.0000000   2.0000000   2.0000000   2.0000000   2.0000000   2.0000000
           25          26          27          28          29          30
    1   2.0000000   2.0000000   2.0000000   1.9999999   1.9999999   1.9999999
           31          32          33          34          35          36
    1   1.9999996   1.9999993   1.9999977   1.9999952   1.9999949   1.9999865
           37          38          39          40          41          42
    1   1.9999829   1.9999571   1.9999465   1.9997802   1.9997249   1.9991958
           43          44          45          46          47          48
    1   1.9988198   1.9960405   1.9922771   1.9481695   1.6433401   1.1250619
           49          50          51          52          53          54
    1   0.6541857   0.5879015   0.0455572   0.0051197   0.0028787   0.0006667
           55          56          57          58          59          60
    1   0.0005009   0.0003251   0.0002225   0.0001174   0.0001020   0.0000441
           61          62          63          64
    1   0.0000367   0.0000226   0.0000158   0.0000117
  
*** Unpaired Electrons
 Yamaguchi Nd:         3.52
 Head-Gordon Nu:       2.60
 Head-Gordon Nu_nl:    2.80
  
**************************************************
 RAS-CI total energy for state   6:   -572.995057408108
  Excitation energy (eV) =  5.060376803838
  State symmetry: B     (C2       )
  <S^2>      :  0.0000
  Dipole Moment:   -0.0000 X    -0.0000 Y     0.3036 Z
  Trans. Moment:    0.0378 X    -0.0110 Y     0.0000 Z
  Strength   :  0.000192
  Natural transition orbitals ( 1 -> 6 ):
   e-/hole pair  1:  ampl =  0.569733 ( 32.5%)   [4 : 5]
   e-/hole pair  2:  ampl =  0.147286 (  2.2%)   [3 : 6]
   Sum of square amplitudes: 0.35

 NATURAL OCCUPATION NUMBERS (higher than 1.0E-05)
            1           2           3           4           5           6
    1   2.0000000   2.0000000   2.0000000   2.0000000   2.0000000   2.0000000
            7           8           9          10          11          12
    1   2.0000000   2.0000000   2.0000000   2.0000000   2.0000000   2.0000000
           13          14          15          16          17          18
    1   2.0000000   2.0000000   2.0000000   2.0000000   2.0000000   2.0000000
           19          20          21          22          23          24
    1   2.0000000   2.0000000   2.0000000   2.0000000   2.0000000   2.0000000
           25          26          27          28          29          30
    1   2.0000000   2.0000000   2.0000000   2.0000000   1.9999999   1.9999999
           31          32          33          34          35          36
    1   1.9999998   1.9999996   1.9999983   1.9999939   1.9999924   1.9999843
           37          38          39          40          41          42
    1   1.9999808   1.9999670   1.9999474   1.9998882   1.9998641   1.9997955
           43          44          45          46          47          48
    1   1.9992050   1.9988843   1.9985444   1.9434918   1.7085324   1.0113516
           49          50          51          52          53          54
    1   0.7217742   0.5627579   0.0511973   0.0026183   0.0007259   0.0004992
           55          56          57          58          59          60
    1   0.0004390   0.0002156   0.0001366   0.0000940   0.0000386   0.0000264
           61
    1   0.0000243

 Head-Gordon Nu:    2.68
 Head-Gordon Nu_nl: 2.78

  Amplitudes : 
  
 | HOLE  | ALPHA | BETA  | PART  |    AMPLITUDE 
--------------------------------------------------
 |       | 1100  | 1001  |       |    -5.0371730230475E-01
 |       | 1010  | 0110  |       |     2.8037758627936E-01
 |       | 1001  | 1100  |       |    -5.0371730230489E-01
 |       | 0110  | 1010  |       |     2.8037758627929E-01
 |  44   | 1011  | 1100  |       |     1.6007920056865E-01
 |  44   | 1100  | 1011  |       |     1.6007920056861E-01
 |  44   | 1110  | 1001  |       |    -2.4383074806825E-01
 |  44   | 1001  | 1110  |       |    -2.4383074806831E-01
 |       | 1000  | 0110  |  55   |    -1.7373622607298E-01
 |       | 0110  | 1000  |  55   |    -1.7373622607293E-01
--------------------------------------------------
*** Contributions RASCI wfn    Active:  68.69
                                 Hole:  19.92
                                 Part:  11.39

      Mulliken population analysis 
 ---------------------------------------------------
   Atom    Charge (a.u.)   Spin (a.u.)  
 ---------------------------------------------------
   1  C    0.353861       -0.000000 
   2  O   -0.211124       -0.000000 
   3  C    0.122265        0.000000 
   4  C    0.122534        0.000000 
   5  C   -0.336261        0.000000 
   6  C   -0.188344        0.000000 
   7  C   -0.133140        0.000000 
   8  C   -0.070817        0.000000 
   9  C   -0.142491        0.000000 
  10  H    0.153796        0.000000 
  11  H    0.142817        0.000000 
  12  H    0.127330        0.000000 
  13  H    0.125963        0.000000 
  14  H    0.127257        0.000000 
  15  C   -0.336079        0.000000 
  16  C   -0.188138        0.000000 
  17  C   -0.071030        0.000000 
  18  C   -0.133282        0.000000 
  19  C   -0.142296        0.000000 
  20  H    0.153811        0.000000 
  21  H    0.127325        0.000000 
  22  H    0.142815        0.000000 
  23  H    0.125961        0.000000 
  24  H    0.127269        0.000000 
 ---------------------------------------------------
   Sum:    0.000000        0.000000 
 ---------------------------------------------------
 
  
 NATURAL OCCUPATION NUMBERS (higher than 1.0E-05)
            1           2           3           4           5           6
    1   2.0000000   2.0000000   2.0000000   2.0000000   2.0000000   2.0000000
            7           8           9          10          11          12
    1   2.0000000   2.0000000   2.0000000   2.0000000   2.0000000   2.0000000
           13          14          15          16          17          18
    1   2.0000000   2.0000000   2.0000000   2.0000000   2.0000000   2.0000000
           19          20          21          22          23          24
    1   2.0000000   2.0000000   2.0000000   2.0000000   2.0000000   2.0000000
           25          26          27          28          29          30
    1   2.0000000   2.0000000   2.0000000   2.0000000   1.9999999   1.9999999
           31          32          33          34          35          36
    1   1.9999998   1.9999996   1.9999983   1.9999939   1.9999924   1.9999843
           37          38          39          40          41          42
    1   1.9999808   1.9999670   1.9999474   1.9998882   1.9998641   1.9997955
           43          44          45          46          47          48
    1   1.9992050   1.9988843   1.9985444   1.9434918   1.7085324   1.0113516
           49          50          51          52          53          54
    1   0.7217742   0.5627579   0.0511973   0.0026183   0.0007259   0.0004992
           55          56          57          58          59          60
    1   0.0004390   0.0002156   0.0001366   0.0000940   0.0000386   0.0000264
           61
    1   0.0000243
  
*** Unpaired Electrons
 Yamaguchi Nd:         3.46
 Head-Gordon Nu:       2.68
 Head-Gordon Nu_nl:    2.78
  
**************************************************
 RAS-CI total energy for state   7:   -572.972203824073
  Excitation energy (eV) =  5.682254465585
  State symmetry: B     (C2       )
  <S^2>      :  2.0000
  Dipole Moment:   -0.0000 X    -0.0000 Y     2.3448 Z
  Trans. Moment:    0.0000 X     0.0000 Y    -0.0000 Z
  Strength   :  0.000000
  Natural transition orbitals ( 1 -> 7 ):
   e-/hole pair  1:  ampl =  0.862900 ( 74.5%)   [4 : 5]
   e-/hole pair  2:  ampl =  0.276548 (  7.6%)   [3 : 6]
   Sum of square amplitudes: 0.82

 NATURAL OCCUPATION NUMBERS (higher than 1.0E-05)
            1           2           3           4           5           6
    1   2.0000000   2.0000000   2.0000000   2.0000000   2.0000000   2.0000000
            7           8           9          10          11          12
    1   2.0000000   2.0000000   2.0000000   2.0000000   2.0000000   2.0000000
           13          14          15          16          17          18
    1   2.0000000   2.0000000   2.0000000   2.0000000   2.0000000   2.0000000
           19          20          21          22          23          24
    1   2.0000000   2.0000000   2.0000000   2.0000000   2.0000000   2.0000000
           25          26          27          28          29          30
    1   2.0000000   2.0000000   1.9999999   1.9999999   1.9999998   1.9999995
           31          32          33          34          35          36
    1   1.9999994   1.9999992   1.9999987   1.9999976   1.9999957   1.9999906
           37          38          39          40          41          42
    1   1.9999894   1.9999754   1.9998956   1.9997538   1.9995352   1.9993997
           43          44          45          46          47          48
    1   1.9989479   1.9861596   1.9798019   1.9310731   1.8142744   1.1688407
           49          50          51          52          53          54
    1   0.9129968   0.1631854   0.0222853   0.0206665   0.0008334   0.0008008
           55          56          57          58          59          60
    1   0.0007174   0.0002543   0.0001827   0.0001514   0.0000828   0.0000626
           61          62          63          64          65
    1   0.0000459   0.0000416   0.0000218   0.0000134   0.0000132

 Head-Gordon Nu:    2.24
 Head-Gordon Nu_nl: 2.16

  Amplitudes : 
  
 | HOLE  | ALPHA | BETA  | PART  |    AMPLITUDE 
--------------------------------------------------
 |       | 1100  | 1001  |       |    -2.0989340581973E-01
 |       | 1100  | 0110  |       |     5.2025727119463E-01
 |       | 1001  | 1100  |       |     2.0989340581973E-01
 |       | 0110  | 1100  |       |    -5.2025727119462E-01
 |  44   | 1101  | 1100  |       |     1.1938564978663E-01
 |  44   | 1100  | 1101  |       |    -1.1938564978662E-01
 |  34   | 1110  | 0110  |       |    -1.1787814291995E-01
 |  34   | 0110  | 1110  |       |     1.1787814291995E-01
 |  37   | 1110  | 0110  |       |    -1.5250815153356E-01
 |  37   | 0110  | 1110  |       |     1.5250815153356E-01
 |       | 0100  | 1100  |  55   |     1.1677187270149E-01
 |       | 1100  | 0100  |  55   |    -1.1677187270149E-01
--------------------------------------------------
*** Contributions RASCI wfn    Active:  64.19
                                 Hole:  25.49
                                 Part:  10.32

      Mulliken population analysis 
 ---------------------------------------------------
   Atom    Charge (a.u.)   Spin (a.u.)  
 ---------------------------------------------------
   1  C    0.189921        0.000000 
   2  O   -0.584058       -0.000000 
   3  C    0.301269        0.000000 
   4  C    0.301539       -0.000000 
   5  C   -0.344873       -0.000000 
   6  C   -0.209544       -0.000000 
   7  C   -0.094875        0.000000 
   8  C   -0.044710        0.000000 
   9  C   -0.080353       -0.000000 
  10  H    0.153742       -0.000000 
  11  H    0.134855       -0.000000 
  12  H    0.127120        0.000000 
  13  H    0.126403        0.000000 
  14  H    0.127777       -0.000000 
  15  C   -0.344691       -0.000000 
  16  C   -0.209337       -0.000000 
  17  C   -0.044924        0.000000 
  18  C   -0.095017        0.000000 
  19  C   -0.080158       -0.000000 
  20  H    0.153756       -0.000000 
  21  H    0.127115        0.000000 
  22  H    0.134852       -0.000000 
  23  H    0.126401        0.000000 
  24  H    0.127789       -0.000000 
 ---------------------------------------------------
   Sum:    0.000000       -0.000000 
 ---------------------------------------------------
 
  
 NATURAL OCCUPATION NUMBERS (higher than 1.0E-05)
            1           2           3           4           5           6
    1   2.0000000   2.0000000   2.0000000   2.0000000   2.0000000   2.0000000
            7           8           9          10          11          12
    1   2.0000000   2.0000000   2.0000000   2.0000000   2.0000000   2.0000000
           13          14          15          16          17          18
    1   2.0000000   2.0000000   2.0000000   2.0000000   2.0000000   2.0000000
           19          20          21          22          23          24
    1   2.0000000   2.0000000   2.0000000   2.0000000   2.0000000   2.0000000
           25          26          27          28          29          30
    1   2.0000000   2.0000000   1.9999999   1.9999999   1.9999998   1.9999995
           31          32          33          34          35          36
    1   1.9999994   1.9999992   1.9999987   1.9999976   1.9999957   1.9999906
           37          38          39          40          41          42
    1   1.9999894   1.9999754   1.9998956   1.9997538   1.9995352   1.9993997
           43          44          45          46          47          48
    1   1.9989479   1.9861596   1.9798019   1.9310731   1.8142744   1.1688407
           49          50          51          52          53          54
    1   0.9129968   0.1631854   0.0222853   0.0206665   0.0008334   0.0008008
           55          56          57          58          59          60
    1   0.0007174   0.0002543   0.0001827   0.0001514   0.0000828   0.0000626
           61          62          63          64          65
    1   0.0000459   0.0000416   0.0000218   0.0000134   0.0000132
  
*** Unpaired Electrons
 Yamaguchi Nd:         2.90
 Head-Gordon Nu:       2.24
 Head-Gordon Nu_nl:    2.16
  
**************************************************
 RAS-CI total energy for state   8:   -572.949988700008
  Excitation energy (eV) =  6.286758747603
  State symmetry: B     (C2       )
  <S^2>      :  0.0000
  Dipole Moment:    0.0000 X    -0.0000 Y     2.4794 Z
  Trans. Moment:   -2.0107 X    -0.0713 Y    -0.0000 Z
  Strength   :  0.623496
  Natural transition orbitals ( 1 -> 8 ):
   e-/hole pair  1:  ampl =  0.921471 ( 84.9%)   [4 : 5]
   e-/hole pair  2:  ampl =  0.189598 (  3.6%)   [3 : 6]
   Sum of square amplitudes: 0.89

 NATURAL OCCUPATION NUMBERS (higher than 1.0E-05)
            1           2           3           4           5           6
    1   2.0000000   2.0000000   2.0000000   2.0000000   2.0000000   2.0000000
            7           8           9          10          11          12
    1   2.0000000   2.0000000   2.0000000   2.0000000   2.0000000   2.0000000
           13          14          15          16          17          18
    1   2.0000000   2.0000000   2.0000000   2.0000000   2.0000000   2.0000000
           19          20          21          22          23          24
    1   2.0000000   2.0000000   2.0000000   2.0000000   2.0000000   2.0000000
           25          26          27          28          29          30
    1   2.0000000   2.0000000   2.0000000   2.0000000   2.0000000   2.0000000
           31          32          33          34          35          36
    1   1.9999999   1.9999997   1.9999991   1.9999988   1.9999968   1.9999949
           37          38          39          40          41          42
    1   1.9999933   1.9999798   1.9999524   1.9999314   1.9997808   1.9995773
           43          44          45          46          47          48
    1   1.9983766   1.9968817   1.9746357   1.9528091   1.9097974   1.0764569
           49          50          51          52          53          54
    1   0.9927289   0.0684159   0.0204780   0.0072637   0.0011076   0.0006174
           55          56          57          58          59          60
    1   0.0004926   0.0001729   0.0001562   0.0001510   0.0000711   0.0000666
           61          62          63          64
    1   0.0000406   0.0000287   0.0000190   0.0000146

 Head-Gordon Nu:    2.18
 Head-Gordon Nu_nl: 2.05

  Amplitudes : 
  
 | HOLE  | ALPHA | BETA  | PART  |    AMPLITUDE 
--------------------------------------------------
 |       | 1100  | 1001  |       |     1.5437227904935E-01
 |       | 1100  | 0110  |       |     5.4483180215907E-01
 |       | 1001  | 1100  |       |     1.5437227904935E-01
 |       | 0110  | 1100  |       |     5.4483180215908E-01
 |  29   | 1110  | 1100  |       |     1.0276894056267E-01
 |  29   | 1100  | 1110  |       |     1.0276894056267E-01
 |  34   | 1110  | 0110  |       |    -1.3819880114726E-01
 |  34   | 0110  | 1110  |       |    -1.3819880114726E-01
 |  37   | 1110  | 0110  |       |    -1.7902353286428E-01
 |  37   | 0110  | 1110  |       |    -1.7902353286428E-01
 |  44   | 1110  | 0110  |       |    -1.2182294625452E-01
 |  44   | 0110  | 1110  |       |    -1.2182294625452E-01
--------------------------------------------------
*** Contributions RASCI wfn    Active:  65.78
                                 Hole:  26.37
                                 Part:   7.84

      Mulliken population analysis 
 ---------------------------------------------------
   Atom    Charge (a.u.)   Spin (a.u.)  
 ---------------------------------------------------
   1  C    0.073027       -0.000000 
   2  O   -0.560807        0.000000 
   3  C    0.328816       -0.000000 
   4  C    0.329086       -0.000000 
   5  C   -0.346484       -0.000000 
   6  C   -0.213478       -0.000000 
   7  C   -0.087452       -0.000000 
   8  C   -0.040674       -0.000000 
   9  C   -0.065890       -0.000000 
  10  H    0.153668        0.000000 
  11  H    0.133582        0.000000 
  12  H    0.127167        0.000000 
  13  H    0.126506       -0.000000 
  14  H    0.127870        0.000000 
  15  C   -0.346301       -0.000000 
  16  C   -0.213271       -0.000000 
  17  C   -0.040887       -0.000000 
  18  C   -0.087595        0.000000 
  19  C   -0.065694        0.000000 
  20  H    0.153683       -0.000000 
  21  H    0.127162       -0.000000 
  22  H    0.133579        0.000000 
  23  H    0.126504        0.000000 
  24  H    0.127882        0.000000 
 ---------------------------------------------------
   Sum:    0.000000       -0.000000 
 ---------------------------------------------------
 
  
 NATURAL OCCUPATION NUMBERS (higher than 1.0E-05)
            1           2           3           4           5           6
    1   2.0000000   2.0000000   2.0000000   2.0000000   2.0000000   2.0000000
            7           8           9          10          11          12
    1   2.0000000   2.0000000   2.0000000   2.0000000   2.0000000   2.0000000
           13          14          15          16          17          18
    1   2.0000000   2.0000000   2.0000000   2.0000000   2.0000000   2.0000000
           19          20          21          22          23          24
    1   2.0000000   2.0000000   2.0000000   2.0000000   2.0000000   2.0000000
           25          26          27          28          29          30
    1   2.0000000   2.0000000   2.0000000   2.0000000   2.0000000   2.0000000
           31          32          33          34          35          36
    1   1.9999999   1.9999997   1.9999991   1.9999988   1.9999968   1.9999949
           37          38          39          40          41          42
    1   1.9999933   1.9999798   1.9999524   1.9999314   1.9997808   1.9995773
           43          44          45          46          47          48
    1   1.9983766   1.9968817   1.9746357   1.9528091   1.9097974   1.0764569
           49          50          51          52          53          54
    1   0.9927289   0.0684159   0.0204780   0.0072637   0.0011076   0.0006174
           55          56          57          58          59          60
    1   0.0004926   0.0001729   0.0001562   0.0001510   0.0000711   0.0000666
           61          62          63          64
    1   0.0000406   0.0000287   0.0000190   0.0000146
  
*** Unpaired Electrons
 Yamaguchi Nd:         2.51
 Head-Gordon Nu:       2.18
 Head-Gordon Nu_nl:    2.05
  
**************************************************
 RAS-CI total energy for state   9:   -572.939403282294
  Excitation energy (eV) =  6.574802618819
  State symmetry: A     (C2       )
  <S^2>      :  2.0000
  Dipole Moment:    0.0000 X    -0.0000 Y     1.2472 Z
  Trans. Moment:   -0.0000 X    -0.0000 Y     0.0000 Z
  Strength   :  0.000000
  Natural transition orbitals ( 1 -> 9 ):
   e-/hole pair  1:  ampl =  0.956407 ( 91.5%)   [4 : 5]
   e-/hole pair  2:  ampl =  0.164770 (  2.7%)   [3 : 6]
   Sum of square amplitudes: 0.96

 NATURAL OCCUPATION NUMBERS (higher than 1.0E-05)
            1           2           3           4           5           6
    1   2.0000000   2.0000000   2.0000000   2.0000000   2.0000000   2.0000000
            7           8           9          10          11          12
    1   2.0000000   2.0000000   2.0000000   2.0000000   2.0000000   2.0000000
           13          14          15          16          17          18
    1   2.0000000   2.0000000   2.0000000   2.0000000   2.0000000   2.0000000
           19          20          21          22          23          24
    1   2.0000000   2.0000000   2.0000000   2.0000000   2.0000000   2.0000000
           25          26          27          28          29          30
    1   2.0000000   2.0000000   2.0000000   2.0000000   2.0000000   1.9999999
           31          32          33          34          35          36
    1   1.9999998   1.9999997   1.9999997   1.9999997   1.9999979   1.9999964
           37          38          39          40          41          42
    1   1.9999953   1.9999874   1.9999872   1.9999809   1.9999254   1.9998828
           43          44          45          46          47          48
    1   1.9997425   1.9986371   1.9715515   1.9613455   1.9176188   1.0561225
           49          50          51          52          53          54
    1   0.9418494   0.1208156   0.0202482   0.0091304   0.0018182   0.0005697
           55          56          57          58          59          60
    1   0.0002440   0.0001739   0.0001441   0.0001377   0.0000323   0.0000306
           61          62
    1   0.0000116   0.0000101

 Head-Gordon Nu:    2.19
 Head-Gordon Nu_nl: 2.07

  Amplitudes : 
  
 | HOLE  | ALPHA | BETA  | PART  |    AMPLITUDE 
--------------------------------------------------
 |       | 1100  | 0101  |       |     5.6315999131001E-01
 |       | 0101  | 1100  |       |    -5.6315999131002E-01
 |  34   | 0111  | 1100  |       |    -1.3063821835179E-01
 |  34   | 1100  | 0111  |       |     1.3063821835179E-01
 |  37   | 0111  | 1100  |       |    -1.6524944495096E-01
 |  37   | 1100  | 0111  |       |     1.6524944495096E-01
 |  34   | 1110  | 0101  |       |    -1.2694734587148E-01
 |  34   | 0101  | 1110  |       |     1.2694734587148E-01
 |  37   | 1110  | 0101  |       |    -1.6202143433504E-01
 |  37   | 0101  | 1110  |       |     1.6202143433504E-01
--------------------------------------------------
*** Contributions RASCI wfn    Active:  64.62
                                 Hole:  29.79
                                 Part:   5.59

      Mulliken population analysis 
 ---------------------------------------------------
   Atom    Charge (a.u.)   Spin (a.u.)  
 ---------------------------------------------------
   1  C    0.350186        0.000000 
   2  O   -0.409365       -0.000000 
   3  C    0.210035       -0.000000 
   4  C    0.210304       -0.000000 
   5  C   -0.372783       -0.000000 
   6  C   -0.190625        0.000000 
   7  C   -0.132604       -0.000000 
   8  C   -0.042842        0.000000 
   9  C   -0.113758        0.000000 
  10  H    0.152256       -0.000000 
  11  H    0.139302        0.000000 
  12  H    0.127264        0.000000 
  13  H    0.125824        0.000000 
  14  H    0.127265       -0.000000 
  15  C   -0.372602       -0.000000 
  16  C   -0.190418        0.000000 
  17  C   -0.043055        0.000000 
  18  C   -0.132746       -0.000000 
  19  C   -0.113563        0.000000 
  20  H    0.152271        0.000000 
  21  H    0.127259        0.000000 
  22  H    0.139299       -0.000000 
  23  H    0.125822        0.000000 
  24  H    0.127277        0.000000 
 ---------------------------------------------------
   Sum:    0.000000        0.000000 
 ---------------------------------------------------
 
  
 NATURAL OCCUPATION NUMBERS (higher than 1.0E-05)
            1           2           3           4           5           6
    1   2.0000000   2.0000000   2.0000000   2.0000000   2.0000000   2.0000000
            7           8           9          10          11          12
    1   2.0000000   2.0000000   2.0000000   2.0000000   2.0000000   2.0000000
           13          14          15          16          17          18
    1   2.0000000   2.0000000   2.0000000   2.0000000   2.0000000   2.0000000
           19          20          21          22          23          24
    1   2.0000000   2.0000000   2.0000000   2.0000000   2.0000000   2.0000000
           25          26          27          28          29          30
    1   2.0000000   2.0000000   2.0000000   2.0000000   2.0000000   1.9999999
           31          32          33          34          35          36
    1   1.9999998   1.9999997   1.9999997   1.9999997   1.9999979   1.9999964
           37          38          39          40          41          42
    1   1.9999953   1.9999874   1.9999872   1.9999809   1.9999254   1.9998828
           43          44          45          46          47          48
    1   1.9997425   1.9986371   1.9715515   1.9613455   1.9176188   1.0561225
           49          50          51          52          53          54
    1   0.9418494   0.1208156   0.0202482   0.0091304   0.0018182   0.0005697
           55          56          57          58          59          60
    1   0.0002440   0.0001739   0.0001441   0.0001377   0.0000323   0.0000306
           61          62
    1   0.0000116   0.0000101
  
*** Unpaired Electrons
 Yamaguchi Nd:         2.58
 Head-Gordon Nu:       2.19
 Head-Gordon Nu_nl:    2.07
  
**************************************************
 RAS-CI total energy for state  10:   -572.922953121763
  Excitation energy (eV) =  7.022434261654
  State symmetry: B     (C2       )
  <S^2>      :  2.0000
  Dipole Moment:   -0.0000 X    -0.0000 Y     0.6619 Z
  Trans. Moment:    0.0000 X    -0.0000 Y     0.0000 Z
  Strength   :  0.000000
  Natural transition orbitals ( 1 -> 10 ):
   e-/hole pair  1:  ampl =  0.872557 ( 76.1%)   [4 : 5]
   e-/hole pair  2:  ampl =  0.147081 (  2.2%)   [3 : 6]
   Sum of square amplitudes: 0.79

 NATURAL OCCUPATION NUMBERS (higher than 1.0E-05)
            1           2           3           4           5           6
    1   2.0000000   2.0000000   2.0000000   2.0000000   2.0000000   2.0000000
            7           8           9          10          11          12
    1   2.0000000   2.0000000   2.0000000   2.0000000   2.0000000   2.0000000
           13          14          15          16          17          18
    1   2.0000000   2.0000000   2.0000000   2.0000000   2.0000000   2.0000000
           19          20          21          22          23          24
    1   2.0000000   2.0000000   2.0000000   2.0000000   2.0000000   2.0000000
           25          26          27          28          29          30
    1   2.0000000   2.0000000   2.0000000   2.0000000   1.9999999   1.9999999
           31          32          33          34          35          36
    1   1.9999999   1.9999997   1.9999994   1.9999990   1.9999978   1.9999950
           37          38          39          40          41          42
    1   1.9999908   1.9999866   1.9999672   1.9999344   1.9998509   1.9995234
           43          44          45          46          47          48
    1   1.9991074   1.9980881   1.9781554   1.9374950   1.9367671   1.0901072
           49          50          51          52          53          54
    1   0.9998409   0.0437960   0.0106384   0.0032774   0.0017486   0.0009843
           55          56          57          58          59          60
    1   0.0002473   0.0001844   0.0001132   0.0001120   0.0000360   0.0000142
           61          62
    1   0.0000142   0.0000116

 Head-Gordon Nu:    2.12
 Head-Gordon Nu_nl: 2.02

  Amplitudes : 
  
 | HOLE  | ALPHA | BETA  | PART  |    AMPLITUDE 
--------------------------------------------------
 |       | 1100  | 0110  |       |     1.1063101653564E-01
 |       | 1010  | 0110  |       |     1.0639393085604E-01
 |       | 0110  | 1100  |       |    -1.1063101653564E-01
 |       | 0110  | 1010  |       |    -1.0639393085606E-01
 |  22   | 1110  | 1100  |       |     1.1023640807433E-01
 |  22   | 1100  | 1110  |       |    -1.1023640807433E-01
 |  26   | 1110  | 1100  |       |     2.0946453161136E-01
 |  26   | 1100  | 1110  |       |    -2.0946453161135E-01
 |  28   | 1110  | 1100  |       |     2.8197114979142E-01
 |  28   | 1100  | 1110  |       |    -2.8197114979140E-01
 |  29   | 1110  | 1100  |       |     3.7138574664548E-01
 |  29   | 1100  | 1110  |       |    -3.7138574664546E-01
 |  32   | 1110  | 1100  |       |    -1.5053017218333E-01
 |  32   | 1100  | 1110  |       |     1.5053017218332E-01
 |  33   | 1110  | 1100  |       |    -2.9040121941311E-01
 |  33   | 1100  | 1110  |       |     2.9040121941310E-01
 |  35   | 1110  | 1100  |       |     1.0162279272250E-01
 |  35   | 1100  | 1110  |       |    -1.0162279272250E-01
 |  38   | 1110  | 1100  |       |     1.2580200300933E-01
 |  38   | 1100  | 1110  |       |    -1.2580200300933E-01
 |  42   | 1110  | 1100  |       |     1.6246993134860E-01
 |  42   | 1100  | 1110  |       |    -1.6246993134859E-01
--------------------------------------------------
*** Contributions RASCI wfn    Active:   6.71
                                 Hole:  91.31
                                 Part:   1.99

      Mulliken population analysis 
 ---------------------------------------------------
   Atom    Charge (a.u.)   Spin (a.u.)  
 ---------------------------------------------------
   1  C    0.427200        0.000000 
   2  O   -0.397957       -0.000000 
   3  C    0.193000       -0.000000 
   4  C    0.193273       -0.000000 
   5  C   -0.335189        0.000000 
   6  C   -0.230363       -0.000000 
   7  C   -0.106036       -0.000000 
   8  C   -0.072027       -0.000000 
   9  C   -0.142883        0.000000 
[...]
  48    C 9   p     0.11463   0.10376   0.08806   0.15992   0.13942   0.09933
  49    C 9   d     0.00460   0.01362   0.00399   0.00563   0.00558   0.02662
  50    C 9   f     0.00033   0.00010   0.00054   0.00148   0.00141   0.00051
  51    C 10  s     0.00069   0.00151   0.00088   0.00002   0.00001   0.00062
  52    C 10  p     0.08194   0.08636   0.11727   0.15519   0.14075   0.08716
  53    C 10  d     0.00719   0.00317   0.02703   0.00605   0.00611   0.04018
  54    C 10  f     0.00074   0.00024   0.00020   0.00147   0.00144   0.00011
  55    C 11  s     0.00114   0.00052   0.00062   0.00002   0.00003   0.00073
  56    C 11  p     0.07126   0.12528   0.09120   0.15864   0.13770   0.08913
  57    C 11  d     0.00497   0.01238   0.03065   0.00607   0.00656   0.03979
  58    C 11  f     0.00083   0.00131   0.00071   0.00152   0.00129   0.00018
  59    C 12  s     0.00233   0.00077   0.00005   0.00002   0.00006   0.00040
  60    C 12  p     0.08087   0.09724   0.12974   0.15579   0.14148   0.09093
  61    C 12  d     0.00202   0.02860   0.00699   0.00637   0.00662   0.02670
  62    C 12  f     0.00022   0.00136   0.00118   0.00151   0.00128   0.00039
  63    C 13  s     0.00011   0.00115   0.00079   0.00001   0.00010   0.00003
  64    C 13  p     0.01239   0.16014   0.12677   0.15397   0.12885   0.10139
  65    C 13  d     0.00765   0.05523   0.04110   0.00603   0.00739   0.00647
  66    C 13  f     0.00279   0.00017   0.00024   0.00147   0.00126   0.00087
  67    H 6   s     0.04693   0.03182   0.00108   0.00015   0.00035   0.04055
  68    H 6   p     0.00172   0.00126   0.00109   0.00180   0.00152   0.00123
  69    H 7   s     0.01791   0.00580   0.05248   0.00068   0.00211   0.07094
  70    H 7   p     0.00073   0.00169   0.00114   0.00161   0.00143   0.00091
  71    H 8   s     0.02453   0.00815   0.05720   0.00109   0.00047   0.06801
  72    H 8   p     0.00123   0.00110   0.00148   0.00163   0.00162   0.00101
  73    H 9   s     0.02814   0.04056   0.00028   0.00110   0.00368   0.04294
  74    H 9   p     0.00077   0.00135   0.00171   0.00158   0.00147   0.00107
  75    H 10  s     0.00459   0.12420   0.08166   0.00011   0.00296   0.00275
  76    H 10  p     0.00017   0.00198   0.00148   0.00156   0.00130   0.00138
                        43        44        45        46        47        48
                       20B       21B       24A       22B       25A       23B   
   1    C 1   s     0.00000   0.00000   0.00008   0.00000   0.00029   0.00000
   2    C 1   p     0.02769   0.08264   0.00001   0.00035   0.00495   0.01173
   3    C 1   d     0.00854   0.04225   0.00080   0.00032   0.05989   0.12144
   4    C 1   f     0.00329   0.00536   0.00012   0.00007   0.00268   0.03370
   5    O     s     0.00000   0.00000   0.00004   0.00000   0.00076   0.00000
   6    O     p     0.01554   0.10041   0.00020   0.00142   0.00499   1.73040
   7    O     d     0.00033   0.00159   0.00003   0.00000   0.00019   0.00221
   8    O     f     0.00003   0.00013   0.00000   0.00000   0.00001   0.00052
   9    C 2   s     0.00000   0.00069   0.00001   0.00002   0.00002   0.00413
  10    C 2   p     0.11340   0.22593   0.00319   0.00015   0.25945   0.02210
  11    C 2   d     0.01437   0.00126   0.03833   0.03765   0.00311   0.00301
  12    C 2   f     0.00038   0.00052   0.00350   0.00362   0.00061   0.00033
  13    C 3   s     0.00000   0.00069   0.00001   0.00002   0.00002   0.00413
  14    C 3   p     0.11340   0.22593   0.00319   0.00015   0.25945   0.02210
  15    C 3   d     0.01437   0.00126   0.03833   0.03765   0.00311   0.00301
  16    C 3   f     0.00038   0.00052   0.00350   0.00362   0.00061   0.00033
  17    C 4   s     0.00057   0.00028   0.00015   0.00016   0.00015   0.00033
  18    C 4   p     0.09139   0.03755   0.24600   0.21242   0.03773   0.00286
  19    C 4   d     0.04537   0.02652   0.00599   0.01169   0.03397   0.00143
  20    C 4   f     0.00008   0.00260   0.00109   0.00134   0.00314   0.00019
  21    C 5   s     0.00029   0.00005   0.00002   0.00002   0.00001   0.00062
  22    C 5   p     0.10895   0.03793   0.18697   0.21447   0.09730   0.00664
  23    C 5   d     0.01910   0.02684   0.01406   0.01017   0.02580   0.00114
  24    C 5   f     0.00061   0.00253   0.00170   0.00137   0.00250   0.00033
  25    C 6   s     0.00087   0.00002   0.00000   0.00000   0.00000   0.00001
  26    C 6   p     0.08485   0.08382   0.23617   0.20868   0.04279   0.00025
  27    C 6   d     0.04271   0.02637   0.00684   0.01081   0.03443   0.00094
  28    C 6   f     0.00008   0.00257   0.00116   0.00145   0.00318   0.00009
  29    C 7   s     0.00020   0.00003   0.00002   0.00002   0.00001   0.00010
  30    C 7   p     0.09206   0.08125   0.17461   0.21387   0.10073   0.00083
  31    C 7   d     0.02000   0.02590   0.01603   0.01133   0.02554   0.00061
  32    C 7   f     0.00061   0.00254   0.00183   0.00149   0.00248   0.00005
  33    C 8   s     0.00010   0.00003   0.00000   0.00001   0.00001   0.00002
  34    C 8   p     0.09707   0.28707   0.00518   0.00013   0.27836   0.00175
  35    C 8   d     0.01080   0.00085   0.03752   0.03908   0.00106   0.00011
  36    C 8   f     0.00074   0.00067   0.00356   0.00368   0.00061   0.00001
  37    H 1   s     0.08209   0.00084   0.00052   0.00097   0.00037   0.00007
  38    H 1   p     0.00116   0.00076   0.00475   0.00336   0.00082   0.00004
  39    H 2   s     0.02609   0.00010   0.00000   0.00004   0.00000   0.00152
  40    H 2   p     0.00129   0.00078   0.00316   0.00369   0.00174   0.00028
  41    H 3   s     0.02698   0.00003   0.00000   0.00003   0.00001   0.00011
  42    H 3   p     0.00114   0.00126   0.00294   0.00362   0.00171   0.00002
  43    H 4   s     0.07527   0.00018   0.00000   0.00002   0.00002   0.00006
  44    H 4   p     0.00083   0.00131   0.00395   0.00351   0.00073   0.00000
  45    H 5   s     0.01152   0.00002   0.00001   0.00005   0.00001   0.00001
  46    H 5   p     0.00129   0.00473   0.00009   0.00000   0.00474   0.00004
  47    C 9   s     0.00057   0.00028   0.00015   0.00016   0.00015   0.00033
  48    C 9   p     0.09139   0.03755   0.24600   0.21242   0.03773   0.00286
  49    C 9   d     0.04537   0.02652   0.00599   0.01169   0.03397   0.00143
  50    C 9   f     0.00008   0.00260   0.00109   0.00134   0.00314   0.00019
  51    C 10  s     0.00029   0.00005   0.00002   0.00002   0.00001   0.00062
  52    C 10  p     0.10895   0.03793   0.18697   0.21447   0.09730   0.00664
  53    C 10  d     0.01910   0.02684   0.01406   0.01017   0.02580   0.00114
  54    C 10  f     0.00061   0.00253   0.00170   0.00137   0.00250   0.00033
  55    C 11  s     0.00020   0.00003   0.00002   0.00002   0.00001   0.00010
  56    C 11  p     0.09206   0.08125   0.17461   0.21387   0.10073   0.00083
  57    C 11  d     0.02000   0.02590   0.01603   0.01133   0.02554   0.00061
  58    C 11  f     0.00061   0.00254   0.00183   0.00149   0.00248   0.00005
  59    C 12  s     0.00087   0.00002   0.00000   0.00000   0.00000   0.00001
  60    C 12  p     0.08485   0.08382   0.23618   0.20868   0.04279   0.00025
  61    C 12  d     0.04271   0.02637   0.00684   0.01081   0.03443   0.00094
  62    C 12  f     0.00008   0.00257   0.00116   0.00145   0.00318   0.00009
  63    C 13  s     0.00010   0.00003   0.00000   0.00001   0.00001   0.00002
  64    C 13  p     0.09707   0.28707   0.00518   0.00013   0.27836   0.00175
  65    C 13  d     0.01080   0.00085   0.03752   0.03908   0.00106   0.00011
  66    C 13  f     0.00074   0.00067   0.00356   0.00368   0.00061   0.00001
  67    H 6   s     0.08209   0.00084   0.00052   0.00097   0.00037   0.00007
  68    H 6   p     0.00116   0.00076   0.00475   0.00336   0.00082   0.00004
  69    H 7   s     0.02698   0.00003   0.00000   0.00003   0.00001   0.00011
  70    H 7   p     0.00114   0.00126   0.00294   0.00362   0.00171   0.00002
  71    H 8   s     0.02609   0.00010   0.00000   0.00004   0.00000   0.00152
  72    H 8   p     0.00129   0.00078   0.00316   0.00369   0.00174   0.00028
  73    H 9   s     0.07527   0.00018   0.00000   0.00002   0.00002   0.00006
  74    H 9   p     0.00083   0.00131   0.00395   0.00351   0.00073   0.00000
  75    H 10  s     0.01152   0.00002   0.00001   0.00005   0.00001   0.00001
  76    H 10  p     0.00129   0.00473   0.00009   0.00000   0.00474   0.00004
                        49
                       24B   
   1    C 1   s     0.00000
   2    C 1   p     0.93716
   3    C 1   d     0.02251
   4    C 1   f     0.00833
   5    O     s     0.00000
   6    O     p     0.17082
   7    O     d     0.03378
   8    O     f     0.00280
   9    C 2   s     0.00003
  10    C 2   p     0.01131
  11    C 2   d     0.13657
  12    C 2   f     0.01261
  13    C 3   s     0.00003
  14    C 3   p     0.01131
  15    C 3   d     0.13657
  16    C 3   f     0.01261
  17    C 4   s     0.00067
  18    C 4   p     0.06789
  19    C 4   d     0.00166
  20    C 4   f     0.00027
  21    C 5   s     0.00074
  22    C 5   p     0.07487
  23    C 5   d     0.00080
  24    C 5   f     0.00027
  25    C 6   s     0.00006
  26    C 6   p     0.00023
  27    C 6   d     0.01874
  28    C 6   f     0.00136
  29    C 7   s     0.00009
  30    C 7   p     0.00080
  31    C 7   d     0.01841
  32    C 7   f     0.00133
  33    C 8   s     0.00000
  34    C 8   p     0.05659
  35    C 8   d     0.00148
  36    C 8   f     0.00007
  37    H 1   s     0.00019
  38    H 1   p     0.00138
  39    H 2   s     0.00013
  40    H 2   p     0.00189
  41    H 3   s     0.00015
  42    H 3   p     0.00002
  43    H 4   s     0.00012
  44    H 4   p     0.00002
  45    H 5   s     0.00000
  46    H 5   p     0.00156
  47    C 9   s     0.00067
  48    C 9   p     0.06789
  49    C 9   d     0.00166
  50    C 9   f     0.00027
  51    C 10  s     0.00074
  52    C 10  p     0.07487
  53    C 10  d     0.00080
  54    C 10  f     0.00027
  55    C 11  s     0.00009
  56    C 11  p     0.00080
  57    C 11  d     0.01841
  58    C 11  f     0.00133
  59    C 12  s     0.00006
  60    C 12  p     0.00023
  61    C 12  d     0.01874
  62    C 12  f     0.00136
  63    C 13  s     0.00000
  64    C 13  p     0.05659
  65    C 13  d     0.00148
  66    C 13  f     0.00007
  67    H 6   s     0.00019
  68    H 6   p     0.00138
  69    H 7   s     0.00015
  70    H 7   p     0.00002
  71    H 8   s     0.00013
  72    H 8   p     0.00189
  73    H 9   s     0.00012
  74    H 9   p     0.00002
  75    H 10  s     0.00000
  76    H 10  p     0.00156
 
 -----------------------------------------------------------------
                    Cartesian Multipole Moments
 -----------------------------------------------------------------
    Charge (ESU x 10^10)
                 0.0000
    Dipole Moment (Debye)
         X       0.0000      Y       0.0000      Z      -1.2403
       Tot       1.2403
    Quadrupole Moments (Debye-Ang)
        XX     -70.5259     XY      -2.3255     YY     -86.4440
        XZ      -0.0000     YZ      -0.0000     ZZ     -78.6484
    Octopole Moments (Debye-Ang^2)
       XXX       0.0000    XXY       0.0000    XYY      -0.0000
       YYY       0.0000    XXZ      -1.6719    XYZ     -16.8560
       YYZ       3.7668    XZZ       0.0000    YZZ       0.0000
       ZZZ      -5.0451
    Hexadecapole Moments (Debye-Ang^3)
      XXXX   -3099.2427   XXXY     -65.8070   XXYY    -666.2262
      XYYY      -4.3101   YYYY    -208.5015   XXXZ      -0.0001
      XXYZ      -0.0000   XYYZ      -0.0000   YYYZ       0.0000
      XXZZ    -643.5833   XYZZ       8.0175   YYZZ    -151.0575
      XZZZ      -0.0000   YZZZ      -0.0000   ZZZZ    -736.3449
 -----------------------------------------------------------------
 Mayer SCF Bond Order, atomic valence on the diagonal:

            1           2           3           4           5           6
    1   1.7547322   0.1597129   0.2293561   0.0697691   0.0137770   0.0524818
    2   0.1597129   1.1032004  -0.0302247  -0.0302050   0.0072896   0.0197268
    3   0.2293561  -0.0302247   3.6750207  -0.0719751   0.0017499   0.0072078
    4   0.0697691  -0.0302050  -0.0719751   3.6750544   1.3576825   1.3822919
    5   0.0137770   0.0072896   0.0017499   1.3576825   4.0190813   0.0522992
    6   0.0524818   0.0197268   0.0072078   1.3822919   0.0522992   3.9783969
    7   0.0140114  -0.0000036  -0.0007995  -0.0273988   0.0634408   1.4661570
    8   0.0245196   0.0011518   0.0024988  -0.0472869   1.4845714   0.0610399
    9   0.0155069   0.0034278   0.0006780   0.0465061   0.0619042   0.0429067
   10   0.0054736   0.0001352  -0.0003649  -0.0112309   0.9761987   0.0058155
   11   0.0021392   0.0081445  -0.0000722  -0.0031697   0.0062084   0.9701662
   12   0.0016535   0.0001087   0.0000549   0.0056781  -0.0123491   0.0006222
   13  -0.0026128   0.0000569   0.0001783   0.0059075   0.0005238  -0.0121027
   14  -0.0002190   0.0000368   0.0000302   0.0006196   0.0051993   0.0053833
   15   0.0343801   0.0072920   1.3576519   0.0017826   0.0230842   0.0081512
   16   0.0339277   0.0197318   1.3822445   0.0072242   0.0081451   0.0030867
   17  -0.0460287   0.0011506  -0.0471808   0.0024798  -0.0025486  -0.0021342
   18  -0.0174215  -0.0000057  -0.0272935  -0.0008142  -0.0013149   0.0004558
   19   0.0100997   0.0034290   0.0464784   0.0006921   0.0027500   0.0021291
   20  -0.0076019   0.0001351  -0.0112141  -0.0003653  -0.0002651   0.0000089
   21   0.0060059   0.0001089   0.0056798   0.0000544   0.0000174   0.0000832
   22  -0.0041873   0.0081446  -0.0031791  -0.0000703   0.0002057   0.0000441
   23   0.0026654   0.0000569   0.0059091   0.0001788  -0.0000187   0.0000282
   24   0.0000247   0.0000368   0.0006164   0.0000312   0.0000947   0.0000635
            7           8           9          10          11          12
    1   0.0140114   0.0245196   0.0155069   0.0054736   0.0021392   0.0016535
    2  -0.0000036   0.0011518   0.0034278   0.0001352   0.0081445   0.0001087
    3  -0.0007995   0.0024988   0.0006780  -0.0003649  -0.0000722   0.0000549
    4  -0.0273988  -0.0472869   0.0465061  -0.0112309  -0.0031697   0.0056781
    5   0.0634408   1.4845714   0.0619042   0.9761987   0.0062084  -0.0123491
    6   1.4661570   0.0610399   0.0429067   0.0058155   0.9701662   0.0006222
    7   3.9286879   0.0200978   1.4344537   0.0006291  -0.0118716   0.0057307
    8   0.0200978   3.9007581   1.4073301  -0.0116554   0.0006091   0.9793611
    9   1.4344537   1.4073301   3.9821951   0.0065026   0.0061336  -0.0100988
   10   0.0006291  -0.0116554   0.0065026   0.9677970   0.0007044  -0.0001531
   11  -0.0118716   0.0006091   0.0061336   0.0007044   0.9755160   0.0000044
   12   0.0057307   0.9793611  -0.0100988  -0.0001531   0.0000044   0.9704728
   13   0.9804872   0.0060096  -0.0102763   0.0000099  -0.0001077   0.0006701
   14  -0.0101525  -0.0105820   0.9795625   0.0005336   0.0005739  -0.0001221
   15  -0.0013190  -0.0025483   0.0027524  -0.0002638   0.0002057   0.0000172
   16   0.0004589  -0.0021251   0.0021242   0.0000102   0.0000444   0.0000831
   17   0.0008190   0.0036559  -0.0010719   0.0002083  -0.0000583   0.0000098
   18  -0.0001275   0.0008153   0.0002256   0.0004132   0.0000199  -0.0000395
   19   0.0002236  -0.0010697   0.0015285   0.0004142   0.0000056   0.0000379
   20   0.0004131   0.0002104   0.0004146  -0.0035408   0.0000148   0.0000062
   21  -0.0000396   0.0000096   0.0000380   0.0000062   0.0000053   0.0000014
   22   0.0000200  -0.0000581   0.0000056   0.0000147   0.0000020   0.0000053
   23   0.0000087   0.0000339   0.0000041   0.0000029   0.0000025  -0.0000008
   24   0.0000058  -0.0000711   0.0000369   0.0000102   0.0000026  -0.0000004
           13          14          15          16          17          18
    1  -0.0026128  -0.0002190   0.0343801   0.0339277  -0.0460287  -0.0174215
    2   0.0000569   0.0000368   0.0072920   0.0197318   0.0011506  -0.0000057
    3   0.0001783   0.0000302   1.3576519   1.3822445  -0.0471808  -0.0272935
    4   0.0059075   0.0006196   0.0017826   0.0072242   0.0024798  -0.0008142
    5   0.0005238   0.0051993   0.0230842   0.0081451  -0.0025486  -0.0013149
    6  -0.0121027   0.0053833   0.0081512   0.0030867  -0.0021342   0.0004558
    7   0.9804872  -0.0101525  -0.0013190   0.0004589   0.0008190  -0.0001275
    8   0.0060096  -0.0105820  -0.0025483  -0.0021251   0.0036559   0.0008153
    9  -0.0102763   0.9795625   0.0027524   0.0021242  -0.0010719   0.0002256
   10   0.0000099   0.0005336  -0.0002638   0.0000102   0.0002083   0.0004132
   11  -0.0001077   0.0005739   0.0002057   0.0000444  -0.0000583   0.0000199
   12   0.0006701  -0.0001221   0.0000172   0.0000831   0.0000098  -0.0000395
   13   0.9719989  -0.0001334  -0.0000185   0.0000283   0.0000337   0.0000087
   14  -0.0001334   0.9715138   0.0000965   0.0000638  -0.0000722   0.0000057
   15  -0.0000185   0.0000965   4.0189015   0.0521831   1.4846376   0.0634515
   16   0.0000283   0.0000638   0.0521831   3.9783333   0.0610688   1.4662333
   17   0.0000337  -0.0000722   1.4846376   0.0610688   3.9010926   0.0201550
   18   0.0000087   0.0000057   0.0634515   1.4662333   0.0201550   3.9289643
   19   0.0000042   0.0000373   0.0617941   0.0428142   1.4074341   1.4345411
   20   0.0000029   0.0000103   0.9761646   0.0058094  -0.0116308   0.0006303
   21  -0.0000008  -0.0000005  -0.0123460   0.0006236   0.9793604   0.0057318
   22   0.0000025   0.0000026   0.0062085   0.9701667   0.0006092  -0.0118726
   23   0.0000010  -0.0000001   0.0005232  -0.0120952   0.0060100   0.9804752
   24  -0.0000001   0.0000013   0.0051994   0.0053822  -0.0105684  -0.0101391
           19          20          21          22          23          24
    1   0.0100997  -0.0076019   0.0060059  -0.0041873   0.0026654   0.0000247
    2   0.0034290   0.0001351   0.0001089   0.0081446   0.0000569   0.0000368
    3   0.0464784  -0.0112141   0.0056798  -0.0031791   0.0059091   0.0006164
    4   0.0006921  -0.0003653   0.0000544  -0.0000703   0.0001788   0.0000312
    5   0.0027500  -0.0002651   0.0000174   0.0002057  -0.0000187   0.0000947
    6   0.0021291   0.0000089   0.0000832   0.0000441   0.0000282   0.0000635
    7   0.0002236   0.0004131  -0.0000396   0.0000200   0.0000087   0.0000058
    8  -0.0010697   0.0002104   0.0000096  -0.0000581   0.0000339  -0.0000711
    9   0.0015285   0.0004146   0.0000380   0.0000056   0.0000041   0.0000369
   10   0.0004142  -0.0035408   0.0000062   0.0000147   0.0000029   0.0000102
   11   0.0000056   0.0000148   0.0000053   0.0000020   0.0000025   0.0000026
   12   0.0000379   0.0000062   0.0000014   0.0000053  -0.0000008  -0.0000004
   13   0.0000042   0.0000029  -0.0000008   0.0000025   0.0000010  -0.0000001
   14   0.0000373   0.0000103  -0.0000005   0.0000026  -0.0000001   0.0000013
   15   0.0617941   0.9761646  -0.0123460   0.0062085   0.0005232   0.0051994
   16   0.0428142   0.0058094   0.0006236   0.9701667  -0.0120952   0.0053822
   17   1.4074341  -0.0116308   0.9793604   0.0006092   0.0060100  -0.0105684
   18   1.4345411   0.0006303   0.0057318  -0.0118726   0.9804752  -0.0101391
   19   3.9821869   0.0064970  -0.0100983   0.0061331  -0.0102683   0.9795256
   20   0.0064970   0.9677880  -0.0001519   0.0007045   0.0000098   0.0005344
   21  -0.0100983  -0.0001519   0.9704792   0.0000045   0.0006702  -0.0001220
   22   0.0061331   0.0007045   0.0000045   0.9755137  -0.0001077   0.0005743
   23  -0.0102683   0.0000098   0.0006702  -0.0001077   0.9720043  -0.0001328
   24   0.9795256   0.0005344  -0.0001220   0.0005743  -0.0001328   0.9715020


 Total job time:  15836.40s(wall), 13430.83s(cpu) 
 Tue Nov 14 20:06:25 2023

        *************************************************************
        *                                                           *
        *  Thank you very much for using Q-Chem.  Have a nice day.  *
        *                                                           *
        *************************************************************


