                  Welcome to Q-Chem
     A Quantum Leap Into The Future Of Chemistry


 Q-Chem 6.0 (devel), Q-Chem, Inc., Pleasanton, CA (2022)

 E. Epifanovsky,  A. T. B. Gilbert,  Xintian Feng,  Joonho Lee,  Yuezhi Mao,  
 N. Mardirossian,  P. Pokhilko,  A. White,  M. Wormit,  M. P. Coons,  
 A. L. Dempwolff,  Zhengting Gan,  D. Hait,  P. R. Horn,  L. D. Jacobson,  
 I. Kaliman,  J. Kussmann,  A. W. Lange,  Ka Un Lao,  D. S. Levine,  Jie Liu,  
 S. C. McKenzie,  A. F. Morrison,  K. Nanda,  F. Plasser,  D. R. Rehn,  
 M. L. Vidal,  Zhi-Qiang You,  Ying Zhu,  B. Alam,  B. Albrecht,  
 A. Aldossary,  E. Alguire,  J. H. Andersen,  V. Athavale,  D. Barton,  
 K. Begam,  A. Behn,  N. Bellonzi,  Y. A. Bernard,  E. J. Berquist,  
 H. Burton,  A. Carreras,  K. Carter-Fenk,  Romit Chakraborty,  
 Chandrima Chakravarty,  Junhan Chen,  A. D. Chien,  K. D. Closser,  
 V. Cofer-Shabica,  L. Cunha,  S. Dasgupta,  Jia Deng,  M. de Wergifosse,  
 M. Diedenhofen,  Hainam Do,  S. Ehlert,  Po-Tung Fang,  S. Fatehi,  
 Qingguo Feng,  T. Friedhoff,  B. Ganoe,  J. Gayvert,  Qinghui Ge,  
 G. Gidofalvi,  M. Goldey,  J. Gomes,  C. Gonzalez-Espinoza,  S. Gulania,  
 A. Gunina,  J. A. Gyamfi,  M. W. D. Hanson-Heine,  P. H. P. Harbach,  
 A. W. Hauser,  M. F. Herbst,  M. Hernandez Vera,  M. Hodecker,  
 Z. C. Holden,  S. Houck,  Xunkun Huang,  Kerwin Hui,  B. C. Huynh,  
 K. Ikeda,  M. Ivanov,  Hyunjun Ji,  Zuxin Jin,  Hanjie Jiang,  B. Kaduk,  
 S. Kaehler,  R. Kang,  K. Khistyaev,  Jaehoon Kim,  Yongbin Kim,  
 P. Klunzinger,  Z. Koczor-Benda,  Joong Hoon Koh,  D. Kosenkov,  
 Saikiran Kotaru,  L. Koulias,  T. Kowalczyk,  C. M. Krauter,  K. Kue,  
 A. Kunitsa,  T. Kus,  A. Landau,  K. V. Lawler,  D. Lefrancois,  S. Lehtola,  
 Rain Li,  Shaozhi Li,  Yi-Pei Li,  Jiashu Liang,  M. Liebenthal,  
 Hung-Hsuan Lin,  You-Sheng Lin,  Fenglai Liu,  Kuan-Yu Liu,  
 M. Loipersberger,  A. Luenser,  C. Malbon,  A. Manjanath,  P. Manohar,  
 E. Mansoor,  S. F. Manzer,  Shan-Ping Mao,  A. V. Marenich,  T. Markovich,  
 S. Mason,  F. Matz,  S. A. Maurer,  P. F. McLaughlin,  M. F. S. J. Menger,  
 J.-M. Mewes,  S. A. Mewes,  P. Morgante,  Mohammad Mostafanejad,  
 J. W. Mullinax,  K. J. Oosterbaan,  G. Paran,  V. Parravicini,  
 Alexander C. Paul,  Suranjan K. Paul,  F. Pavosevic,  Zheng Pei,  S. Prager,  
 E. I. Proynov,  E. Ramos,  B. Rana,  A. E. Rask,  A. Rettig,  R. M. Richard,  
 F. Rob,  E. Rossomme,  T. Scheele,  M. Scheurer,  M. Schneider,  
 P. E. Schneider,  N. Sergueev,  S. M. Sharada,  Hengyuan Shen,  
 W. Skomorowski,  D. W. Small,  C. J. Stein,  Yingli Su,  Yu-Chuan Su,  
 E. J. Sundstrom,  Zhen Tao,  J. Thirman,  Hung-Yi Tsai,  T. Tsuchimochi,  
 N. M. Tubman,  C. Utku,  S. P. Veccham,  O. Vydrov,  J. Wenzel,  
 Jonathan Wong,  J. Witte,  A. Yamada,  Chou-Hsun Yang,  Kun Yao,  
 S. Yeganeh,  S. R. Yost,  A. Zech,  F. Zeller,  Igor Ying Zhang,  
 Xing Zhang,  Yu Zhang,  D. Zuev,  A. Aspuru-Guzik,  A. T. Bell,  
 N. A. Besley,  K. B. Bravaya,  B. R. Brooks,  D. Casanova,  Jeng-Da Chai,  
 Hsing-Ta Chen,  S. Coriani,  C. J. Cramer,  A. E. DePrince, III,  
 R. A. DiStasio Jr.,  A. Dreuw,  B. D. Dunietz,  T. R. Furlani,  
 W. A. Goddard III,  S. Grimme,  S. Hammes-Schiffer,  T. Head-Gordon,  
 W. J. Hehre,  Chao-Ping Hsu,  T.-C. Jagau,  Yousung Jung,  A. Klamt,  
 Jing Kong,  D. S. Lambrecht,  Xiangyuan Li,  WanZhen Liang,  N. J. Mayhall,  
 C. W. McCurdy,  J. B. Neaton,  T. Neudecker,  C. Ochsenfeld,  
 J. A. Parkhill,  R. Peverati,  V. A. Rassolov,  Haisheng Ren,  Yihan Shao,  
 L. V. Slipchenko,  R. P. Steele,  J. E. Subotnik,  A. J. W. Thom,  
 A. Tkatchenko,  D. G. Truhlar,  T. Van Voorhis,  Fan Wang,  
 T. A. Wesolowski,  K. B. Whaley,  H. L. Woodcock III,  P. M. Zimmerman,  
 S. Faraji,  P. M. W. Gill,  M. Head-Gordon,  J. M. Herbert,  A. I. Krylov

 Contributors to earlier versions of Q-Chem not listed above: 
 R. D. Adamson,  B. Austin,  R. Baer,  J. Baker,  G. J. O. Beran,  
 K. Brandhorst,  S. T. Brown,  E. F. C. Byrd,  Arup K. Chakraborty,  
 G. K. L. Chan,  Chun-Min Chang,  Yunqing Chen,  C.-L. Cheng,  
 Siu Hung Chien,  D. M. Chipman,  D. L. Crittenden,  H. Dachsel,  
 R. J. Doerksen,  A. D. Dutoi,  R. G. Edgar,  J. Fosso-Tande,  
 L. Fusti-Molnar,  D. Ghosh,  A. Ghysels,  A. Golubeva-Zadorozhnaya,  
 J. Gonthier,  M. S. Gordon,  S. R. Gwaltney,  G. Hawkins,  J. E. Herr,  
 A. Heyden,  S. Hirata,  E. G. Hohenstein,  G. Kedziora,  F. J. Keil,  
 C. Kelley,  Jihan Kim,  R. A. King,  R. Z. Khaliullin,  P. P. Korambath,  
 W. Kurlancheek,  A. Laurent,  A. M. Lee,  M. S. Lee,  S. V. Levchenko,  
 Ching Yeh Lin,  D. Liotard,  E. Livshits,  R. C. Lochan,  I. Lotan,  
 L. A. Martinez-Martinez,  P. E. Maslen,  N. Nair,  D. P. O'Neill,  
 D. Neuhauser,  E. Neuscamman,  C. M. Oana,  R. Olivares-Amaya,  R. Olson,  
 T. M. Perrine,  B. Peters,  P. A. Pieniazek,  A. Prociuk,  Y. M. Rhee,  
 J. Ritchie,  M. A. Rohrdanz,  E. Rosta,  N. J. Russ,  H. F. Schaefer III,  
 M. W. Schmidt,  N. E. Schultz,  S. Sharma,  N. Shenvi,  C. D. Sherrill,  
 A. C. Simmonett,  A. Sodt,  T. Stein,  D. Stuck,  K. S. Thanthiriwatte,  
 V. Vanovschi,  L. Vogt,  Tao Wang,  A. Warshel,  M. A. Watson,  
 C. F. Williams,  Q. Wu,  X. Xu,  Jun Yang,  W. Zhang,  Yan Zhao

   Please cite Q-Chem as follows:
  "Software for the frontiers of quantum chemistry:
   An overview of developments in the Q-Chem 5 package"
   J. Chem. Phys. 155, 084801 (2021)
   https://doi.org/10.1063/5.0055522 (open access)

 Q-Chem 6.0.1 for Intel X86 EM64T Linux

 Parts of Q-Chem use Armadillo 9.900.5 (Nocturnal Misbehaviour).
 http://arma.sourceforge.net/

 Q-Chem begins on Thu Sep  7 12:37:36 2023  

 Host: atlas-126
0

     Scratch files written to ./qchem18358//
 Processing $rem in /scratch/abel/SOFTWARE/qchem/config/preferences:
 Processing $rem in /dipc/acebg/.qchemrc:

 Checking the input file for inconsistencies... 	...done.

--------------------------------------------------------------
User input:
--------------------------------------------------------------
$comment
 RAS-SF CALCULATION
$end

$molecule
 READ benzoquinone.molecule
$end

$rem
!**CALCULATION TYPE***     
JOBTYPE            sp    
EXCHANGE           HF
CORRELATION        RASCI    !RASCI=Casanova; RASCI2=Zimmerman
BASIS              def2-TZVP

!***SCF REFERENCE***
INPUT_BOHR          TRUE
!SKIP_SCFMAN        FALSE
UNRESTRICTED       FALSE
!SCF_GUESS          core
!SCF_GUESS_MIX      FALSE
!SCF_GUESS_ALWAYS   FALSE
MAX_SCF_CYCLES     999
!SCF_CONVERGENCE    8
SCF_ALGORITHM      DIIS_GDM !DIIS,DM,DIIS_DM,GDM,DIIS_GDM,GD

!SYMMETRY           TRUE   !use of symmetry for calculating integrals
!SYM_IGNORE         FALSE  !turn off using symmetry
!SYM_TOL            5      !tolerance for determining point group
!USE_ABELIAN_SUBGROUP      !define to use abelian group

!THRESH             14
SCF_FINAL_PRINT     1 !0,1,2,3

!****RAS-SF****
RAS_ROOTS          10       !number of RAS-CI roots to be computed
SET_ITER           100     !number of iterations in RASCI
RAS_ELEC           8       !number of electrons in RAS2
RAS_ELEC_ALPHA     5       !spin-α electrons in RAS2 
RAS_ELEC_BETA      3       !spin-β electrons in RAS2

RAS_ACT            7       !number of orbitals in RAS2 
RAS_ACT_ORB  [24,25,27,28,29,30,31]  !user-selected RAS2 orbitals
RAS_OCC            24       !number of orbitals in RAS1
N_FROZEN_CORE      FC     !Number of frozen core orbitals
N_FROZEN_VIRTUAL   0      !Number of frozen virtual orbitals

RAS_DO_HOLE        TRUE   !presence of hole excitations in RAS-CI wave function
RAS_DO_PART        TRUE   !presence of particle excitations
!RAS_AMPL_PRINT     10     !threshold (×10 2 ) for the CI amplitudes

!RAS_GUESS_CS       0      !number of closed shell guess conﬁgurations
!RAS_SPIN_MULT      0      !spin multiplicity. Only for Ms = 0 
!RAS_SRDFT          FALSE  !short-range density functional RAS-CI
!RAS_NFRAG          0     !fragments of excitation analysis in RASCI

RAS_PRINT          2      !level of information
RAS_NATORB         TRUE   !computation of the natural orbital occupancies
!RAS_NATORB_STATE  0      !Saves NO of i RAS computed state in .fchk ﬁle
!RAS_FOD            TRUE

!****RAS-SOC****
CALC_SOC           TRUE   !calculate SOC for EOM-CC, RAS-CI, ADC, TDDFT/TDA and TDDFT
!RAS_SOC_2E        TRUE   !two-electron mean-ﬁeld contribution, default=true
RAS_SOC_SYM_DENS   TRUE   !averaging of α and β densities

!****MEMORY****
MEM_TOTAL          12000 !Default 2000 MB
MEM_STATIC         3000  !Default 64 MB

!**Molecular Properties and Analysis **                                                                                          
POP_MULLIKEN       TRUE   !Run Mulliken population analysis
LOWDIN_POPULATION  TRUE   !Run Löwdin population analysis
GUI                2       !Checkpoints generation
STATE_ANALYSIS     TRUE

!**Wave function analysis of RAS-CI states: MOLDEN**
!PLOTS = 0     ! Note: This can be omitted, default is 0
!NTO_PAIRS = 2 ! Note: This can be omitted, default is 2
!GUI 0
!MOLDEN_FORMAT      TRUE
!PRINT_ORBITALS     15

!**Wave function analysis of RAS-CI state: CUBE**
!NTO_PAIRS = 2 ! Note: This can be omitted, default is 2
!PLOTS = 1
!GUI 0

!**SR-DFT**
!RAS_SRDFT           TRUE !Perform short-range density functional RAS-CI
!RAS_SRDFT_EXC       0 !EX functional. 0=HF. 
!RAS_SRDFT_ONLY_COR  TRUE !No use of EXC functional
!RAS_SRDFT_COR       srPBE !short-range correlation functional
!ras_srdft_0         TRUE !true: no iteration (one-shot); false: iteration
!RAS_OMEGA           400 !Coulomb range-separation parameter. def=400
!RAS_SRDFT_DAMP     0.5 !dumping factor. def=0.5
$end

!$plots
!   grid_points 100 100 100
!   grid_range  (-10,10) (-10,10) (-10,10)
!$end

--------------------------------------------------------------
 ----------------------------------------------------------------
             Standard Nuclear Orientation (Bohr)
    I     Atom           X                Y                Z
 ----------------------------------------------------------------
    1      O       0.0000000000    -0.0000000000     5.0873465738
    2      C       0.0000000000    -0.0000000000     2.6403222818
    3      C       2.3453549260    -0.0000000000     1.3021362826
    4      C      -2.3453549260     0.0000000000     1.3021362826
    5      C      -2.3309491506     0.0000000000    -1.2666211182
    6      C       2.3309491506    -0.0000000000    -1.2666211182
    7      C      -0.0000000000     0.0000000000    -2.7415020535
    8      O      -0.0000000000     0.0000000000    -5.0815679785
    9      H       4.0818321701    -0.0000000000     2.3803198434
   10      H      -4.0818321701     0.0000000000     2.3803198434
   11      H       4.0900977079    -0.0000000000    -2.3129858956
   12      H      -4.0900977079     0.0000000000    -2.3129858956
 ----------------------------------------------------------------
 Molecular Point Group                 C2v   NOp =  4
 Largest Abelian Subgroup              C2v   NOp =  4
 Nuclear Repulsion Energy =         323.04806769 hartrees
 There are       29 alpha and       27 beta electrons
 Requested basis set is def2-TZVP
 There are 104 shells and 272 basis functions

 Total QAlloc Memory Limit  12000 MB
 Mega-Array Size      2933 MB
 MEM_STATIC part      3000 MB


                       Distance Matrix (Bohrs)
             O (  1)   C (  2)   C (  3)   C (  4)   C (  5)   C (  6)
   C (  2)  2.447024
   C (  3)  4.452921  2.700265
   C (  4)  4.452921  2.700265  4.690710
   C (  5)  6.768030  4.549454  5.335385  2.568798
   C (  6)  6.768030  4.549454  2.568798  5.335385  4.661898
   C (  7)  7.828849  5.381824  4.674580  4.674580  2.758369  2.758369
   O (  8) 10.168915  7.721890  6.800909  6.800909  4.470698  4.470698
   H (  9)  4.897892  4.090105  2.043975  6.516994  7.377258  4.045463
   H ( 10)  4.897892  4.090105  6.516994  2.043975  4.045463  7.377258
   H ( 11)  8.455402  6.423719  4.014130  7.381339  6.505745  2.046823
   H ( 12)  8.455402  6.423719  7.381339  4.014130  2.046823  6.505745
             C (  7)   O (  8)   H (  9)   H ( 10)   H ( 11)
   O (  8)  2.340066
   H (  9)  6.549383  8.505359
   H ( 10)  6.549383  8.505359  8.163664
   H ( 11)  4.112484  4.939023  4.693313  9.423776
   H ( 12)  4.112484  4.939023  9.423776  4.693313  8.180195
 
 A cutoff of  1.0D-09 yielded   4846 shell pairs
 There are     33506 function pairs (     43959 Cartesian)
 Smallest overlap matrix eigenvalue = 1.49E-05

 Q-Chem warning in module stvman/mkSTV.C, line 313:

 Overlap eigenvalue is smaller than square root of threshold
 Use THRESH >= 12 to get rid of this warning


 Scale SEOQF with 1.000000e-01/1.000000e+00/1.000000e-01

 Standard Electronic Orientation quadrupole field applied
 Nucleus-field energy     =    -0.0000000149 hartrees
 Guess from superposition of atomic densities
 Warning:  Energy on first SCF cycle will be non-variational
 SAD guess density has 56.000000 electrons

 -----------------------------------------------------------------------
  General SCF calculation program by
  Eric Jon Sundstrom, Paul Horn, Yuezhi Mao, Dmitri Zuev, Alec White,
  David Stuck, Shaama M.S., Shane Yost, Joonho Lee, David Small,
  Daniel Levine, Susi Lehtola, Hugh Burton, Evgeny Epifanovsky,
  Bang C. Huynh
 -----------------------------------------------------------------------
 Hartree-Fock
 Orthonormalizing orbitals
 A restricted open-shell SCF calculation will be
 performed using DIIS, GDM
 SCF converges when RMS gradient is below 1.0e-05
 ---------------------------------------
  Cycle       Energy         DIIS error
 ---------------------------------------
    1    -376.8835350883      3.77e-02  
    2    -373.8616784449      5.38e-02  
    3    -378.8547908869      1.32e-02  
    4    -379.1341612475      4.52e-03  Done DIIS. Switching to GDM
 ---------------------------------------
  Cycle       Energy        RMS Gradient
 ---------------------------------------
    1    -379.1341612475      6.70e-02   Descent step
    2    -379.1687019556      1.74e-01   Normal BFGS step
    3    -379.2062927982      8.50e-02   Dog-leg BFGS step
    4    -379.2695892393      1.86e-01   Dog-leg BFGS step
    5    -379.2925237592      1.90e-01   Normal BFGS step
    6    -379.2849269867      1.43e-01  Line search: overstep
    7    -379.3006320691      7.43e-02   Dog-leg BFGS step
    8    -379.2587033167      2.28e-01  Line search: overstep
    9    -379.3084489469      1.39e-02   Normal BFGS step
   10    -379.3092432468      4.84e-03   Normal BFGS step
   11    -379.3093337799      3.00e-03   Normal BFGS step
   12    -379.3093527132      2.18e-03   Normal BFGS step
   13    -379.3093642068      1.51e-03   Normal BFGS step
   14    -379.3093740122      6.89e-04   Normal BFGS step
   15    -379.3093774142      2.52e-04   Normal BFGS step
   16    -379.3093785743      2.45e-04   Normal BFGS step
   17    -379.3093787186      1.42e-04   Normal BFGS step
   18    -379.3093788316      4.19e-05   Normal BFGS step
   19    -379.3093787435      1.21e-05  Line search: overstep
   20    -379.3093788202      3.65e-05  Line search: overstep
   21    -379.3093790634      4.14e-05  Line search: understep
   22    -379.3093788239      3.70e-05  Line search: understep
   23    -379.3093789758      3.66e-05  Line search: understep
   24    -379.3093791019      3.65e-05  Line search: understep
   25    -379.3093791313      3.65e-05  Line search: understep
   26    -379.3093791314      3.65e-05  Line search: understep
   27    -379.3093791314      3.65e-05  Line search: understep
   28    -379.3093791314      3.65e-05  Line search: understep
   29    -379.3093791314      3.65e-05  Line search: understep
   30    -379.3093791314      3.65e-05  Line search: understep
   31    -379.3093791314      3.65e-05  Line search: understep
   32    -379.3093791314      3.65e-05  Line search: understep
   33    -379.3093791314      3.65e-05  Line search: understep
   34    -379.3093791314      3.65e-05  Line search: understep
  GDM::   16 failed line searches.  Resetting
   35    -379.3093791314      3.65e-05  Line search: understep
  GDM::   17 failed line searches.  Resetting
   36    -379.3093791314      3.65e-05  Line search: understep
  GDM::   18 failed line searches.  Resetting
   37    -379.3093791314      3.65e-05  Line search: understep
  GDM::   19 failed line searches.  Resetting
   38    -379.3093791314      3.65e-05  Line search: understep
  GDM::   20 failed line searches.  Resetting
   39    -379.3093791314      3.65e-05  Line search: understep
  GDM::   21 failed line searches.  Resetting
   40    -379.3093791314      3.65e-05  Line search: understep
  GDM::   22 failed line searches.  Resetting
   41    -379.3093791314      3.65e-05  Line search: understep
  GDM::   23 failed line searches.  Resetting
   42    -379.3093791314      3.65e-05  Line search: understep
  GDM::   24 failed line searches.  Resetting
   43    -379.3093791314      3.65e-05  Line search: understep
  GDM::   25 failed line searches.  Resetting
   44    -379.3093791314      3.65e-05  Line search: understep
  GDM::   26 failed line searches.  Resetting
   45    -379.3093791314      3.65e-05  Line search: understep
  GDM::   27 failed line searches.  Resetting
   46    -379.3093791314      3.65e-05  Line search: understep
  GDM::   28 failed line searches.  Resetting
   47    -379.3093791314      3.65e-05  Line search: understep
  GDM::   29 failed line searches.  Resetting
   48    -379.3093791314      3.65e-05  Line search: understep
  GDM::   30 failed line searches.  Resetting
   49    -379.3093791314      3.65e-05  Line search: understep
  GDM::   31 failed line searches.  Resetting
   50    -379.3093791314      3.65e-05  Line search: understep
  GDM::   32 failed line searches.  Resetting
   51    -379.3093791313      3.65e-05  Line search: understep
  GDM::   33 failed line searches.  Resetting
   52    -379.3093791164      3.65e-05  Line search: understep
  GDM::   34 failed line searches.  Resetting
   53    -379.3093789926      3.66e-05  Line search: understep
  GDM::   35 failed line searches.  Resetting
   54    -379.3093787928      3.68e-05  Line search: overstep
  GDM::   36 failed line searches.  Resetting
   55    -379.3093789960      3.66e-05  Line search: understep
  GDM::   37 failed line searches.  Resetting
   56    -379.3093787928      3.68e-05  Line search: overstep
  GDM::   38 failed line searches.  Resetting
   57    -379.3093789871      3.66e-05  Line search: understep
  GDM::   39 failed line searches.  Resetting
   58    -379.3093787928      3.68e-05  Line search: overstep
  GDM::   40 failed line searches.  Resetting
   59    -379.3093789868      3.66e-05  Line search: understep
  GDM::   41 failed line searches.  Resetting
   60    -379.3093787928      3.68e-05  Line search: overstep
  GDM::   42 failed line searches.  Resetting
   61    -379.3093789956      3.67e-05  Line search: understep
  GDM::   43 failed line searches.  Resetting
   62    -379.3093787928      3.68e-05  Line search: overstep
  GDM::   44 failed line searches.  Resetting
   63    -379.3093789867      3.67e-05  Line search: understep
  GDM::   45 failed line searches.  Resetting
   64    -379.3093787928      3.68e-05  Line search: overstep
  GDM::   46 failed line searches.  Resetting
   65    -379.3093789835      3.67e-05  Line search: understep
  GDM::   47 failed line searches.  Resetting
   66    -379.3093787928      3.68e-05  Line search: overstep
  GDM::   48 failed line searches.  Resetting
   67    -379.3093789903      3.67e-05  Line search: understep
  GDM::   49 failed line searches.  Resetting
   68    -379.3093787928      3.68e-05  Line search: overstep
  GDM::   50 failed line searches.  Resetting
   69    -379.3093789547      3.67e-05  Line search: understep
  GDM::   51 failed line searches.  Resetting
   70    -379.3093787928      3.68e-05  Line search: overstep
  GDM::   52 failed line searches.  Resetting
   71    -379.3093789315      3.67e-05  Line search: understep
  GDM::   53 failed line searches.  Resetting
   72    -379.3093787928      3.68e-05  Line search: overstep
  GDM::   54 failed line searches.  Resetting
   73    -379.3093789539      3.67e-05  Line search: understep
  GDM::   55 failed line searches.  Resetting
   74    -379.3093787928      3.68e-05  Line search: overstep
  GDM::   56 failed line searches.  Resetting
   75    -379.3093789411      3.67e-05  Line search: understep
  GDM::   57 failed line searches.  Resetting
   76    -379.3093787928      3.68e-05  Line search: overstep
  GDM::   58 failed line searches.  Resetting
   77    -379.3093789383      3.68e-05  Line search: understep
  GDM::   59 failed line searches.  Resetting
   78    -379.3093787928      3.68e-05  Line search: overstep
  GDM::   60 failed line searches.  Resetting
   79    -379.3093789331      3.68e-05  Line search: understep
  GDM::   61 failed line searches.  Resetting
   80    -379.3093787928      3.68e-05  Line search: overstep
  GDM::   62 failed line searches.  Resetting
   81    -379.3093789075      3.68e-05  Line search: understep
  GDM::   63 failed line searches.  Resetting
   82    -379.3093787928      3.68e-05  Line search: overstep
  GDM::   64 failed line searches.  Resetting
   83    -379.3093789174      3.67e-05  Line search: understep
  GDM::   65 failed line searches.  Resetting
   84    -379.3093787928      3.68e-05  Line search: overstep
  GDM::   66 failed line searches.  Resetting
   85    -379.3093789252      3.67e-05  Line search: understep
  GDM::   67 failed line searches.  Resetting
   86    -379.3093787928      3.68e-05  Line search: overstep
  GDM::   68 failed line searches.  Resetting
   87    -379.3093789347      3.67e-05  Line search: understep
  GDM::   69 failed line searches.  Resetting
   88    -379.3093787928      3.68e-05  Line search: overstep
  GDM::   70 failed line searches.  Resetting
   89    -379.3093789336      3.68e-05  Line search: understep
  GDM::   71 failed line searches.  Resetting
   90    -379.3093787928      3.68e-05  Line search: overstep
  GDM::   72 failed line searches.  Resetting
   91    -379.3093789200      3.68e-05  Line search: understep
  GDM::   73 failed line searches.  Resetting
   92    -379.3093787928      3.68e-05  Line search: overstep
  GDM::   74 failed line searches.  Resetting
   93    -379.3093789108      3.68e-05  Line search: understep
  GDM::   75 failed line searches.  Resetting
   94    -379.3093787928      3.68e-05  Line search: overstep
  GDM::   76 failed line searches.  Resetting
   95    -379.3093789176      3.68e-05  Line search: understep
  GDM::   77 failed line searches.  Resetting
   96    -379.3093787928      3.68e-05  Line search: overstep
  GDM::   78 failed line searches.  Resetting
   97    -379.3093789255      3.68e-05  Line search: understep
  GDM::   79 failed line searches.  Resetting
   98    -379.3093787928      3.68e-05  Line search: overstep
  GDM::   80 failed line searches.  Resetting
   99    -379.3093789145      3.68e-05  Line search: understep
  GDM::   81 failed line searches.  Resetting
  100    -379.3093787928      3.68e-05  Line search: overstep
  GDM::   82 failed line searches.  Resetting
  101    -379.3093788923      3.68e-05  Line search: understep
  GDM::   83 failed line searches.  Resetting
  102    -379.3093787928      3.68e-05  Line search: overstep
  GDM::   84 failed line searches.  Resetting
  103    -379.3093789087      3.68e-05  Line search: understep
  GDM::   85 failed line searches.  Resetting
  104    -379.3093787928      3.68e-05  Line search: overstep
  GDM::   86 failed line searches.  Resetting
  105    -379.3093788940      3.68e-05  Line search: understep
  GDM::   87 failed line searches.  Resetting
  106    -379.3093787928      3.68e-05  Line search: overstep
  GDM::   88 failed line searches.  Resetting
  107    -379.3093788860      3.68e-05  Line search: understep
  GDM::   89 failed line searches.  Resetting
  108    -379.3093787928      3.68e-05  Line search: overstep
  GDM::   90 failed line searches.  Resetting
  109    -379.3093788855      3.68e-05  Line search: understep
  GDM::   91 failed line searches.  Resetting
  110    -379.3093787928      3.68e-05  Line search: overstep
  GDM::   92 failed line searches.  Resetting
  111    -379.3093788821      3.68e-05  Line search: understep
  GDM::   93 failed line searches.  Resetting
  112    -379.3093787928      3.68e-05  Line search: overstep
  GDM::   94 failed line searches.  Resetting
  113    -379.3093788772      3.68e-05  Line search: understep
  GDM::   95 failed line searches.  Resetting
  114    -379.3093787928      3.68e-05  Line search: overstep
  GDM::   96 failed line searches.  Resetting
  115    -379.3093788725      3.68e-05  Line search: understep
  GDM::   97 failed line searches.  Resetting
  116    -379.3093787928      3.68e-05  Line search: overstep
  GDM::   98 failed line searches.  Resetting
  117    -379.3093788676      3.68e-05  Line search: understep
  GDM::   99 failed line searches.  Resetting
  118    -379.3093787928      3.68e-05  Line search: overstep
  GDM::   100 failed line searches.  Resetting
  119    -379.3093788641      3.68e-05  Line search: understep
  GDM::   101 failed line searches.  Resetting
  120    -379.3093787928      3.68e-05  Line search: overstep
  GDM::   102 failed line searches.  Resetting
  121    -379.3093788539      3.68e-05  Line search: understep
  GDM::   103 failed line searches.  Resetting
  122    -379.3093787928      3.68e-05  Line search: overstep
  GDM::   104 failed line searches.  Resetting
  123    -379.3093788414      3.68e-05  Line search: understep
  GDM::   105 failed line searches.  Resetting
  124    -379.3093787928      3.68e-05  Line search: overstep
  GDM::   106 failed line searches.  Resetting
  125    -379.3093788346      3.68e-05   Normal BFGS step
  126    -379.3093788712      5.64e-05   Normal BFGS step
  127    -379.3093788724      4.37e-06  Convergence criterion met
The disked orbital energies are calculated using alpha and beta Focks
 ---------------------------------------
 Alpha HF Exchange    Energy = -25.10518924464073
 Beta HF Exchange     Energy = -23.91351176927237
 Nuclear Attraction   Energy =   0.00000000000000
 One-Electron (alpha) Energy = -593.55107508241338
 One-Electron (beta)  Energy = -562.84083362547926
 Total Coulomb        Energy = 503.05316317268182
 Final Alpha MO Eigenvalues
            1           2           3           4           5           6
    1 -20.7052455 -20.5339197 -11.3585372 -11.3232332 -11.2772393 -11.2772155
            7           8           9          10          11          12
    1 -11.2671692 -11.2671567  -1.5121014  -1.3706696  -1.1716282  -1.0682891
           13          14          15          16          17          18
    1  -0.9996326  -0.8786083  -0.8411287  -0.7581292  -0.7019269  -0.6847818
           19          20          21          22          23          24
    1  -0.6968878  -0.6329058  -0.6327060  -0.5884600  -0.5583871  -0.5779687
           25          26          27          28          29          30
    1  -0.4822421  -0.4282395  -0.4055700  -0.6868829  -0.2911236   0.0836621
           31          32          33          34          35          36
    1   0.1211295   0.1480171   0.1630140   0.1744043   0.2033081   0.2071780
           37          38          39          40          41          42
    1   0.2511379   0.2633571   0.2865765   0.3096835   0.3146732   0.3218300
           43          44          45          46          47          48
    1   0.3274458   0.3464408   0.3603207   0.3887766   0.4052898   0.4328109
           49          50          51          52          53          54
    1   0.4333651   0.4467242   0.4503572   0.4712376   0.4994513   0.4996510
           55          56          57          58          59          60
    1   0.5223161   0.5272027   0.5304169   0.5566469   0.5575826   0.5606810
           61          62          63          64          65          66
    1   0.5646445   0.5987457   0.5989740   0.5971828   0.6300679   0.6509345
           67          68          69          70          71          72
    1   0.6534440   0.6805445   0.7033201   0.7647368   0.7748848   0.7736354
           73          74          75          76          77          78
    1   0.7789890   0.8199976   0.8598177   0.8633291   0.8822638   0.8933720
           79          80          81          82          83          84
    1   0.8986811   0.9371050   0.9717267   0.9930921   0.9956812   0.9922812
           85          86          87          88          89          90
    1   1.0255807   1.0361055   1.0493753   1.0582530   1.0966672   1.1767470
           91          92          93          94          95          96
    1   1.2136726   1.2195214   1.2319722   1.2375359   1.2964941   1.3230999
           97          98          99         100         101         102
    1   1.3814284   1.3931700   1.3933812   1.4138766   1.4149698   1.4597161
          103         104         105         106         107         108
    1   1.4742657   1.4855502   1.5516497   1.5998142   1.6157958   1.6372746
          109         110         111         112         113         114
    1   1.6521475   1.6557500   1.7165876   1.7208222   1.7308147   1.7604509
          115         116         117         118         119         120
    1   1.8044778   1.8200583   1.8444381   1.8766370   1.9008636   1.9031023
          121         122         123         124         125         126
    1   1.9242191   1.9513510   1.9735079   1.9730912   2.0438674   2.0836909
          127         128         129         130         131         132
    1   2.0825879   2.0984583   2.1334346   2.1808307   2.1862946   2.2172149
          133         134         135         136         137         138
    1   2.2749096   2.2954526   2.3028607   2.3764304   2.3974433   2.3978851
          139         140         141         142         143         144
    1   2.4369397   2.4443077   2.5208321   2.5281480   2.5674962   2.6220324
          145         146         147         148         149         150
    1   2.6254225   2.6510631   2.7250359   2.7533999   2.8037537   2.8243135
          151         152         153         154         155         156
    1   2.8279134   2.8458660   2.8729173   2.9023086   2.9029889   2.9364872
          157         158         159         160         161         162
    1   2.9411056   2.9539351   2.9723481   3.0058955   3.0296413   3.0369245
          163         164         165         166         167         168
    1   3.0379142   3.0655228   3.0762061   3.1129273   3.1475664   3.1769459
          169         170         171         172         173         174
    1   3.1786593   3.1839947   3.2227443   3.2220377   3.2381162   3.2755673
          175         176         177         178         179         180
    1   3.3390797   3.3552920   3.3775202   3.4034591   3.4150112   3.4533872
          181         182         183         184         185         186
    1   3.4609285   3.4603785   3.4589664   3.4782927   3.4861887   3.5008263
          187         188         189         190         191         192
    1   3.5146769   3.5718808   3.5789317   3.6096166   3.6476658   3.6675195
          193         194         195         196         197         198
    1   3.6815035   3.7192696   3.7221569   3.7248550   3.7527164   3.7558086
          199         200         201         202         203         204
    1   3.7716895   3.7844125   3.7873683   3.8167695   3.9265381   3.9356453
          205         206         207         208         209         210
    1   3.9604068   4.0079598   4.0699201   4.0691248   4.1330346   4.1787985
          211         212         213         214         215         216
    1   4.2396052   4.2924003   4.3423169   4.3418729   4.3539424   4.3577579
          217         218         219         220         221         222
    1   4.3791466   4.4368979   4.5075838   4.5071659   4.5306983   4.5437438
          223         224         225         226         227         228
    1   4.5871893   4.6514330   4.7806765   4.8060697   4.8656123   4.8792369
          229         230         231         232         233         234
    1   4.9041904   4.9671238   5.0901371   5.1610894   5.1663355   5.1827029
          235         236         237         238         239         240
    1   5.2453852   5.3694748   5.4605798   5.4769878   5.5268362   5.6054956
          241         242         243         244         245         246
    1   5.6622132   5.6806567   5.6931606   5.8009202   5.8945873   5.9707738
          247         248         249         250         251         252
    1   6.0330251   6.2337587   6.3041376   6.5587207   6.5943194   6.6989943
          253         254         255         256         257         258
    1   6.7788504   6.8779715   6.8866088   6.9098921   7.1374411   7.1514705
          259         260         261         262         263         264
    1   7.1799353   7.3254657   7.3580138   7.4003494   7.5906462   7.6256294
          265         266         267         268         269         270
    1  23.1754648  23.5773601  23.7898522  23.8831391  24.0942547  24.5012741
          271         272
    1  45.3061295  45.5042141
 Final Beta MO Eigenvalues
            1           2           3           4           5           6
    1 -20.6675820 -20.5282223 -11.3519527 -11.3221294 -11.2758268 -11.2758060
            7           8           9          10          11          12
    1 -11.2642200 -11.2641908  -1.3877662  -1.3527811  -1.1459566  -1.0566257
           13          14          15          16          17          18
    1  -0.9573705  -0.8594396  -0.8196208  -0.7260082  -0.6839850  -0.6762707
           19          20          21          22          23          24
    1  -0.6278134  -0.6282396  -0.6188508  -0.5793584  -0.5454270  -0.5233719
           25          26          27          28          29          30
    1  -0.4070079  -0.4206521  -0.3785230   0.0928267   0.0025614   0.1255188
           31          32          33          34          35          36
    1   0.1876456   0.1498322   0.1641884   0.1789021   0.2088591   0.2094854
           37          38          39          40          41          42
    1   0.2568358   0.2675458   0.3097965   0.3167507   0.3185960   0.3248822
           43          44          45          46          47          48
    1   0.3360507   0.3506761   0.3684130   0.4047426   0.4201654   0.4388988
           49          50          51          52          53          54
    1   0.4426280   0.4604436   0.4544624   0.4782465   0.5064288   0.5099511
           55          56          57          58          59          60
    1   0.5319152   0.5408881   0.5438805   0.5652895   0.5676785   0.5716331
           61          62          63          64          65          66
    1   0.5726812   0.6019397   0.6066297   0.6169419   0.6357273   0.6594695
           67          68          69          70          71          72
    1   0.6631338   0.6864189   0.7161048   0.7781892   0.7822333   0.7910656
           73          74          75          76          77          78
    1   0.7883130   0.8429201   0.8643540   0.8716579   0.8857195   0.8988743
           79          80          81          82          83          84
    1   0.9053559   0.9515654   0.9861764   1.0010906   1.0021802   1.0140103
           85          86          87          88          89          90
    1   1.0339270   1.0490237   1.0578058   1.0708912   1.0999946   1.1823148
           91          92          93          94          95          96
    1   1.2216392   1.2290865   1.2421251   1.2492054   1.3102361   1.3404266
           97          98          99         100         101         102
    1   1.3857222   1.4014464   1.4035432   1.4215926   1.4231049   1.4709763
          103         104         105         106         107         108
    1   1.4832417   1.4957316   1.5599653   1.6284691   1.6371128   1.6412551
          109         110         111         112         113         114
    1   1.6673564   1.6724325   1.7228947   1.7331596   1.7395793   1.7774502
          115         116         117         118         119         120
    1   1.8119578   1.8300657   1.8530429   1.8997727   1.9132632   1.9152862
          121         122         123         124         125         126
    1   1.9442203   1.9588882   1.9780390   1.9824756   2.0692966   2.0907291
          127         128         129         130         131         132
    1   2.0982426   2.1065223   2.1499948   2.1953858   2.1934906   2.2273359
          133         134         135         136         137         138
    1   2.2928931   2.3016483   2.3137960   2.3896684   2.4038076   2.4147167
          139         140         141         142         143         144
    1   2.4475926   2.4512256   2.5303669   2.5344472   2.5735186   2.6341088
          145         146         147         148         149         150
    1   2.6344548   2.6941729   2.7365384   2.7600218   2.8101881   2.8343176
          151         152         153         154         155         156
    1   2.8386554   2.8523440   2.8770978   2.9083493   2.9164485   2.9391593
          157         158         159         160         161         162
    1   2.9452015   2.9577674   2.9834492   3.0175153   3.0431786   3.0426219
          163         164         165         166         167         168
    1   3.0428953   3.0730243   3.0805851   3.1226701   3.1541145   3.1846328
          169         170         171         172         173         174
    1   3.1893722   3.1911825   3.2321829   3.2352198   3.2517469   3.2957654
          175         176         177         178         179         180
    1   3.3494044   3.3613765   3.3843049   3.4106659   3.4195038   3.4581511
          181         182         183         184         185         186
    1   3.4660064   3.4694105   3.4805107   3.4836723   3.4919777   3.5081993
          187         188         189         190         191         192
    1   3.5270344   3.5807079   3.5856228   3.6158301   3.6558326   3.6737426
          193         194         195         196         197         198
    1   3.6928520   3.7272133   3.7303268   3.7314399   3.7573496   3.7632616
          199         200         201         202         203         204
    1   3.7781655   3.7912019   3.7975409   3.8203441   3.9363009   3.9421889
          205         206         207         208         209         210
    1   3.9895100   4.0136183   4.0737326   4.0764586   4.1371460   4.1886740
          211         212         213         214         215         216
    1   4.2422091   4.2955353   4.3458661   4.3477490   4.3630926   4.3641500
          217         218         219         220         221         222
    1   4.3853352   4.4408200   4.5106553   4.5134754   4.5378579   4.5492174
          223         224         225         226         227         228
    1   4.5920814   4.6591518   4.7974660   4.8136678   4.8716348   4.8839783
          229         230         231         232         233         234
    1   4.9072801   4.9711899   5.0953155   5.1653029   5.1737111   5.1870896
          235         236         237         238         239         240
    1   5.2555985   5.3888486   5.4652332   5.5337987   5.5646864   5.6153954
          241         242         243         244         245         246
    1   5.6720735   5.6894363   5.6970155   5.8402932   5.9000721   6.0073434
          247         248         249         250         251         252
    1   6.0401711   6.2412158   6.3206590   6.5684226   6.6175799   6.7919765
          253         254         255         256         257         258
    1   6.8200081   6.9043583   6.9503843   6.9246664   7.1540347   7.1575623
          259         260         261         262         263         264
    1   7.1987344   7.3373309   7.4186729   7.4284642   7.5959649   7.6310769
          265         266         267         268         269         270
    1  23.1771382  23.5789283  23.7913093  23.8850588  24.0969925  24.5029790
          271         272
    1  45.3255924  45.5080443
 SCF time:   CPU 304.41s  wall 312.00s 
<S^2> =          2.000000000
 SCF   energy in the final basis set =     -379.3093788724
 Total energy in the final basis set =     -379.3093788724
  
     ##========================================##
     ||                                        ||
     ||              R A S M A N 2             ||
     ||________________________________________||
     ||                                        ||
     ||  Author:                               ||
     ||                                        ||
     ||        David Casanova (2010)           ||
     ||                                        ||
     ##========================================##
  
Setting single-point xc-functionals (if necessary)

  ***************************************************
  *  RAS-CI Dimensions:                             *
  *                                                 *
  *  Active Elec.:   8 ( 5, 3)   Active Orb.:   7   *
  *  Doubly Occ. :  24           Doubly Vir.: 241   *
  *  Frozen Occ. :   8           Frozen Vir.:   0   *
  *                                                 *
  *  Total CI configurations:    417921             * 
  *    Active configurations:       735             * 
  *      Hole configurations:     15680             * 
  *  Particle configurations:    401506             * 
  *                                                 *
  *   Requested states:       10                    *
  *  Spin multiplicity: Any multiplicity            *
  *                                                 *
  ***************************************************
-----------------------------------------
    Memory requirements of RASCI

 Each CI-vector requires      3.19 MiB 
 Max. subspace vectors           1000      

 Reduced Lists                0.00 MiB 
 Excitation Lists             0.00 MiB 
 Excitation Lists Sign        0.00 MiB 
 CI-space (Max)            3228.01 MiB 
 Integrals                   60.92 MiB 
 Memory required (Max)     3228.01 MiB 
 Memory available          2861.02 MiB 

 Q-Chem warning in module rasman2/ras_mem_check.C, line 162:

 Static memory may be insufficient to store the subspace vectors


    Disk requirements of RASCI

 Fock matrix                  1.13 MiB 
 2-electron integrals        91.50 MiB 
 CI-space                  6376.97 MiB 
 Disk required             6469.60 MiB 
-----------------------------------------
  
RAS1 HF-like energy:           -368.9913829220
 Computing integrals
 Computing J and K matrices
 Computing addressing
 Making amplitude guesses
 
Direct CI diagonalization
 ---------------------------------------------------
 Iter    Rts Conv    Rts Left    Ttl Dev     Max Dev
 ---------------------------------------------------
   1         0          10      0.006147    0.000834
   2         0          10      0.004337    0.000606
   3         0          10      0.003041    0.000415
   4         0          10      0.002588    0.000365
   5         0          10      0.002145    0.000281
   6         0          10      0.003277    0.000777
   7         0          10      0.002577    0.000698
   8         0          10      0.001891    0.000404
   9         0          10      0.002648    0.001326
  10         0          10      0.002756    0.001148
  11         0          10      0.002258    0.000625
  12         0          10      0.002107    0.000629
  13         0          10      0.001844    0.000543
  14         0          10      0.001444    0.000352
  15         0          10      0.001727    0.000723
  16         0          10      0.001511    0.000552
  17         0          10      0.001011    0.000338
  18         0          10      0.000787    0.000273
  19         0          10      0.000902    0.000393
  20         0          10      0.000749    0.000341
  21         1           9      0.000616    0.000249
  22         1           9      0.000780    0.000281
  23         2           8      0.000873    0.000453
  24         2           8      0.000632    0.000297
  25         2           8      0.000603    0.000252
  26         2           8      0.000730    0.000437
  27         2           8      0.000881    0.000429
  28         3           7      0.000748    0.000399
  29         3           7      0.000575    0.000263
  30         3           7      0.000408    0.000177
  31         4           6      0.000338    0.000146
  32         5           5      0.000263    0.000126
  33         6           4      0.000174    0.000086
  34         6           4      0.000130    0.000065
  35         6           4      0.000123    0.000066
  36         6           4      0.000109    0.000069
  37         6           4      0.000097    0.000063
  38         6           4      0.000105    0.000075
  39         7           3      0.000108    0.000083
  40         7           3      0.000121    0.000100
  41         7           3      0.000148    0.000128
  42         7           3      0.000198    0.000180
  43         7           3      0.000227    0.000210
  44         7           3      0.000174    0.000161
  45         7           3      0.000149    0.000138
  46         7           3      0.000114    0.000105
  47         8           2      0.000080    0.000073
  48         8           2      0.000061    0.000054
  49         8           2      0.000051    0.000045
  50         8           2      0.000035    0.000030
  51         9           1      0.000028    0.000023
  52         9           1      0.000023    0.000018
  53         9           1      0.000019    0.000014
  54         9           1      0.000016    0.000011
  55         9           1      0.000014    0.000009
  56         9           1      0.000011    0.000007
  57         9           1      0.000010    0.000005
  58         9           1      0.000009    0.000004
  59         9           1      0.000007    0.000003
  60         9           1      0.000007    0.000002
  61         9           1      0.000006    0.000002
  62         9           1      0.000006    0.000001
  63        10           0      0.000005    0.000001    Roots Converged
 ---------------------------------------------------
   
**************************************************
 RAS-CI total energy for state   1:   -379.397103513880
  Excitation energy (eV) =  0.000000000000
  State symmetry: A2    (C2v      )
  <S^2>      :  2.0000
  Dipole Moment:   -0.0000 X     0.0000 Y    -1.0833 Z
 NATURAL OCCUPATION NUMBERS (higher than 1.0E-05)
            1           2           3           4           5           6
    1   2.0000000   2.0000000   2.0000000   2.0000000   2.0000000   2.0000000
            7           8           9          10          11          12
    1   2.0000000   2.0000000   2.0000000   2.0000000   1.9999997   1.9999996
           13          14          15          16          17          18
    1   1.9999994   1.9999986   1.9999985   1.9999972   1.9999956   1.9999947
           19          20          21          22          23          24
    1   1.9999916   1.9999752   1.9999181   1.9995573   1.9995225   1.9990100
           25          26          27          28          29          30
    1   1.9636966   1.9250293   1.9156594   1.0048129   1.0002417   0.0832622
           31          32          33          34          35          36
    1   0.0767664   0.0209484   0.0024632   0.0015725   0.0015582   0.0010996
           37          38          39          40          41          42
    1   0.0009417   0.0008889   0.0006139   0.0005515   0.0004631   0.0004144
           43          44          45          46          47          48
    1   0.0002704   0.0001765   0.0001130   0.0001072   0.0000832   0.0000563
           49          50          51          52          53          54
    1   0.0000562   0.0000276   0.0000262   0.0000248   0.0000164   0.0000159
           55          56          57
    1   0.0000116   0.0000113   0.0000111
Natural Orbitals stored in FCHK

  Amplitudes : 
  
 | HOLE  | ALPHA   | BETA    | PART  |    AMPLITUDE 
--------------------------------------------------
 |       | 1111100 | 1110000 |       |    -9.2748947528791E-01
 |       | 1111001 | 1010100 |       |     1.1828560221342E-01
 |       | 1101110 | 1100010 |       |     1.0772573525747E-01
--------------------------------------------------
*** Contributions RASCI wfn    Active:  95.34
                                 Hole:   0.28
                                 Part:   4.38

      Mulliken population analysis 
 ---------------------------------------------------
   Atom    Charge (a.u.)   Spin (a.u.)  
 ---------------------------------------------------
   1  O   -0.172648        1.006901 
   2  C    0.351571        0.351133 
   3  C   -0.200684       -0.065603 
   4  C   -0.200684       -0.065603 
   5  C   -0.140508        0.239696 
   6  C   -0.140508        0.239696 
   7  C    0.274368       -0.030232 
   8  O   -0.371565        0.319652 
   9  H    0.149384        0.000253 
  10  H    0.149384        0.000253 
  11  H    0.150945        0.001927 
  12  H    0.150945        0.001927 
 ---------------------------------------------------
   Sum:    0.000000        2.000000 
 ---------------------------------------------------
 
  
 NATURAL OCCUPATION NUMBERS (higher than 1.0E-05)
            1           2           3           4           5           6
    1   2.0000000   2.0000000   2.0000000   2.0000000   2.0000000   2.0000000
            7           8           9          10          11          12
    1   2.0000000   2.0000000   2.0000000   2.0000000   1.9999997   1.9999996
           13          14          15          16          17          18
    1   1.9999994   1.9999986   1.9999985   1.9999972   1.9999956   1.9999947
           19          20          21          22          23          24
    1   1.9999916   1.9999752   1.9999181   1.9995573   1.9995225   1.9990100
           25          26          27          28          29          30
    1   1.9636966   1.9250293   1.9156594   1.0048129   1.0002417   0.0832622
           31          32          33          34          35          36
    1   0.0767664   0.0209484   0.0024632   0.0015725   0.0015582   0.0010996
           37          38          39          40          41          42
    1   0.0009417   0.0008889   0.0006139   0.0005515   0.0004631   0.0004144
           43          44          45          46          47          48
    1   0.0002704   0.0001765   0.0001130   0.0001072   0.0000832   0.0000563
           49          50          51          52          53          54
    1   0.0000562   0.0000276   0.0000262   0.0000248   0.0000164   0.0000159
           55          56          57
    1   0.0000116   0.0000113   0.0000111
  
*** Unpaired Electrons
 Yamaguchi Nd:         2.75
 Head-Gordon Nu:       2.39
 Head-Gordon Nu_nl:    2.10
  
**************************************************
 RAS-CI total energy for state   2:   -379.355007488860
  Excitation energy (eV) =  1.145491121549
  State symmetry: A1    (C2v      )
  <S^2>      :  2.0000
  Dipole Moment:    0.0000 X     0.0000 Y     0.0669 Z
  Trans. Moment:    0.0000 X     0.0000 Y     0.0000 Z
  Strength   :  0.000000
  Natural transition orbitals ( 1 -> 2 ):
   e-/hole pair  1 alpha:  ampl =  0.018116 (  0.0%)   [7 : 8]
   e-/hole pair  2 alpha:  ampl =  0.011808 (  0.0%)   [6 : 9]
   e-/hole pair  1 beta :  ampl =  0.898877 ( 80.8%)   [7 : 8]
   e-/hole pair  2 beta :  ampl =  0.055960 (  0.3%)   [6 : 9]
   Sum of square amplitudes: 0.81

 NATURAL OCCUPATION NUMBERS (higher than 1.0E-05)
            1           2           3           4           5           6
    1   2.0000000   2.0000000   2.0000000   2.0000000   2.0000000   2.0000000
            7           8           9          10          11          12
    1   2.0000000   2.0000000   2.0000000   2.0000000   2.0000000   1.9999999
           13          14          15          16          17          18
    1   1.9999998   1.9999998   1.9999996   1.9999996   1.9999990   1.9999980
           19          20          21          22          23          24
    1   1.9999916   1.9999901   1.9999857   1.9999802   1.9999665   1.9893243
           25          26          27          28          29          30
    1   1.9754920   1.9384499   1.8610197   1.0977709   0.9185271   0.1302528
           31          32          33          34          35          36
    1   0.0617875   0.0105394   0.0084876   0.0019540   0.0016442   0.0009018
           37          38          39          40          41          42
    1   0.0007094   0.0006911   0.0006063   0.0003518   0.0003492   0.0002344
           43          44          45          46          47          48
    1   0.0001713   0.0001528   0.0001318   0.0000880   0.0000712   0.0000702
           49          50          51          52          53          54
    1   0.0000461   0.0000460   0.0000374   0.0000251   0.0000223   0.0000214
           55          56
    1   0.0000203   0.0000108
Natural Orbitals stored in FCHK

  Amplitudes : 
  
 | HOLE  | ALPHA   | BETA    | PART  |    AMPLITUDE 
--------------------------------------------------
 |       | 1111100 | 1011000 |       |     6.7085753314076E-01
 |       | 1111100 | 0111000 |       |     2.2933019723174E-01
 |       | 1111100 | 0011100 |       |    -1.1245574205869E-01
 |       | 1111010 | 1101000 |       |     2.1516415402480E-01
 |       | 1111001 | 1011000 |       |    -1.7975153280707E-01
 |  19   | 1111100 | 1111000 |       |    -4.8701333825852E-01
 |  19   | 1111100 | 1011100 |       |     1.6163598149311E-01
--------------------------------------------------
*** Contributions RASCI wfn    Active:  64.22
                                 Hole:  30.62
                                 Part:   5.16

      Mulliken population analysis 
 ---------------------------------------------------
   Atom    Charge (a.u.)   Spin (a.u.)  
 ---------------------------------------------------
   1  O   -0.329229        0.635249 
   2  C    0.302586        0.097186 
   3  C   -0.131233        0.147482 
   4  C   -0.131233        0.147482 
   5  C   -0.111922        0.242051 
   6  C   -0.111922        0.242051 
   7  C    0.228641        0.040999 
   8  O   -0.309172        0.444078 
   9  H    0.146897        0.000544 
  10  H    0.146897        0.000544 
  11  H    0.149845        0.001167 
  12  H    0.149845        0.001167 
 ---------------------------------------------------
   Sum:    0.000000        2.000000 
 ---------------------------------------------------
 
  
 NATURAL OCCUPATION NUMBERS (higher than 1.0E-05)
            1           2           3           4           5           6
    1   2.0000000   2.0000000   2.0000000   2.0000000   2.0000000   2.0000000
            7           8           9          10          11          12
    1   2.0000000   2.0000000   2.0000000   2.0000000   2.0000000   1.9999999
           13          14          15          16          17          18
    1   1.9999998   1.9999998   1.9999996   1.9999996   1.9999990   1.9999980
           19          20          21          22          23          24
    1   1.9999916   1.9999901   1.9999857   1.9999802   1.9999665   1.9893243
           25          26          27          28          29          30
    1   1.9754920   1.9384499   1.8610197   1.0977709   0.9185271   0.1302528
           31          32          33          34          35          36
    1   0.0617875   0.0105394   0.0084876   0.0019540   0.0016442   0.0009018
           37          38          39          40          41          42
    1   0.0007094   0.0006911   0.0006063   0.0003518   0.0003492   0.0002344
           43          44          45          46          47          48
    1   0.0001713   0.0001528   0.0001318   0.0000880   0.0000712   0.0000702
           49          50          51          52          53          54
    1   0.0000461   0.0000460   0.0000374   0.0000251   0.0000223   0.0000214
           55          56
    1   0.0000203   0.0000108
  
*** Unpaired Electrons
 Yamaguchi Nd:         2.85
 Head-Gordon Nu:       2.28
 Head-Gordon Nu_nl:    2.13
  
**************************************************
 RAS-CI total energy for state   3:   -379.322225233077
  Excitation energy (eV) =  2.037541687528
  State symmetry: B1    (C2v      )
  <S^2>      :  2.0000
  Dipole Moment:    0.0000 X     0.0000 Y     0.1571 Z
  Trans. Moment:   -0.0000 X     0.0134 Y     0.0000 Z
  Strength   :  0.000009
  Natural transition orbitals ( 1 -> 3 ):
   e-/hole pair  1 alpha:  ampl =  0.007924 (  0.0%)   [7 : 8]
   e-/hole pair  2 alpha:  ampl =  0.006359 (  0.0%)   [6 : 9]
   e-/hole pair  1 beta :  ampl =  0.686481 ( 47.1%)   [7 : 8]
   e-/hole pair  2 beta :  ampl =  0.015822 (  0.0%)   [6 : 9]
   Sum of square amplitudes: 0.47

 NATURAL OCCUPATION NUMBERS (higher than 1.0E-05)
            1           2           3           4           5           6
    1   2.0000000   2.0000000   2.0000000   2.0000000   2.0000000   2.0000000
            7           8           9          10          11          12
    1   2.0000000   2.0000000   2.0000000   2.0000000   2.0000000   1.9999999
           13          14          15          16          17          18
    1   1.9999998   1.9999997   1.9999993   1.9999991   1.9999982   1.9999956
           19          20          21          22          23          24
    1   1.9999951   1.9999865   1.9999816   1.9999643   1.9999619   1.9850519
           25          26          27          28          29          30
    1   1.9742600   1.9576280   1.7694445   1.1488816   0.8758369   0.2005975
           31          32          33          34          35          36
    1   0.0523455   0.0132155   0.0122013   0.0021192   0.0019348   0.0014404
           37          38          39          40          41          42
    1   0.0010359   0.0009624   0.0007366   0.0004477   0.0004290   0.0003237
           43          44          45          46          47          48
    1   0.0002215   0.0001763   0.0001185   0.0001146   0.0001028   0.0000929
           49          50          51          52          53          54
    1   0.0000848   0.0000561   0.0000394   0.0000340   0.0000244   0.0000234
           55          56          57          58
    1   0.0000219   0.0000163   0.0000112   0.0000107
Natural Orbitals stored in FCHK

  Amplitudes : 
  
 | HOLE  | ALPHA   | BETA    | PART  |    AMPLITUDE 
--------------------------------------------------
 |       | 1111100 | 1101000 |       |     6.9808013702738E-01
 |       | 1111100 | 1001100 |       |    -1.9567087542942E-01
 |       | 1111100 | 0101100 |       |    -1.7317694843786E-01
 |       | 1111010 | 1011000 |       |     2.9731755461668E-01
 |       | 1111010 | 0111000 |       |     1.6532983301447E-01
 |       | 1111001 | 1101000 |       |    -1.8531144272335E-01
 |       | 1011101 | 1101000 |       |    -1.0053707356601E-01
 |  19   | 1111101 | 1101000 |       |     1.1881937159476E-01
 |  19   | 1111100 | 1101100 |       |     2.9970450363842E-01
--------------------------------------------------
*** Contributions RASCI wfn    Active:  76.66
                                 Hole:  14.34
                                 Part:   9.00

      Mulliken population analysis 
 ---------------------------------------------------
   Atom    Charge (a.u.)   Spin (a.u.)  
 ---------------------------------------------------
   1  O   -0.446805        0.316830 
   2  C    0.263415       -0.012233 
   3  C   -0.051500        0.376109 
   4  C   -0.051500        0.376109 
   5  C   -0.051731        0.341720 
   6  C   -0.051731        0.341720 
   7  C    0.233211        0.025093 
   8  O   -0.434094        0.227935 
   9  H    0.145620        0.001698 
  10  H    0.145620        0.001698 
  11  H    0.149747        0.001660 
  12  H    0.149747        0.001660 
 ---------------------------------------------------
   Sum:    0.000000        2.000000 
 ---------------------------------------------------
 
  
 NATURAL OCCUPATION NUMBERS (higher than 1.0E-05)
            1           2           3           4           5           6
    1   2.0000000   2.0000000   2.0000000   2.0000000   2.0000000   2.0000000
            7           8           9          10          11          12
    1   2.0000000   2.0000000   2.0000000   2.0000000   2.0000000   1.9999999
           13          14          15          16          17          18
    1   1.9999998   1.9999997   1.9999993   1.9999991   1.9999982   1.9999956
           19          20          21          22          23          24
    1   1.9999951   1.9999865   1.9999816   1.9999643   1.9999619   1.9850519
           25          26          27          28          29          30
    1   1.9742600   1.9576280   1.7694445   1.1488816   0.8758369   0.2005975
           31          32          33          34          35          36
    1   0.0523455   0.0132155   0.0122013   0.0021192   0.0019348   0.0014404
           37          38          39          40          41          42
    1   0.0010359   0.0009624   0.0007366   0.0004477   0.0004290   0.0003237
           43          44          45          46          47          48
    1   0.0002215   0.0001763   0.0001185   0.0001146   0.0001028   0.0000929
           49          50          51          52          53          54
    1   0.0000848   0.0000561   0.0000394   0.0000340   0.0000244   0.0000234
           55          56          57          58
    1   0.0000219   0.0000163   0.0000112   0.0000107
  
*** Unpaired Electrons
 Yamaguchi Nd:         3.07
 Head-Gordon Nu:       2.33
 Head-Gordon Nu_nl:    2.24
  
**************************************************
 RAS-CI total energy for state   4:   -379.288234184063
  Excitation energy (eV) =  2.962485190847
  State symmetry: B2    (C2v      )
  <S^2>      :  2.0000
  Dipole Moment:    0.0000 X    -0.0000 Y    -1.1652 Z
  Trans. Moment:   -0.1457 X    -0.0000 Y     0.0000 Z
  Strength   :  0.001541
  Natural transition orbitals ( 1 -> 4 ):
   e-/hole pair  1 alpha:  ampl =  0.511733 ( 26.2%)   [7 : 8]
   e-/hole pair  2 alpha:  ampl =  0.110562 (  1.2%)   [6 : 9]
   e-/hole pair  1 beta :  ampl =  0.698207 ( 48.7%)   [7 : 8]
   e-/hole pair  2 beta :  ampl =  0.108396 (  1.2%)   [6 : 9]
   Sum of square amplitudes: 0.79

 NATURAL OCCUPATION NUMBERS (higher than 1.0E-05)
            1           2           3           4           5           6
    1   2.0000000   2.0000000   2.0000000   2.0000000   2.0000000   2.0000000
            7           8           9          10          11          12
    1   2.0000000   2.0000000   2.0000000   1.9999999   1.9999996   1.9999996
           13          14          15          16          17          18
    1   1.9999989   1.9999987   1.9999977   1.9999975   1.9999962   1.9999939
           19          20          21          22          23          24
    1   1.9999781   1.9999733   1.9999522   1.9995511   1.9993152   1.9985503
           25          26          27          28          29          30
    1   1.9537911   1.9100374   1.3336473   1.2561669   1.0004322   0.4201914
           31          32          33          34          35          36
    1   0.0873922   0.0273533   0.0029746   0.0024647   0.0017963   0.0014354
           37          38          39          40          41          42
    1   0.0011081   0.0009776   0.0005469   0.0005420   0.0004122   0.0002994
           43          44          45          46          47          48
    1   0.0002654   0.0002276   0.0001163   0.0001028   0.0000778   0.0000594
           49          50          51          52          53          54
    1   0.0000472   0.0000400   0.0000328   0.0000230   0.0000191   0.0000159
           55          56          57
    1   0.0000146   0.0000143   0.0000120
Natural Orbitals stored in FCHK

  Amplitudes : 
  
 | HOLE  | ALPHA   | BETA    | PART  |    AMPLITUDE 
--------------------------------------------------
 |       | 1111100 | 1100100 |       |     7.2754500898675E-01
 |       | 1111010 | 1110000 |       |     5.1159420934048E-01
 |       | 1111010 | 1100010 |       |    -1.0178705468398E-01
 |       | 1111010 | 1010100 |       |     1.3145861311769E-01
 |       | 1111010 | 0110100 |       |     1.0315235264207E-01
 |       | 1111001 | 1100001 |       |    -1.0313545180115E-01
--------------------------------------------------
*** Contributions RASCI wfn    Active:  91.72
                                 Hole:   0.59
                                 Part:   7.70

      Mulliken population analysis 
 ---------------------------------------------------
   Atom    Charge (a.u.)   Spin (a.u.)  
 ---------------------------------------------------
   1  O   -0.182099        0.936260 
   2  C    0.289056       -0.100113 
   3  C   -0.165126        0.388589 
   4  C   -0.165126        0.388589 
   5  C   -0.128620        0.190532 
   6  C   -0.128620        0.190532 
   7  C    0.319714       -0.005476 
   8  O   -0.438238        0.001868 
   9  H    0.149098        0.002878 
  10  H    0.149098        0.002878 
  11  H    0.150431        0.001731 
  12  H    0.150431        0.001731 
 ---------------------------------------------------
   Sum:    0.000000        2.000000 
 ---------------------------------------------------
 
  
 NATURAL OCCUPATION NUMBERS (higher than 1.0E-05)
            1           2           3           4           5           6
    1   2.0000000   2.0000000   2.0000000   2.0000000   2.0000000   2.0000000
            7           8           9          10          11          12
    1   2.0000000   2.0000000   2.0000000   1.9999999   1.9999996   1.9999996
           13          14          15          16          17          18
    1   1.9999989   1.9999987   1.9999977   1.9999975   1.9999962   1.9999939
           19          20          21          22          23          24
    1   1.9999781   1.9999733   1.9999522   1.9995511   1.9993152   1.9985503
           25          26          27          28          29          30
    1   1.9537911   1.9100374   1.3336473   1.2561669   1.0004322   0.4201914
           31          32          33          34          35          36
    1   0.0873922   0.0273533   0.0029746   0.0024647   0.0017963   0.0014354
           37          38          39          40          41          42
    1   0.0011081   0.0009776   0.0005469   0.0005420   0.0004122   0.0002994
           43          44          45          46          47          48
    1   0.0002654   0.0002276   0.0001163   0.0001028   0.0000778   0.0000594
           49          50          51          52          53          54
    1   0.0000472   0.0000400   0.0000328   0.0000230   0.0000191   0.0000159
           55          56          57
    1   0.0000146   0.0000143   0.0000120
  
*** Unpaired Electrons
 Yamaguchi Nd:         4.00
 Head-Gordon Nu:       3.10
 Head-Gordon Nu_nl:    3.17
  
**************************************************
 RAS-CI total energy for state   5:   -379.268628087022
  Excitation energy (eV) =  3.495994235434
  State symmetry: A2    (C2v      )
  <S^2>      :  2.0000
  Dipole Moment:   -0.0000 X     0.0000 Y    -0.7846 Z
  Trans. Moment:    0.0000 X    -0.0000 Y     0.4104 Z
  Strength   :  0.014424
  Natural transition orbitals ( 1 -> 5 ):
   e-/hole pair  1 alpha:  ampl =  0.556256 ( 30.9%)   [7 : 8]
   e-/hole pair  2 alpha:  ampl =  0.115543 (  1.3%)   [6 : 9]
   e-/hole pair  1 beta :  ampl =  0.678816 ( 46.1%)   [7 : 8]
   e-/hole pair  2 beta :  ampl =  0.112196 (  1.3%)   [6 : 9]
   Sum of square amplitudes: 0.82

 NATURAL OCCUPATION NUMBERS (higher than 1.0E-05)
            1           2           3           4           5           6
    1   2.0000000   2.0000000   2.0000000   2.0000000   2.0000000   2.0000000
            7           8           9          10          11          12
    1   2.0000000   2.0000000   2.0000000   2.0000000   1.9999996   1.9999995
           13          14          15          16          17          18
    1   1.9999988   1.9999987   1.9999973   1.9999971   1.9999957   1.9999940
           19          20          21          22          23          24
    1   1.9999927   1.9999719   1.9999243   1.9997489   1.9995775   1.9987273
           25          26          27          28          29          30
    1   1.9442363   1.8854525   1.4013190   1.1675894   1.0002025   0.4455792
           31          32          33          34          35          36
    1   0.1107626   0.0329709   0.0033213   0.0019823   0.0017531   0.0014183
           37          38          39          40          41          42
    1   0.0012276   0.0009051   0.0008301   0.0005051   0.0004305   0.0003677
           43          44          45          46          47          48
    1   0.0003508   0.0001661   0.0001240   0.0001216   0.0000849   0.0000610
           49          50          51          52          53          54
    1   0.0000526   0.0000450   0.0000425   0.0000257   0.0000249   0.0000163
           55          56          57
    1   0.0000151   0.0000108   0.0000106
Natural Orbitals stored in FCHK

  Amplitudes : 
  
 | HOLE  | ALPHA   | BETA    | PART  |    AMPLITUDE 
--------------------------------------------------
 |       | 1111100 | 1010100 |       |    -6.8539250406284E-01
 |       | 1111100 | 0110100 |       |     1.1294302310721E-01
 |       | 1111010 | 1100100 |       |    -1.0293399236428E-01
 |       | 1111001 | 1110000 |       |     5.5386238031677E-01
 |       | 1111001 | 0110100 |       |    -1.3381403775601E-01
--------------------------------------------------
*** Contributions RASCI wfn    Active:  92.66
                                 Hole:   0.46
                                 Part:   6.87

      Mulliken population analysis 
 ---------------------------------------------------
   Atom    Charge (a.u.)   Spin (a.u.)  
 ---------------------------------------------------
   1  O   -0.161052        0.989843 
   2  C    0.298974        0.161602 
   3  C   -0.170854        0.259434 
   4  C   -0.170854        0.259434 
   5  C   -0.162954       -0.063048 
   6  C   -0.162954       -0.063048 
   7  C    0.195020        0.242854 
   8  O   -0.265126        0.208129 
   9  H    0.149167        0.002092 
  10  H    0.149167        0.002092 
  11  H    0.150732        0.000308 
  12  H    0.150732        0.000308 
 ---------------------------------------------------
   Sum:    0.000000        2.000000 
 ---------------------------------------------------
 
  
 NATURAL OCCUPATION NUMBERS (higher than 1.0E-05)
            1           2           3           4           5           6
    1   2.0000000   2.0000000   2.0000000   2.0000000   2.0000000   2.0000000
            7           8           9          10          11          12
    1   2.0000000   2.0000000   2.0000000   2.0000000   1.9999996   1.9999995
           13          14          15          16          17          18
    1   1.9999988   1.9999987   1.9999973   1.9999971   1.9999957   1.9999940
           19          20          21          22          23          24
    1   1.9999927   1.9999719   1.9999243   1.9997489   1.9995775   1.9987273
           25          26          27          28          29          30
    1   1.9442363   1.8854525   1.4013190   1.1675894   1.0002025   0.4455792
           31          32          33          34          35          36
    1   0.1107626   0.0329709   0.0033213   0.0019823   0.0017531   0.0014183
           37          38          39          40          41          42
    1   0.0012276   0.0009051   0.0008301   0.0005051   0.0004305   0.0003677
           43          44          45          46          47          48
    1   0.0003508   0.0001661   0.0001240   0.0001216   0.0000849   0.0000610
           49          50          51          52          53          54
    1   0.0000526   0.0000450   0.0000425   0.0000257   0.0000249   0.0000163
           55          56          57
    1   0.0000151   0.0000108   0.0000106
  
*** Unpaired Electrons
 Yamaguchi Nd:         4.13
 Head-Gordon Nu:       3.21
 Head-Gordon Nu_nl:    3.23
  
**************************************************
 RAS-CI total energy for state   6:   -379.253260331945
  Excitation energy (eV) =  3.914172127305
  State symmetry: A1    (C2v      )
  <S^2>      :  2.0000
  Dipole Moment:    0.0000 X     0.0000 Y    -0.0400 Z
  Trans. Moment:    0.0000 X    -0.0000 Y    -0.0000 Z
  Strength   :  0.000000
  Natural transition orbitals ( 1 -> 6 ):
   e-/hole pair  1 alpha:  ampl =  0.013011 (  0.0%)   [7 : 8]
   e-/hole pair  2 alpha:  ampl =  0.011009 (  0.0%)   [6 : 9]
   e-/hole pair  1 beta :  ampl =  0.662734 ( 43.9%)   [7 : 8]
   e-/hole pair  2 beta :  ampl =  0.052666 (  0.3%)   [6 : 9]
   Sum of square amplitudes: 0.44

 NATURAL OCCUPATION NUMBERS (higher than 1.0E-05)
            1           2           3           4           5           6
    1   2.0000000   2.0000000   2.0000000   2.0000000   2.0000000   2.0000000
            7           8           9          10          11          12
    1   2.0000000   2.0000000   2.0000000   2.0000000   1.9999999   1.9999999
           13          14          15          16          17          18
    1   1.9999999   1.9999998   1.9999994   1.9999989   1.9999987   1.9999986
           19          20          21          22          23          24
    1   1.9999954   1.9999952   1.9999917   1.9999783   1.9999456   1.9858568
           25          26          27          28          29          30
    1   1.9545765   1.7522717   1.7236560   1.4109202   0.6559579   0.2462680
           31          32          33          34          35          36
    1   0.2329580   0.0167306   0.0121470   0.0021021   0.0018892   0.0011838
           37          38          39          40          41          42
    1   0.0008034   0.0006166   0.0004244   0.0003907   0.0003569   0.0001316
           43          44          45          46          47          48
    1   0.0001166   0.0001157   0.0000995   0.0000930   0.0000643   0.0000592
           49          50          51          52          53          54
    1   0.0000385   0.0000357   0.0000350   0.0000345   0.0000204   0.0000177
           55          56          57          58
    1   0.0000149   0.0000144   0.0000143   0.0000134
Natural Orbitals stored in FCHK

  Amplitudes : 
  
 | HOLE  | ALPHA   | BETA    | PART  |    AMPLITUDE 
--------------------------------------------------
 |       | 1111100 | 1011000 |       |    -1.5097203977794E-01
 |       | 1111100 | 0111000 |       |     3.1486160073836E-01
 |       | 1111100 | 0011100 |       |     1.5425934725110E-01
 |       | 1111010 | 1101000 |       |    -3.2881852097150E-01
 |       | 1111001 | 1011000 |       |     3.3362644754808E-01
 |       | 1011110 | 1101000 |       |    -1.3762276613705E-01
 |       | 1011101 | 1011000 |       |     1.0157231694492E-01
 |  19   | 1111110 | 1101000 |       |     1.5387299318447E-01
 |  19   | 1111101 | 1011000 |       |    -1.2681950619674E-01
 |  19   | 1111100 | 1111000 |       |    -5.9592837526951E-01
 |  19   | 1111100 | 1011100 |       |    -1.7228823413545E-01
 |  19   | 1111001 | 1111000 |       |    -1.6353885736319E-01
--------------------------------------------------
*** Contributions RASCI wfn    Active:  44.58
                                 Hole:  49.97
                                 Part:   5.45

      Mulliken population analysis 
 ---------------------------------------------------
   Atom    Charge (a.u.)   Spin (a.u.)  
 ---------------------------------------------------
   1  O   -0.359613        0.399844 
   2  C    0.422948        0.437208 
   3  C   -0.155710        0.131374 
   4  C   -0.155710        0.131374 
   5  C   -0.172251        0.200745 
   6  C   -0.172251        0.200745 
   7  C    0.319244        0.181278 
   8  O   -0.319754        0.313457 
   9  H    0.147015        0.000766 
  10  H    0.147015        0.000766 
  11  H    0.149534        0.001222 
  12  H    0.149534        0.001222 
 ---------------------------------------------------
   Sum:    0.000000        2.000000 
 ---------------------------------------------------
 
  
 NATURAL OCCUPATION NUMBERS (higher than 1.0E-05)
            1           2           3           4           5           6
    1   2.0000000   2.0000000   2.0000000   2.0000000   2.0000000   2.0000000
            7           8           9          10          11          12
    1   2.0000000   2.0000000   2.0000000   2.0000000   1.9999999   1.9999999
           13          14          15          16          17          18
    1   1.9999999   1.9999998   1.9999994   1.9999989   1.9999987   1.9999986
           19          20          21          22          23          24
    1   1.9999954   1.9999952   1.9999917   1.9999783   1.9999456   1.9858568
           25          26          27          28          29          30
    1   1.9545765   1.7522717   1.7236560   1.4109202   0.6559579   0.2462680
           31          32          33          34          35          36
    1   0.2329580   0.0167306   0.0121470   0.0021021   0.0018892   0.0011838
           37          38          39          40          41          42
    1   0.0008034   0.0006166   0.0004244   0.0003907   0.0003569   0.0001316
           43          44          45          46          47          48
    1   0.0001166   0.0001157   0.0000995   0.0000930   0.0000643   0.0000592
           49          50          51          52          53          54
    1   0.0000385   0.0000357   0.0000350   0.0000345   0.0000204   0.0000177
           55          56          57          58
    1   0.0000149   0.0000144   0.0000143   0.0000134
  
*** Unpaired Electrons
 Yamaguchi Nd:         3.66
 Head-Gordon Nu:       2.35
 Head-Gordon Nu_nl:    2.25
  
**************************************************
 RAS-CI total energy for state   7:   -379.242529178271
  Excitation energy (eV) =  4.206181675758
  State symmetry: A1    (C2v      )
  <S^2>      :  2.0000
  Dipole Moment:    0.0000 X    -0.0000 Y     1.0076 Z
  Trans. Moment:    0.0000 X    -0.0000 Y    -0.0000 Z
  Strength   :  0.000000
  Natural transition orbitals ( 1 -> 7 ):
   e-/hole pair  1 alpha:  ampl =  0.005026 (  0.0%)   [7 : 8]
   e-/hole pair  2 alpha:  ampl =  0.003548 (  0.0%)   [6 : 9]
   e-/hole pair  1 beta :  ampl =  0.368054 ( 13.5%)   [7 : 8]
   e-/hole pair  2 beta :  ampl =  0.014190 (  0.0%)   [6 : 9]
   Sum of square amplitudes: 0.14

 NATURAL OCCUPATION NUMBERS (higher than 1.0E-05)
            1           2           3           4           5           6
    1   2.0000000   2.0000000   2.0000000   2.0000000   2.0000000   2.0000000
            7           8           9          10          11          12
    1   2.0000000   2.0000000   2.0000000   2.0000000   2.0000000   1.9999999
           13          14          15          16          17          18
    1   1.9999998   1.9999997   1.9999994   1.9999993   1.9999982   1.9999982
           19          20          21          22          23          24
    1   1.9999962   1.9999920   1.9999807   1.9999638   1.9999603   1.9867495
           25          26          27          28          29          30
    1   1.9667852   1.8478927   1.5362129   1.4193788   0.5768772   0.5279589
           31          32          33          34          35          36
    1   0.0937481   0.0202077   0.0099577   0.0031712   0.0030483   0.0016731
           37          38          39          40          41          42
    1   0.0013053   0.0011865   0.0010431   0.0008723   0.0004032   0.0002675
           43          44          45          46          47          48
[...]
KET: S',Sz' (Root  10) =  1.000 1.000
BRA: S ,Sz  (Root   8) =  1.000 1.000
Clebsh-Gordan coefficient: < 1.000, 1.000; 1.000, 0.000| 1.000, 1.000> =  0.707
 Reading 1e-SO integrals
 1e Reduced matrix elements (cm-1)
<S|| Hso(L-) ||S'> =     0.0000000001    -1.1913392229
<S|| Hso(L0) ||S'> =     0.0000000000    -0.0000000000
<S|| Hso(L+) ||S'> =     0.0000000001     1.1913392229
 1-elec SOC matrix (cm-1): < B(S,Sz) | Hso(1e) | A(S',Sz') >
                     |Sz'=-1.00>              |Sz'= 0.00>              |Sz'= 1.00>
 <Sz=-1.00|   -0.000000    0.000000i     0.000000    0.842404i     0.000000    0.000000i
 <Sz= 0.00|   -0.000000    0.842404i    -0.000000   -0.000000i     0.000000    0.842404i
 <Sz= 1.00|    0.000000   -0.000000i    -0.000000    0.842404i    -0.000000   -0.000000i
1-elec SOCC =     1.684808086 cm-1
 Reading 2e-SOMF integrals
 2e-SOMF Reduced matrix elements (cm-1)
<S|| Hso(L-) ||S'> =    -0.0000000001     0.4706804044
<S|| Hso(L0) ||S'> =     0.0000000000     0.0000000000
<S|| Hso(L+) ||S'> =    -0.0000000001    -0.4706804044
 2-elec mean-field SOC matrix (cm-1): < B(S,Sz) | Hso(2e-mf) | A(S',Sz') >
                     |Sz'=-1.00>              |Sz'= 0.00>              |Sz'= 1.00>
 <Sz=-1.00|    0.000000   -0.000000i    -0.000000   -0.332821i    -0.000000   -0.000000i
 <Sz= 0.00|    0.000000   -0.332821i     0.000000    0.000000i    -0.000000   -0.332821i
 <Sz= 1.00|   -0.000000    0.000000i     0.000000   -0.332821i     0.000000    0.000000i
 Total mean-field SOC matrix (cm-1): < B(S,Sz) | Hsomf | A(S',Sz') >
                     |Sz'=-1.00>              |Sz'= 0.00>              |Sz'= 1.00>
 <Sz=-1.00|   -0.000000    0.000000i     0.000000    0.509583i     0.000000    0.000000i
 <Sz= 0.00|   -0.000000    0.509583i    -0.000000   -0.000000i     0.000000    0.509583i
 <Sz= 1.00|    0.000000   -0.000000i    -0.000000    0.509583i    -0.000000   -0.000000i
Mean-Field SOCC =     1.019165475 cm-1
   
**************************************************
State A: Root 10
State B: Root  9
  
Angular momentum components
< B | Lx | A > =     0.000000000i
< B | Ly | A > =    -0.000000000i
< B | Lz | A > =    -0.174769720i
  
Norm of one-particle transition density matrix
||gamma^AB||_total       =  0.376610
||gamma^AB||_symmetrized =  0.266571
||gamma^AB||_anti-symm   =  0.266035
  
Spin-orbit couplings
 Using HF (reference) density for the 2-elec mean-field SOC contribution
KET: S',Sz' (Root  10) =  1.000 1.000
BRA: S ,Sz  (Root   9) =  1.000 1.000
Clebsh-Gordan coefficient: < 1.000, 1.000; 1.000, 0.000| 1.000, 1.000> =  0.707
 Reading 1e-SO integrals
 1e Reduced matrix elements (cm-1)
<S|| Hso(L-) ||S'> =    -0.0000000000    -0.0000000000
<S|| Hso(L0) ||S'> =     0.0000000000    31.7211209603
<S|| Hso(L+) ||S'> =    -0.0000000000     0.0000000000
 1-elec SOC matrix (cm-1): < B(S,Sz) | Hso(1e) | A(S',Sz') >
                     |Sz'=-1.00>              |Sz'= 0.00>              |Sz'= 1.00>
 <Sz=-1.00|    0.000000  -22.430220i    -0.000000    0.000000i    -0.000000    0.000000i
 <Sz= 0.00|    0.000000    0.000000i     0.000000    0.000000i    -0.000000    0.000000i
 <Sz= 1.00|   -0.000000    0.000000i     0.000000    0.000000i     0.000000   22.430220i
1-elec SOCC =    31.721120960 cm-1
 Reading 2e-SOMF integrals
 2e-SOMF Reduced matrix elements (cm-1)
<S|| Hso(L-) ||S'> =     0.0000000000     0.0000000000
<S|| Hso(L0) ||S'> =     0.0000000000   -11.6299450730
<S|| Hso(L+) ||S'> =     0.0000000000    -0.0000000000
 2-elec mean-field SOC matrix (cm-1): < B(S,Sz) | Hso(2e-mf) | A(S',Sz') >
                     |Sz'=-1.00>              |Sz'= 0.00>              |Sz'= 1.00>
 <Sz=-1.00|   -0.000000    8.223613i     0.000000   -0.000000i     0.000000   -0.000000i
 <Sz= 0.00|   -0.000000   -0.000000i    -0.000000   -0.000000i     0.000000   -0.000000i
 <Sz= 1.00|    0.000000   -0.000000i    -0.000000   -0.000000i    -0.000000   -8.223613i
 Total mean-field SOC matrix (cm-1): < B(S,Sz) | Hsomf | A(S',Sz') >
                     |Sz'=-1.00>              |Sz'= 0.00>              |Sz'= 1.00>
 <Sz=-1.00|    0.000000  -14.206607i    -0.000000    0.000000i    -0.000000    0.000000i
 <Sz= 0.00|    0.000000    0.000000i     0.000000    0.000000i    -0.000000    0.000000i
 <Sz= 1.00|   -0.000000    0.000000i     0.000000    0.000000i     0.000000   14.206607i
Mean-Field SOCC =    20.091175887 cm-1
   
**************************************************
RAS-CI timing summary (seconds)
  CPU time      13177.61s
  System time       0.80s
  Wall time     16366.41s
Detailed CPU timing summary
     Fock matrix         :        16.5616 s
     Integrals           :        81.4557 s
     Addressing matrices :         0.0002 s
     Guesses             :         0.0469 s
     Iterations          :     11442.0632 s
     Properties          :      1637.4793 s
     RAS-CI(2) correction:         0.0000 s
  
 
 --------------------------------------------------------------
             Orbital Energies (a.u.) and Symmetries
 --------------------------------------------------------------
 
 Alpha MOs, Restricted
 -- Doubly Occupied --           
-20.705 -20.534 -11.359 -11.323 -11.277 -11.277 -11.267 -11.267
  1 A1    2 A1    3 A1    4 A1    1 B1    5 A1    2 B1    6 A1                 
 -1.512  -1.371  -1.172  -1.068  -1.000  -0.879  -0.841  -0.758
  7 A1    8 A1    9 A1    3 B1   10 A1    4 B1   11 A1   12 A1                 
 -0.702  -0.685  -0.697  -0.633  -0.633  -0.588  -0.558  -0.428
  5 B1   13 A1    1 B2    6 B1   14 A1   15 A1    7 B1    8 B1                 
 -0.578  -0.482  -0.406
  2 B2    3 B2    1 A2                                                         
 -- Singly Occupied (Occupied) --
 -0.687  -0.291
  9 B1    4 B2                                                                 
 -- Virtual --                   
  0.084   0.121   0.148   0.163   0.174   0.203   0.207   0.251
  2 A2    5 B2   16 A1   10 B1   17 A1   18 A1   11 B1   19 A1                 
  0.263   0.287   0.310   0.315   0.322   0.327   0.346   0.360
 20 A1    6 B2    7 B2   12 B1   13 B1   21 A1    3 A2   22 A1                 
  0.389   0.405   0.433   0.433   0.447   0.450   0.471   0.499
  8 B2   14 B1   23 A1    9 B2    4 A2   24 A1   15 B1   25 A1                 
  0.500   0.522   0.527   0.530   0.557   0.558   0.561   0.565
 16 B1   26 A1   10 B2   27 A1   17 B1   18 B1   28 A1   29 A1                 
  0.599   0.599   0.597   0.630   0.651   0.653   0.681   0.703
 30 A1   19 B1   11 B2   20 B1   31 A1   21 B1   32 A1   12 B2                 
  0.765   0.775   0.774   0.779   0.820   0.860   0.863   0.882
 13 B2   22 B1    5 A2   33 A1   23 B1   24 B1   34 A1   25 B1                 
  0.893   0.899   0.937   0.972   0.993   0.996   0.992   1.026
  6 A2   35 A1   36 A1    7 A2   26 B1   37 A1   14 B2   38 A1                 
  1.036   1.049   1.058   1.097   1.177   1.214   1.220   1.232
 27 B1   39 A1   15 B2   40 A1   28 B1   41 A1    8 A2   42 A1                 
  1.238   1.296   1.323   1.381   1.393   1.393   1.414   1.415
 29 B1   16 B2    9 A2   30 B1   17 B2   43 A1   31 B1   44 A1                 
  1.460   1.474   1.486   1.552   1.600   1.616   1.637   1.652
 18 B2   45 A1   32 B1   46 A1   10 A2   47 A1   33 B1   48 A1                 
  1.656   1.717   1.721   1.731   1.760   1.804   1.820   1.844
 19 B2   34 B1   11 A2   49 A1   20 B2   35 B1   50 A1   51 A1                 
  1.877   1.901   1.903   1.924   1.951   1.974   1.973   2.044
 12 A2   21 B2   52 A1   13 A2   22 B2   36 B1   53 A1   37 B1                 
  2.084   2.083   2.098   2.133   2.181   2.186   2.217   2.275
 38 B1   54 A1   23 B2   14 A2   24 B2   15 A2   55 A1   39 B1                 
  2.295   2.303   2.376   2.397   2.398   2.437   2.444   2.521
 16 A2   25 B2   40 B1   41 B1   56 A1   57 A1   58 A1   42 B1                 
  2.528   2.567   2.622   2.625   2.651   2.725   2.753   2.804
 59 A1   60 A1   17 A2   26 B2   43 B1   44 B1   61 A1   45 B1                 
  2.824   2.828   2.846   2.873   2.902   2.903   2.936   2.941
 46 B1   27 B2   62 A1   47 B1   63 A1   28 B2   48 B1   64 A1                 
  2.954   2.972   3.006   3.030   3.037   3.038   3.066   3.076
 65 A1   18 A2   29 B2   30 B2   49 B1   19 A2   66 A1   50 B1                 
  3.113   3.148   3.177   3.179   3.184   3.223   3.222   3.238
 31 B2   67 A1   68 A1   32 B2   20 A2   69 A1   33 B2   51 B1                 
  3.276   3.339   3.355   3.378   3.403   3.415   3.453   3.461
 70 A1   34 B2   71 A1   21 A2   52 B1   22 A2   53 B1   72 A1                 
  3.460   3.459   3.478   3.486   3.501   3.515   3.572   3.579
 35 B2   54 B1   73 A1   55 B1   23 A2   74 A1   36 B2   75 A1                 
  3.610   3.648   3.668   3.682   3.719   3.722   3.725   3.753
 24 A2   56 B1   25 A2   37 B2   76 A1   77 A1   57 B1   58 B1                 
  3.756   3.772   3.784   3.787   3.817   3.927   3.936   3.960
 38 B2   26 A2   39 B2   78 A1   79 A1   59 B1   80 A1   60 B1                 
  4.008   4.070   4.069   4.133   4.179   4.240   4.292   4.342
 27 A2   61 B1   40 B2   81 A1   62 B1   82 A1   63 B1   83 A1                 
  4.342   4.354   4.358   4.379   4.437   4.508   4.507   4.531
 41 B2   28 A2   64 B1   42 B2   84 A1   85 A1   43 B2   86 A1                 
  4.544   4.587   4.651   4.781   4.806   4.866   4.879   4.904
 29 A2   65 B1   66 B1   87 A1   30 A2   44 B2   88 A1   89 A1                 
  4.967   5.090   5.161   5.166   5.183   5.245   5.369   5.461
 67 B1   90 A1   68 B1   91 A1   69 B1   92 A1   70 B1   93 A1                 
  5.477   5.527   5.605   5.662   5.681   5.693   5.801   5.895
 45 B2   71 B1   72 B1   46 B2   73 B1   94 A1   31 A2   74 B1                 
  5.971   6.033   6.234   6.304   6.559   6.594   6.699   6.779
 95 A1   32 A2   96 A1   47 B2   48 B2   97 A1   33 A2   75 B1                 
  6.878   6.887   6.910   7.137   7.151   7.180   7.325   7.358
 98 A1   99 A1   34 A2  100 A1   76 B1   49 B2   50 B2   77 B1                 
  7.400   7.591   7.626  23.175  23.577  23.790  23.883  24.094
101 A1   78 B1  102 A1  103 A1   79 B1   80 B1  104 A1  105 A1                 
 24.501  45.306  45.504
106 A1  107 A1  108 A1                                                         
 
 Beta MOs, Restricted
 -- Doubly Occupied --           
-20.705 -20.534 -11.359 -11.323 -11.277 -11.277 -11.267 -11.267
  1 A1    2 A1    3 A1    4 A1    1 B1    5 A1    2 B1    6 A1                 
 -1.512  -1.371  -1.172  -1.068  -1.000  -0.879  -0.841  -0.758
  7 A1    8 A1    9 A1    3 B1   10 A1    4 B1   11 A1   12 A1                 
 -0.702  -0.685  -0.697  -0.633  -0.633  -0.588  -0.558  -0.428
  5 B1   13 A1    1 B2    6 B1   14 A1   15 A1    7 B1    8 B1                 
 -0.578  -0.482  -0.406
  2 B2    3 B2    1 A2                                                         
 -- Singly Occupied (Vacant) --  
 -0.687  -0.291
  9 B1    4 B2                                                                 
 -- Virtual --                   
  0.084   0.121   0.148   0.163   0.174   0.203   0.207   0.251
  2 A2    5 B2   16 A1   10 B1   17 A1   18 A1   11 B1   19 A1                 
  0.263   0.287   0.310   0.315   0.322   0.327   0.346   0.360
 20 A1    6 B2    7 B2   12 B1   13 B1   21 A1    3 A2   22 A1                 
  0.389   0.405   0.433   0.433   0.447   0.450   0.471   0.499
  8 B2   14 B1   23 A1    9 B2    4 A2   24 A1   15 B1   25 A1                 
  0.500   0.522   0.527   0.530   0.557   0.558   0.561   0.565
 16 B1   26 A1   10 B2   27 A1   17 B1   18 B1   28 A1   29 A1                 
  0.599   0.599   0.597   0.630   0.651   0.653   0.681   0.703
 30 A1   19 B1   11 B2   20 B1   31 A1   21 B1   32 A1   12 B2                 
  0.765   0.775   0.774   0.779   0.820   0.860   0.863   0.882
 13 B2   22 B1    5 A2   33 A1   23 B1   24 B1   34 A1   25 B1                 
  0.893   0.899   0.937   0.972   0.993   0.996   0.992   1.026
  6 A2   35 A1   36 A1    7 A2   26 B1   37 A1   14 B2   38 A1                 
  1.036   1.049   1.058   1.097   1.177   1.214   1.220   1.232
 27 B1   39 A1   15 B2   40 A1   28 B1   41 A1    8 A2   42 A1                 
  1.238   1.296   1.323   1.381   1.393   1.393   1.414   1.415
 29 B1   16 B2    9 A2   30 B1   17 B2   43 A1   31 B1   44 A1                 
  1.460   1.474   1.486   1.552   1.600   1.616   1.637   1.652
 18 B2   45 A1   32 B1   46 A1   10 A2   47 A1   33 B1   48 A1                 
  1.656   1.717   1.721   1.731   1.760   1.804   1.820   1.844
 19 B2   34 B1   11 A2   49 A1   20 B2   35 B1   50 A1   51 A1                 
  1.877   1.901   1.903   1.924   1.951   1.974   1.973   2.044
 12 A2   21 B2   52 A1   13 A2   22 B2   36 B1   53 A1   37 B1                 
  2.084   2.083   2.098   2.133   2.181   2.186   2.217   2.275
 38 B1   54 A1   23 B2   14 A2   24 B2   15 A2   55 A1   39 B1                 
  2.295   2.303   2.376   2.397   2.398   2.437   2.444   2.521
 16 A2   25 B2   40 B1   41 B1   56 A1   57 A1   58 A1   42 B1                 
  2.528   2.567   2.622   2.625   2.651   2.725   2.753   2.804
 59 A1   60 A1   17 A2   26 B2   43 B1   44 B1   61 A1   45 B1                 
  2.824   2.828   2.846   2.873   2.902   2.903   2.936   2.941
 46 B1   27 B2   62 A1   47 B1   63 A1   28 B2   48 B1   64 A1                 
  2.954   2.972   3.006   3.030   3.037   3.038   3.066   3.076
 65 A1   18 A2   29 B2   30 B2   49 B1   19 A2   66 A1   50 B1                 
  3.113   3.148   3.177   3.179   3.184   3.223   3.222   3.238
 31 B2   67 A1   68 A1   32 B2   20 A2   69 A1   33 B2   51 B1                 
  3.276   3.339   3.355   3.378   3.403   3.415   3.453   3.461
 70 A1   34 B2   71 A1   21 A2   52 B1   22 A2   53 B1   72 A1                 
  3.460   3.459   3.478   3.486   3.501   3.515   3.572   3.579
 35 B2   54 B1   73 A1   55 B1   23 A2   74 A1   36 B2   75 A1                 
  3.610   3.648   3.668   3.682   3.719   3.722   3.725   3.753
 24 A2   56 B1   25 A2   37 B2   76 A1   77 A1   57 B1   58 B1                 
  3.756   3.772   3.784   3.787   3.817   3.927   3.936   3.960
 38 B2   26 A2   39 B2   78 A1   79 A1   59 B1   80 A1   60 B1                 
  4.008   4.070   4.069   4.133   4.179   4.240   4.292   4.342
 27 A2   61 B1   40 B2   81 A1   62 B1   82 A1   63 B1   83 A1                 
  4.342   4.354   4.358   4.379   4.437   4.508   4.507   4.531
 41 B2   28 A2   64 B1   42 B2   84 A1   85 A1   43 B2   86 A1                 
  4.544   4.587   4.651   4.781   4.806   4.866   4.879   4.904
 29 A2   65 B1   66 B1   87 A1   30 A2   44 B2   88 A1   89 A1                 
  4.967   5.090   5.161   5.166   5.183   5.245   5.369   5.461
 67 B1   90 A1   68 B1   91 A1   69 B1   92 A1   70 B1   93 A1                 
  5.477   5.527   5.605   5.662   5.681   5.693   5.801   5.895
 45 B2   71 B1   72 B1   46 B2   73 B1   94 A1   31 A2   74 B1                 
  5.971   6.033   6.234   6.304   6.559   6.594   6.699   6.779
 95 A1   32 A2   96 A1   47 B2   48 B2   97 A1   33 A2   75 B1                 
  6.878   6.887   6.910   7.137   7.151   7.180   7.325   7.358
 98 A1   99 A1   34 A2  100 A1   76 B1   49 B2   50 B2   77 B1                 
  7.400   7.591   7.626  23.175  23.577  23.790  23.883  24.094
101 A1   78 B1  102 A1  103 A1   79 B1   80 B1  104 A1  105 A1                 
 24.501  45.306  45.504
106 A1  107 A1  108 A1                                                         
 --------------------------------------------------------------
 
          Ground-State Mulliken Net Atomic Charges

     Atom                 Charge (a.u.)
  ----------------------------------------
      1 O                    -0.166517
      2 C                     0.408698
      3 C                    -0.214301
      4 C                    -0.214301
      5 C                    -0.131965
      6 C                    -0.131965
      7 C                     0.333629
      8 O                    -0.484191
      9 H                     0.149484
     10 H                     0.149484
     11 H                     0.150972
     12 H                     0.150972
  ----------------------------------------
  Sum of atomic charges =     0.000000

  Do orbital-by-orbital Lowdin population analysis
 
 
 Partial Mulliken analysis unavailable for frozen orbitals
 
 -----------------------------------------------------------------
                    Cartesian Multipole Moments
 -----------------------------------------------------------------
    Charge (ESU x 10^10)
                 0.0000
    Dipole Moment (Debye)
         X       0.0000      Y       0.0000      Z       4.0703
       Tot       4.0703
    Quadrupole Moments (Debye-Ang)
        XX     -37.2835     XY       0.0000     YY     -47.6543
        XZ      -0.0000     YZ       0.0000     ZZ     -59.1248
    Octopole Moments (Debye-Ang^2)
       XXX       0.0000    XXY       0.0000    XYY       0.0000
       YYY       0.0000    XXZ       3.1971    XYZ      -0.0000
       YYZ       0.1284    XZZ       0.0000    YZZ       0.0000
       ZZZ      38.0389
    Hexadecapole Moments (Debye-Ang^3)
      XXXX    -266.5315   XXXY       0.0000   XXYY     -67.0387
      XYYY       0.0000   YYYY     -51.1922   XXXZ      -0.0000
      XXYZ       0.0000   XYYZ       0.0000   YYYZ       0.0000
      XXZZ    -152.1751   XYZZ       0.0000   YYZZ    -130.8667
      XZZZ       0.0000   YZZZ       0.0000   ZZZZ    -886.8854
 -----------------------------------------------------------------
 Mayer SCF Bond Order, atomic valence on the diagonal:

            1           2           3           4           5           6
    1   1.1779993   1.0936251   0.0149473   0.0149473   0.0156876   0.0156876
    2   1.0936251   3.7362136   1.2510385   1.2510385   0.0271014   0.0271014
    3   0.0149473   1.2510385   3.9037367   0.0342586   0.0150018   1.5950548
    4   0.0149473   1.2510385   0.0342586   3.9037367   1.5950548   0.0150018
    5   0.0156876   0.0271014   0.0150018   1.5950548   3.7720141  -0.0170938
    6   0.0156876   0.0271014   1.5950548   0.0150018  -0.0170938   3.7720141
    7   0.0056839   0.0538943   0.0224032   0.0224032   1.1496762   1.1496762
    8   0.0089004   0.0508015   0.0215300   0.0215300   0.0045453   0.0045453
    9   0.0033893  -0.0151752   0.9673317   0.0054927   0.0002428   0.0046214
   10   0.0033893  -0.0151752   0.0054927   0.9673317   0.0046214   0.0002428
   11   0.0008707   0.0059816  -0.0238422   0.0005204   0.0076451   0.9695316
   12   0.0008707   0.0059816   0.0005204  -0.0238422   0.9695316   0.0076451
            7           8           9          10          11          12
    1   0.0056839   0.0089004   0.0033893   0.0033893   0.0008707   0.0008707
    2   0.0538943   0.0508015  -0.0151752  -0.0151752   0.0059816   0.0059816
    3   0.0224032   0.0215300   0.9673317   0.0054927  -0.0238422   0.0005204
    4   0.0224032   0.0215300   0.0054927   0.9673317   0.0005204  -0.0238422
    5   1.1496762   0.0045453   0.0002428   0.0046214   0.0076451   0.9695316
    6   1.1496762   0.0045453   0.0046214   0.0002428   0.9695316   0.0076451
    7   4.2166541   1.7979434   0.0050120   0.0050120   0.0024749   0.0024749
    8   1.7979434   1.9312827   0.0003931   0.0003931   0.0103503   0.0103503
    9   0.0050120   0.0003931   0.9721986   0.0006732   0.0001923   0.0000254
   10   0.0050120   0.0003931   0.0006732   0.9721986   0.0000254   0.0001923
   11   0.0024749   0.0103503   0.0001923   0.0000254   0.9743083   0.0005583
   12   0.0024749   0.0103503   0.0000254   0.0001923   0.0005583   0.9743083


 Total job time:  16681.84s(wall), 13482.65s(cpu) 
 Thu Sep  7 17:15:38 2023

        *************************************************************
        *                                                           *
        *  Thank you very much for using Q-Chem.  Have a nice day.  *
        *                                                           *
        *************************************************************


