                  Welcome to Q-Chem
     A Quantum Leap Into The Future Of Chemistry


 Q-Chem 6.0 (devel), Q-Chem, Inc., Pleasanton, CA (2022)

 E. Epifanovsky,  A. T. B. Gilbert,  Xintian Feng,  Joonho Lee,  Yuezhi Mao,  
 N. Mardirossian,  P. Pokhilko,  A. White,  M. Wormit,  M. P. Coons,  
 A. L. Dempwolff,  Zhengting Gan,  D. Hait,  P. R. Horn,  L. D. Jacobson,  
 I. Kaliman,  J. Kussmann,  A. W. Lange,  Ka Un Lao,  D. S. Levine,  Jie Liu,  
 S. C. McKenzie,  A. F. Morrison,  K. Nanda,  F. Plasser,  D. R. Rehn,  
 M. L. Vidal,  Zhi-Qiang You,  Ying Zhu,  B. Alam,  B. Albrecht,  
 A. Aldossary,  E. Alguire,  J. H. Andersen,  V. Athavale,  D. Barton,  
 K. Begam,  A. Behn,  N. Bellonzi,  Y. A. Bernard,  E. J. Berquist,  
 H. Burton,  A. Carreras,  K. Carter-Fenk,  Romit Chakraborty,  
 Chandrima Chakravarty,  Junhan Chen,  A. D. Chien,  K. D. Closser,  
 V. Cofer-Shabica,  L. Cunha,  S. Dasgupta,  Jia Deng,  M. de Wergifosse,  
 M. Diedenhofen,  Hainam Do,  S. Ehlert,  Po-Tung Fang,  S. Fatehi,  
 Qingguo Feng,  T. Friedhoff,  B. Ganoe,  J. Gayvert,  Qinghui Ge,  
 G. Gidofalvi,  M. Goldey,  J. Gomes,  C. Gonzalez-Espinoza,  S. Gulania,  
 A. Gunina,  J. A. Gyamfi,  M. W. D. Hanson-Heine,  P. H. P. Harbach,  
 A. W. Hauser,  M. F. Herbst,  M. Hernandez Vera,  M. Hodecker,  
 Z. C. Holden,  S. Houck,  Xunkun Huang,  Kerwin Hui,  B. C. Huynh,  
 K. Ikeda,  M. Ivanov,  Hyunjun Ji,  Zuxin Jin,  Hanjie Jiang,  B. Kaduk,  
 S. Kaehler,  R. Kang,  K. Khistyaev,  Jaehoon Kim,  Yongbin Kim,  
 P. Klunzinger,  Z. Koczor-Benda,  Joong Hoon Koh,  D. Kosenkov,  
 Saikiran Kotaru,  L. Koulias,  T. Kowalczyk,  C. M. Krauter,  K. Kue,  
 A. Kunitsa,  T. Kus,  A. Landau,  K. V. Lawler,  D. Lefrancois,  S. Lehtola,  
 Rain Li,  Shaozhi Li,  Yi-Pei Li,  Jiashu Liang,  M. Liebenthal,  
 Hung-Hsuan Lin,  You-Sheng Lin,  Fenglai Liu,  Kuan-Yu Liu,  
 M. Loipersberger,  A. Luenser,  C. Malbon,  A. Manjanath,  P. Manohar,  
 E. Mansoor,  S. F. Manzer,  Shan-Ping Mao,  A. V. Marenich,  T. Markovich,  
 S. Mason,  F. Matz,  S. A. Maurer,  P. F. McLaughlin,  M. F. S. J. Menger,  
 J.-M. Mewes,  S. A. Mewes,  P. Morgante,  Mohammad Mostafanejad,  
 J. W. Mullinax,  K. J. Oosterbaan,  G. Paran,  V. Parravicini,  
 Alexander C. Paul,  Suranjan K. Paul,  F. Pavosevic,  Zheng Pei,  S. Prager,  
 E. I. Proynov,  E. Ramos,  B. Rana,  A. E. Rask,  A. Rettig,  R. M. Richard,  
 F. Rob,  E. Rossomme,  T. Scheele,  M. Scheurer,  M. Schneider,  
 P. E. Schneider,  N. Sergueev,  S. M. Sharada,  Hengyuan Shen,  
 W. Skomorowski,  D. W. Small,  C. J. Stein,  Yingli Su,  Yu-Chuan Su,  
 E. J. Sundstrom,  Zhen Tao,  J. Thirman,  Hung-Yi Tsai,  T. Tsuchimochi,  
 N. M. Tubman,  C. Utku,  S. P. Veccham,  O. Vydrov,  J. Wenzel,  
 Jonathan Wong,  J. Witte,  A. Yamada,  Chou-Hsun Yang,  Kun Yao,  
 S. Yeganeh,  S. R. Yost,  A. Zech,  F. Zeller,  Igor Ying Zhang,  
 Xing Zhang,  Yu Zhang,  D. Zuev,  A. Aspuru-Guzik,  A. T. Bell,  
 N. A. Besley,  K. B. Bravaya,  B. R. Brooks,  D. Casanova,  Jeng-Da Chai,  
 Hsing-Ta Chen,  S. Coriani,  C. J. Cramer,  A. E. DePrince, III,  
 R. A. DiStasio Jr.,  A. Dreuw,  B. D. Dunietz,  T. R. Furlani,  
 W. A. Goddard III,  S. Grimme,  S. Hammes-Schiffer,  T. Head-Gordon,  
 W. J. Hehre,  Chao-Ping Hsu,  T.-C. Jagau,  Yousung Jung,  A. Klamt,  
 Jing Kong,  D. S. Lambrecht,  Xiangyuan Li,  WanZhen Liang,  N. J. Mayhall,  
 C. W. McCurdy,  J. B. Neaton,  T. Neudecker,  C. Ochsenfeld,  
 J. A. Parkhill,  R. Peverati,  V. A. Rassolov,  Haisheng Ren,  Yihan Shao,  
 L. V. Slipchenko,  R. P. Steele,  J. E. Subotnik,  A. J. W. Thom,  
 A. Tkatchenko,  D. G. Truhlar,  T. Van Voorhis,  Fan Wang,  
 T. A. Wesolowski,  K. B. Whaley,  H. L. Woodcock III,  P. M. Zimmerman,  
 S. Faraji,  P. M. W. Gill,  M. Head-Gordon,  J. M. Herbert,  A. I. Krylov

 Contributors to earlier versions of Q-Chem not listed above: 
 R. D. Adamson,  B. Austin,  R. Baer,  J. Baker,  G. J. O. Beran,  
 K. Brandhorst,  S. T. Brown,  E. F. C. Byrd,  Arup K. Chakraborty,  
 G. K. L. Chan,  Chun-Min Chang,  Yunqing Chen,  C.-L. Cheng,  
 Siu Hung Chien,  D. M. Chipman,  D. L. Crittenden,  H. Dachsel,  
 R. J. Doerksen,  A. D. Dutoi,  R. G. Edgar,  J. Fosso-Tande,  
 L. Fusti-Molnar,  D. Ghosh,  A. Ghysels,  A. Golubeva-Zadorozhnaya,  
 J. Gonthier,  M. S. Gordon,  S. R. Gwaltney,  G. Hawkins,  J. E. Herr,  
 A. Heyden,  S. Hirata,  E. G. Hohenstein,  G. Kedziora,  F. J. Keil,  
 C. Kelley,  Jihan Kim,  R. A. King,  R. Z. Khaliullin,  P. P. Korambath,  
 W. Kurlancheek,  A. Laurent,  A. M. Lee,  M. S. Lee,  S. V. Levchenko,  
 Ching Yeh Lin,  D. Liotard,  E. Livshits,  R. C. Lochan,  I. Lotan,  
 L. A. Martinez-Martinez,  P. E. Maslen,  N. Nair,  D. P. O'Neill,  
 D. Neuhauser,  E. Neuscamman,  C. M. Oana,  R. Olivares-Amaya,  R. Olson,  
 T. M. Perrine,  B. Peters,  P. A. Pieniazek,  A. Prociuk,  Y. M. Rhee,  
 J. Ritchie,  M. A. Rohrdanz,  E. Rosta,  N. J. Russ,  H. F. Schaefer III,  
 M. W. Schmidt,  N. E. Schultz,  S. Sharma,  N. Shenvi,  C. D. Sherrill,  
 A. C. Simmonett,  A. Sodt,  T. Stein,  D. Stuck,  K. S. Thanthiriwatte,  
 V. Vanovschi,  L. Vogt,  Tao Wang,  A. Warshel,  M. A. Watson,  
 C. F. Williams,  Q. Wu,  X. Xu,  Jun Yang,  W. Zhang,  Yan Zhao

   Please cite Q-Chem as follows:
  "Software for the frontiers of quantum chemistry:
   An overview of developments in the Q-Chem 5 package"
   J. Chem. Phys. 155, 084801 (2021)
   https://doi.org/10.1063/5.0055522 (open access)

 Q-Chem 6.0.1 for Intel X86 EM64T Linux

 Parts of Q-Chem use Armadillo 9.900.5 (Nocturnal Misbehaviour).
 http://arma.sourceforge.net/

 Q-Chem begins on Mon Nov 27 13:26:53 2023  

 Host: atlas-186
0

     Scratch files written to ./qchem71299//
 Processing $rem in /scratch/abel/SOFTWARE/qchem/config/preferences:
 Processing $rem in /dipc/acebg/.qchemrc:

 Checking the input file for inconsistencies... 	...done.

--------------------------------------------------------------
User input:
--------------------------------------------------------------
$comment
 RAS-SF CALCULATION
$end

$molecule
 READ benzophenone.molecule
$end

$rem
!**CALCULATION TYPE***     
JOBTYPE            sp    
EXCHANGE           HF
CORRELATION        RASCI    !RASCI=Casanova; RASCI2=Zimmerman
BASIS              def2-TZVP
BASIS2             STO-3G

!***SCF REFERENCE***
INPUT_BOHR          TRUE
!SKIP_SCFMAN        FALSE
UNRESTRICTED       FALSE
!SCF_GUESS          core
!SCF_GUESS_MIX      FALSE
!SCF_GUESS_ALWAYS   FALSE
MAX_SCF_CYCLES     999
!SCF_CONVERGENCE    8
SCF_ALGORITHM      DIIS_GDM !DIIS,DM,DIIS_DM,GDM,DIIS_GDM,GD

!SYMMETRY           TRUE   !use of symmetry for calculating integrals
!SYM_IGNORE         FALSE  !turn off using symmetry
!SYM_TOL            5      !tolerance for determining point group
!USE_ABELIAN_SUBGROUP      !define to use abelian group

!THRESH             14
SCF_FINAL_PRINT     1 !0,1,2,3

!****RAS-SF****
RAS_ROOTS          20       !number of RAS-CI roots to be computed
SET_ITER           150     !number of iterations in RASCI
RAS_ELEC           10       !number of electrons in RAS2
RAS_ELEC_ALPHA     6       !spin-α electrons in RAS2 
RAS_ELEC_BETA      4       !spin-β electrons in RAS2

RAS_ACT            7      !number of orbitals in RAS2 
RAS_ACT_ORB  [29, 37, 42, 47, 48, 49, 50]  !user-selected RAS2 orbitals
RAS_OCC            43       !number of orbitals in RAS1
N_FROZEN_CORE      23     !Number of frozen core orbitals
N_FROZEN_VIRTUAL   424      !Number of frozen virtual orbitals

RAS_DO_HOLE        TRUE   !presence of hole excitations in RAS-CI wave function
RAS_DO_PART        TRUE   !presence of particle excitations
!RAS_AMPL_PRINT     10     !threshold (×10 2 ) for the CI amplitudes

!RAS_GUESS_CS       0      !number of closed shell guess conﬁgurations
!RAS_SPIN_MULT      0      !spin multiplicity. Only for Ms = 0 
!RAS_SRDFT          FALSE  !short-range density functional RAS-CI
!RAS_NFRAG          0     !fragments of excitation analysis in RASCI

RAS_PRINT          2      !level of information
RAS_NATORB         TRUE   !computation of the natural orbital occupancies
!RAS_NATORB_STATE  0      !Saves NO of i RAS computed state in .fchk ﬁle
!RAS_FOD            TRUE

!****RAS-SOC****
CALC_SOC           TRUE   !calculate SOC for EOM-CC, RAS-CI, ADC, TDDFT/TDA and TDDFT
!RAS_SOC_2E        TRUE   !two-electron mean-ﬁeld contribution, default=true
RAS_SOC_SYM_DENS   TRUE   !averaging of α and β densities

!****MEMORY****
MEM_TOTAL          68000 !Default 2000 MB
MEM_STATIC         20000  !Default 64 MB

!**Molecular Properties and Analysis **                                                                                          
POP_MULLIKEN       TRUE   !Run Mulliken population analysis
LOWDIN_POPULATION  TRUE   !Run Löwdin population analysis
GUI                2       !Checkpoints generation
STATE_ANALYSIS     TRUE

!**Wave function analysis of RAS-CI states: MOLDEN**
!PLOTS = 0     ! Note: This can be omitted, default is 0
!NTO_PAIRS = 2 ! Note: This can be omitted, default is 2
!GUI 0
!MOLDEN_FORMAT      TRUE
!PRINT_ORBITALS     15

!**Wave function analysis of RAS-CI state: CUBE**
!NTO_PAIRS = 2 ! Note: This can be omitted, default is 2
!PLOTS = 1
!GUI 0

!**SR-DFT**
!RAS_SRDFT           TRUE !Perform short-range density functional RAS-CI
!RAS_SRDFT_EXC       0 !EX functional. 0=HF. 
!RAS_SRDFT_ONLY_COR  TRUE !No use of EXC functional
!RAS_SRDFT_COR       srPBE !short-range correlation functional
!ras_srdft_0         TRUE !true: no iteration (one-shot); false: iteration
!RAS_OMEGA           400 !Coulomb range-separation parameter. def=400
!RAS_SRDFT_DAMP     0.5 !dumping factor. def=0.5
$end

!$plots
!   grid_points 100 100 100
!   grid_range  (-10,10) (-10,10) (-10,10)
!$end

--------------------------------------------------------------
 ----------------------------------------------------------------
             Standard Nuclear Orientation (Bohr)
    I     Atom           X                Y                Z
 ----------------------------------------------------------------
    1      C       0.0000000000    -0.0000000000     1.7616000772
    2      O       0.0000000000    -0.0000000000     4.2626453788
    3      C      -2.4515146503    -0.0331342717     0.5854026033
    4      C       2.4515146503     0.0331342717     0.5854026033
    5      C       2.8430013288     1.0880866231    -1.8463666677
    6      C       4.5970400963    -0.8671930082     1.9264083375
    7      C       6.9748613791    -0.7928839619     0.8403562343
    8      C       5.2262074578     1.1225172668    -2.9109015756
    9      C       7.3157580598     0.1834271136    -1.5850434514
   10      H       1.2649900922     1.9042492020    -2.8578536668
   11      H       4.3392930822    -1.6659511958     3.7896568207
   12      H       5.4817259580     1.9198549006    -4.7799236178
   13      H       8.5807201718    -1.5192143035     1.8831820792
   14      H       9.1788078092     0.2325165625    -2.4295762444
   15      C      -2.8430013288    -1.0880866231    -1.8463666677
   16      C      -4.5970400963     0.8671930082     1.9264083375
   17      C      -5.2262074578    -1.1225172668    -2.9109015756
   18      C      -6.9748613791     0.7928839619     0.8403562343
   19      C      -7.3157580598    -0.1834271136    -1.5850434514
   20      H      -1.2649900922    -1.9042492020    -2.8578536668
   21      H      -5.4817259580    -1.9198549006    -4.7799236178
   22      H      -4.3392930822     1.6659511958     3.7896568207
   23      H      -8.5807201718     1.5192143035     1.8831820792
   24      H      -9.1788078092    -0.2325165625    -2.4295762444
 ----------------------------------------------------------------
 Molecular Point Group                 C2    NOp =  2
 Largest Abelian Subgroup              C2    NOp =  2
 Nuclear Repulsion Energy =         772.43069410 hartrees
 There are       49 alpha and       47 beta electrons
 Requested basis set is def2-TZVP
 There are 194 shells and 494 basis functions

 Q-Chem warning in module libmdc/get_mega.C, line 167:

 Allowed MEM_STATIC has been capped at MEM_STATIC=8191.
 Reduce the value of MEM_STATIC to silence this warning.


 Total QAlloc Memory Limit  68000 MB
 Mega-Array Size      8007 MB
 MEM_STATIC part      8191 MB

 A cutoff of  1.0D-09 yielded  13678 shell pairs
 There are     87354 function pairs (    112510 Cartesian)
 Smallest overlap matrix eigenvalue = 8.18E-06

 Q-Chem warning in module stvman/mkSTV.C, line 313:

 Overlap eigenvalue is smaller than square root of threshold
 Use THRESH >= 12 to get rid of this warning


 Scale SEOQF with 1.000000e-01/1.000000e+00/1.000000e-01

 Standard Electronic Orientation quadrupole field applied
 Nucleus-field energy     =     0.0000000231 hartrees
 Requested basis set is STO-3G
 There are 38 shells and 80 basis functions
 A cutoff of  1.0D-09 yielded    531 shell pairs
 There are      2742 function pairs
 Smallest overlap matrix eigenvalue = 1.73E-01
 Constructing guess Fock matrix from core Hamiltonian
 Applying Wolfsberg-Helmholtz approximation
 A restricted Hartree-Fock SCF calculation will be
 performed using Geometric Direct Minimization
 SCF converges when RMS gradient is below 1.0E-04
 ---------------------------------------
  Cycle       Energy        RMS Gradient
 ---------------------------------------
    1    -563.5189813627      3.78E-01 Descent step
    2    -564.1073352384      2.94E-01 Descent step
    3    -564.5762614188      2.35E-01 Descent step
    4    -564.9424222796      3.10E-01 Descent step
    5    -565.2385720744      4.42E-01 Descent step
    6    -565.5186594576      2.72E-01 Descent step
    7    -565.7068111177      1.77E-01 Descent step
    8    -565.8063347325      7.75E-02 Dog-leg BFGS step
    9    -565.8197166914      7.27E-02 Normal BFGS step
   10    -565.8079560722      8.11E-02 Line search: overstep
   11    -565.8300208096      4.05E-02 Descent step
   12    -565.8348600491      3.54E-02 Normal BFGS step
   13    -565.8355378695      1.28E-02 Normal BFGS step
   14    -565.8358576558      4.09E-03 Normal BFGS step
   15    -565.8359171123      2.92E-03 Normal BFGS step
   16    -565.8359561849      1.86E-03 Normal BFGS step
   17    -565.8359781573      1.30E-03 Normal BFGS step
   18    -565.8359889881      1.08E-03 Normal BFGS step
   19    -565.8359931603      7.13E-04 Normal BFGS step
   20    -565.8359947151      3.36E-04 Normal BFGS step
   21    -565.8359951645      1.96E-04 Normal BFGS step
   22    -565.8359952311      9.64E-05 Convergence criterion met
 ---------------------------------------
 One-Electron    Energy = -2305.4763240232
 Total Coulomb   Energy =  1046.6215714433
 Alpha Exchange  Energy =   -40.3563193634
 Beta  Exchange  Energy =   -39.0556174122
 DFT   Exchange  Energy =     0.0000000000
 DFT Correlation Energy =     0.0000000000
 Nuclear Repu.   Energy =   772.4306941244
 Nuclear Attr.   Energy = -2866.5234544087
 Kinetic         Energy =   561.0471303854
 SCF time:  CPU 3.07 s  wall 4.33 s
 SCF   energy in the small basis set = -565.83599523
 Total energy in the small basis set = -565.83599523
 ----------------------------------------------------
  Cycle       Energy    
 ----------------------------------------------------
    1     -71.5185056489     -7.15E+01
 A restricted Hartree-Fock SCF calculation will be
 performed using Geometric Direct Minimization
 SCF converges when RMS gradient is below 1.0E-05
 ---------------------------------------
  Cycle       Energy        RMS Gradient
 ---------------------------------------
    1    -572.8384162148      4.89E-01 Descent step
    2    -572.8764802812      3.47E-01 Descent step
    3    -573.0028633520      9.82E-02 Descent step
    4    -573.0646717880      1.32E-01 Normal BFGS step
    5    -573.0781860123      1.34E-01 Normal BFGS step
    6    -573.0794718724      1.07E-01 Normal BFGS step
    7    -573.0875361402      3.49E-02 Normal BFGS step
    8    -573.0895883328      2.03E-02 Normal BFGS step
    9    -573.0904120621      1.26E-02 Normal BFGS step
   10    -573.0913895967      1.03E-02 Normal BFGS step
   11    -573.0918054956      7.53E-03 Normal BFGS step
   12    -573.0920914255      3.74E-03 Normal BFGS step
   13    -573.0921412321      1.92E-03 Normal BFGS step
   14    -573.0921486914      9.60E-04 Normal BFGS step
   15    -573.0921498064      3.98E-04 Normal BFGS step
   16    -573.0921492016      3.61E-05 Line search: overstep
   17    -573.0921499934      2.66E-04 Normal BFGS step
   18    -573.0921493330      2.48E-05 Line search: overstep
   19    -573.0921501081      1.94E-04 Normal BFGS step
   20    -573.0921493652      2.00E-05 Line search: overstep
   21    -573.0921501132      1.61E-04 Normal BFGS step
   22    -573.0921492891      4.29E-05 Line search: overstep
   23    -573.0921501299      1.38E-04 Normal BFGS step
   24    -573.0921495200      2.76E-05 Line search: overstep
   25    -573.0921501499      1.20E-04 Normal BFGS step
   26    -573.0921496427      6.88E-05 Line search: overstep
   27    -573.0921501268      3.99E-05 Line search: overstep
   28    -573.0921508722      7.15E-05 Line search: understep
   29    -573.0921501674      1.06E-04 Normal BFGS step
   30    -573.0921502272      3.95E-05 Normal BFGS step
   31    -573.0921503508      1.46E-05 Normal BFGS step
   32    -573.0921499818      8.61E-06 Convergence criterion met
 ---------------------------------------
 One-Electron    Energy = -2309.5738058803
 Total Coulomb   Energy =  1043.3491053098
 Alpha Exchange  Energy =   -40.2366631949
 Beta  Exchange  Energy =   -39.0614803409
 DFT   Exchange  Energy =     0.0000000000
 DFT Correlation Energy =     0.0000000000
 Nuclear Repu.   Energy =   772.4306941244
 Nuclear Attr.   Energy = -2882.1129434424
 Kinetic         Energy =   572.5391375621
 SCF time:  CPU 2058.94 s  wall 2075.39 s
 SCF   energy in the final basis set = -573.09214998
 Total energy in the final basis set = -573.09214998
  
     ##========================================##
     ||                                        ||
     ||              R A S M A N 2             ||
     ||________________________________________||
     ||                                        ||
     ||  Author:                               ||
     ||                                        ||
     ||        David Casanova (2010)           ||
     ||                                        ||
     ##========================================##
  
Setting single-point xc-functionals (if necessary)

  ***************************************************
  *  RAS-CI Dimensions:                             *
  *                                                 *
  *  Active Elec.:  10 ( 6, 4)   Active Orb.:   7   *
  *  Doubly Occ. :  43           Doubly Vir.: 444   *
  *  Frozen Occ. :  23           Frozen Vir.: 424   *
  *                                                 *
  *  Total CI configurations:     23485             * 
  *    Active configurations:       245             * 
  *      Hole configurations:      3640             * 
  *  Particle configurations:     19600             * 
  *                                                 *
  *   Requested states:       20                    *
  *  Spin multiplicity: Any multiplicity            *
  *                                                 *
  ***************************************************
-----------------------------------------
    Memory requirements of RASCI

 Each CI-vector requires      0.18 MiB 
 Max. subspace vectors           3000      

 Reduced Lists                0.00 MiB 
 Excitation Lists             0.00 MiB 
 Excitation Lists Sign        0.00 MiB 
 CI-space (Max)             609.80 MiB 
 Integrals                  184.15 MiB 
 Memory required (Max)      609.80 MiB 
 Memory available          7811.55 MiB 

    Disk requirements of RASCI

 Fock matrix                  3.72 MiB 
 2-electron integrals         1.74 MiB 
 CI-space                  1075.06 MiB 
 Disk required             1080.52 MiB 
-----------------------------------------
  
RAS1 HF-like energy:           -558.5375507780
 Computing integrals
 Computing J and K matrices
 Computing addressing
 Making amplitude guesses
 
Direct CI diagonalization
 ---------------------------------------------------
 Iter    Rts Conv    Rts Left    Ttl Dev     Max Dev
 ---------------------------------------------------
   1         0          20      0.018723    0.001406
   2         0          20      0.019438    0.001554
   3         0          20      0.019105    0.001700
   4         0          20      0.014457    0.001314
   5         0          20      0.013880    0.001691
   6         0          20      0.013317    0.001407
   7         0          20      0.012491    0.001660
   8         0          20      0.009715    0.001058
   9         0          20      0.007988    0.000736
  10         0          20      0.006717    0.000668
  11         0          20      0.005420    0.000476
  12         1          19      0.004128    0.000502
  13         1          19      0.003396    0.000440
  14         1          19      0.002531    0.000464
  15         1          19      0.002094    0.000397
  16         1          19      0.002140    0.000542
  17         1          19      0.001429    0.000448
  18         3          17      0.001067    0.000303
  19         4          16      0.000740    0.000225
  20         4          16      0.000537    0.000160
  21         5          15      0.000417    0.000121
  22         7          13      0.000338    0.000103
  23         9          11      0.000262    0.000085
  24        10          10      0.000194    0.000068
  25        11           9      0.000143    0.000052
  26        12           8      0.000103    0.000037
  27        13           7      0.000068    0.000024
  28        13           7      0.000048    0.000017
  29        15           5      0.000034    0.000012
  30        16           4      0.000024    0.000008
  31        16           4      0.000017    0.000005
  32        18           2      0.000013    0.000004
  33        18           2      0.000010    0.000003
  34        18           2      0.000008    0.000002
  35        19           1      0.000007    0.000001
  36        20           0      0.000007    0.000001    Roots Converged
 ---------------------------------------------------
   
**************************************************
 RAS-CI total energy for state   1:   -573.099103936685
  Excitation energy (eV) =  0.000000000000
 Warning : Irrep of orbital( 137) could not be determined
 Warning : Irrep of orbital( 138) could not be determined
 Warning : Irrep of orbital( 140) could not be determined
 Warning : Irrep of orbital( 141) could not be determined
 Warning : Irrep of orbital( 137) could not be determined
 Warning : Irrep of orbital( 138) could not be determined
 Warning : Irrep of orbital( 140) could not be determined
 Warning : Irrep of orbital( 141) could not be determined
  State symmetry: A     (C2       )
  <S^2>      :  2.0000
  Dipole Moment:    0.0000 X    -0.0000 Y     0.4785 Z
 NATURAL OCCUPATION NUMBERS (higher than 1.0E-05)
            1           2           3           4           5           6
    1   2.0000000   2.0000000   2.0000000   2.0000000   2.0000000   2.0000000
            7           8           9          10          11          12
    1   2.0000000   2.0000000   2.0000000   2.0000000   2.0000000   2.0000000
           13          14          15          16          17          18
    1   2.0000000   2.0000000   2.0000000   2.0000000   2.0000000   2.0000000
           19          20          21          22          23          24
    1   2.0000000   2.0000000   2.0000000   2.0000000   2.0000000   2.0000000
           25          26          27          28          29          30
    1   1.9999999   1.9999999   1.9999998   1.9999996   1.9999995   1.9999991
           31          32          33          34          35          36
    1   1.9999989   1.9999959   1.9999948   1.9999924   1.9999913   1.9999757
           37          38          39          40          41          42
    1   1.9999683   1.9999662   1.9999235   1.9998858   1.9998787   1.9997368
           43          44          45          46          47          48
    1   1.9996710   1.9996076   1.9987191   1.9976846   1.9852677   1.0014046
           49          50          51          52          53          54
    1   1.0001069   0.0148567   0.0024968   0.0001935   0.0001758   0.0001278
           55          56          57          58          59          60
    1   0.0000903   0.0000729   0.0000586   0.0000469   0.0000285   0.0000258
           61          62
    1   0.0000138   0.0000131

 Head-Gordon Nu:    2.04
 Head-Gordon Nu_nl: 2.00

  Amplitudes : 
  
 | HOLE  | ALPHA   | BETA    | PART  |    AMPLITUDE 
--------------------------------------------------
 |       | 1111110 | 1111000 |       |     9.9333773602409E-01
--------------------------------------------------
*** Contributions RASCI wfn    Active:  99.24
                                 Hole:   0.36
                                 Part:   0.39

      Mulliken population analysis 
 ---------------------------------------------------
   Atom    Charge (a.u.)   Spin (a.u.)  
 ---------------------------------------------------
   1  C    0.288053        0.595822 
   2  O   -0.220722        1.021750 
   3  C    0.180643        0.035876 
   4  C    0.180528        0.035875 
   5  C   -0.332642        0.047298 
   6  C   -0.229273        0.050128 
   7  C   -0.107041        0.003112 
   8  C   -0.078063        0.002212 
   9  C   -0.146358        0.053167 
  10  H    0.154004       -0.001056 
  11  H    0.143328        0.001530 
  12  H    0.127407       -0.000705 
  13  H    0.126439       -0.000921 
  14  H    0.127983        0.000573 
  15  C   -0.332729        0.047297 
  16  C   -0.229297        0.050125 
  17  C   -0.078058        0.002211 
  18  C   -0.107051        0.003114 
  19  C   -0.146367        0.053166 
  20  H    0.153997       -0.001053 
  21  H    0.127424       -0.000706 
  22  H    0.143352        0.001529 
  23  H    0.126453       -0.000919 
  24  H    0.127989        0.000573 
 ---------------------------------------------------
   Sum:    0.000000        2.000000 
 ---------------------------------------------------
 
  
 NATURAL OCCUPATION NUMBERS (higher than 1.0E-05)
            1           2           3           4           5           6
    1   2.0000000   2.0000000   2.0000000   2.0000000   2.0000000   2.0000000
            7           8           9          10          11          12
    1   2.0000000   2.0000000   2.0000000   2.0000000   2.0000000   2.0000000
           13          14          15          16          17          18
    1   2.0000000   2.0000000   2.0000000   2.0000000   2.0000000   2.0000000
           19          20          21          22          23          24
    1   2.0000000   2.0000000   2.0000000   2.0000000   2.0000000   2.0000000
           25          26          27          28          29          30
    1   1.9999999   1.9999999   1.9999998   1.9999996   1.9999995   1.9999991
           31          32          33          34          35          36
    1   1.9999989   1.9999959   1.9999948   1.9999924   1.9999913   1.9999757
           37          38          39          40          41          42
    1   1.9999683   1.9999662   1.9999235   1.9998858   1.9998787   1.9997368
           43          44          45          46          47          48
    1   1.9996710   1.9996076   1.9987191   1.9976846   1.9852677   1.0014046
           49          50          51          52          53          54
    1   1.0001069   0.0148567   0.0024968   0.0001935   0.0001758   0.0001278
           55          56          57          58          59          60
    1   0.0000903   0.0000729   0.0000586   0.0000469   0.0000285   0.0000258
           61          62
    1   0.0000138   0.0000131
  
*** Unpaired Electrons
 Yamaguchi Nd:         2.08
 Head-Gordon Nu:       2.04
 Head-Gordon Nu_nl:    2.00
  
**************************************************
 RAS-CI total energy for state   2:   -573.053385471764
  Excitation energy (eV) =  1.244062726436
  State symmetry: A     (C2       )
  <S^2>      :  2.0000
  Dipole Moment:    0.0000 X     0.0000 Y     0.7354 Z
  Trans. Moment:   -0.0000 X     0.0000 Y     0.0581 Z
  Strength   :  0.000103
  Natural transition orbitals ( 1 -> 2 ):
   e-/hole pair  1 alpha:  ampl =  0.010853 (  0.0%)   [7 : 8]
   e-/hole pair  2 alpha:  ampl =  0.004834 (  0.0%)   [6 : 9]
   e-/hole pair  1 beta :  ampl =  0.994933 ( 99.0%)   [7 : 8]
   e-/hole pair  2 beta :  ampl =  0.013381 (  0.0%)   [6 : 9]
   Sum of square amplitudes: 0.99

 NATURAL OCCUPATION NUMBERS (higher than 1.0E-05)
            1           2           3           4           5           6
    1   2.0000000   2.0000000   2.0000000   2.0000000   2.0000000   2.0000000
            7           8           9          10          11          12
    1   2.0000000   2.0000000   2.0000000   2.0000000   2.0000000   2.0000000
           13          14          15          16          17          18
    1   2.0000000   2.0000000   2.0000000   2.0000000   2.0000000   2.0000000
           19          20          21          22          23          24
    1   2.0000000   2.0000000   2.0000000   2.0000000   2.0000000   2.0000000
           25          26          27          28          29          30
    1   1.9999999   1.9999999   1.9999998   1.9999997   1.9999991   1.9999985
           31          32          33          34          35          36
    1   1.9999985   1.9999982   1.9999979   1.9999970   1.9999951   1.9999948
           37          38          39          40          41          42
    1   1.9999892   1.9999761   1.9999624   1.9999351   1.9999329   1.9999011
           43          44          45          46          47          48
    1   1.9998862   1.9994790   1.9992249   1.9987821   1.9857932   1.0055219
           49          50          51          52          53          54
    1   0.9964802   0.0141904   0.0005232   0.0001047   0.0000988   0.0000750
           55          56          57          58          59          60
    1   0.0000396   0.0000269   0.0000258   0.0000221   0.0000165   0.0000118

 Head-Gordon Nu:    2.02
 Head-Gordon Nu_nl: 2.00

  Amplitudes : 
  
 | HOLE  | ALPHA   | BETA    | PART  |    AMPLITUDE 
--------------------------------------------------
 |       | 1111110 | 1011100 |       |    -6.1805953432431E-01
 |  30   | 1111110 | 1111100 |       |    -3.1576287160915E-01
 |  33   | 1111110 | 1111100 |       |     4.7940987221382E-01
 |  37   | 1111110 | 1111100 |       |     1.0447149206699E-01
 |  39   | 1111110 | 1111100 |       |    -3.3631714916184E-01
 |  41   | 1111110 | 1111100 |       |     3.6977659806943E-01
--------------------------------------------------
*** Contributions RASCI wfn    Active:  38.76
                                 Hole:  61.13
                                 Part:   0.11

      Mulliken population analysis 
 ---------------------------------------------------
   Atom    Charge (a.u.)   Spin (a.u.)  
 ---------------------------------------------------
   1  C    0.343754        0.672113 
   2  O   -0.300700        0.941997 
   3  C    0.176056        0.030275 
   4  C    0.175942        0.030275 
   5  C   -0.326650        0.050450 
   6  C   -0.223715        0.053482 
   7  C   -0.105121        0.001460 
   8  C   -0.077223        0.002671 
   9  C   -0.142785        0.053371 
  10  H    0.154490        0.000188 
  11  H    0.141511        0.000877 
  12  H    0.127372       -0.000080 
  13  H    0.126888       -0.000194 
  14  H    0.127742        0.000445 
  15  C   -0.326736        0.050450 
  16  C   -0.223739        0.053481 
  17  C   -0.077219        0.002671 
  18  C   -0.105131        0.001460 
  19  C   -0.142794        0.053371 
  20  H    0.154483        0.000189 
  21  H    0.127390       -0.000080 
  22  H    0.141536        0.000876 
  23  H    0.126901       -0.000193 
  24  H    0.127749        0.000445 
 ---------------------------------------------------
   Sum:    0.000000        2.000000 
 ---------------------------------------------------
 
  
 NATURAL OCCUPATION NUMBERS (higher than 1.0E-05)
            1           2           3           4           5           6
    1   2.0000000   2.0000000   2.0000000   2.0000000   2.0000000   2.0000000
            7           8           9          10          11          12
    1   2.0000000   2.0000000   2.0000000   2.0000000   2.0000000   2.0000000
           13          14          15          16          17          18
    1   2.0000000   2.0000000   2.0000000   2.0000000   2.0000000   2.0000000
           19          20          21          22          23          24
    1   2.0000000   2.0000000   2.0000000   2.0000000   2.0000000   2.0000000
           25          26          27          28          29          30
    1   1.9999999   1.9999999   1.9999998   1.9999997   1.9999991   1.9999985
           31          32          33          34          35          36
    1   1.9999985   1.9999982   1.9999979   1.9999970   1.9999951   1.9999948
           37          38          39          40          41          42
    1   1.9999892   1.9999761   1.9999624   1.9999351   1.9999329   1.9999011
           43          44          45          46          47          48
    1   1.9998862   1.9994790   1.9992249   1.9987821   1.9857932   1.0055219
           49          50          51          52          53          54
    1   0.9964802   0.0141904   0.0005232   0.0001047   0.0000988   0.0000750
           55          56          57          58          59          60
    1   0.0000396   0.0000269   0.0000258   0.0000221   0.0000165   0.0000118
  
*** Unpaired Electrons
 Yamaguchi Nd:         2.06
 Head-Gordon Nu:       2.02
 Head-Gordon Nu_nl:    2.00
  
**************************************************
 RAS-CI total energy for state   3:   -572.992114976659
  Excitation energy (eV) =  2.911317725533
  State symmetry: B     (C2       )
  <S^2>      :  2.0000
  Dipole Moment:    0.0000 X     0.0000 Y     0.2813 Z
  Trans. Moment:   -0.9201 X    -0.0765 Y     0.0000 Z
  Strength   :  0.060807
  Natural transition orbitals ( 1 -> 3 ):
   e-/hole pair  1 alpha:  ampl =  0.783160 ( 61.3%)   [7 : 8]
   e-/hole pair  2 alpha:  ampl =  0.121226 (  1.5%)   [6 : 9]
   e-/hole pair  1 beta :  ampl =  0.402706 ( 16.2%)   [7 : 8]
   e-/hole pair  2 beta :  ampl =  0.107825 (  1.2%)   [6 : 9]
   Sum of square amplitudes: 0.81

 NATURAL OCCUPATION NUMBERS (higher than 1.0E-05)
            1           2           3           4           5           6
    1   2.0000000   2.0000000   2.0000000   2.0000000   2.0000000   2.0000000
            7           8           9          10          11          12
    1   2.0000000   2.0000000   2.0000000   2.0000000   2.0000000   2.0000000
           13          14          15          16          17          18
    1   2.0000000   2.0000000   2.0000000   2.0000000   2.0000000   2.0000000
           19          20          21          22          23          24
    1   2.0000000   2.0000000   2.0000000   2.0000000   2.0000000   1.9999999
           25          26          27          28          29          30
    1   1.9999998   1.9999998   1.9999993   1.9999992   1.9999986   1.9999973
           31          32          33          34          35          36
    1   1.9999972   1.9999950   1.9999873   1.9999819   1.9999739   1.9998489
           37          38          39          40          41          42
    1   1.9998404   1.9997718   1.9997024   1.9994579   1.9991481   1.9989904
           43          44          45          46          47          48
    1   1.9983124   1.9980895   1.9946787   1.9495248   1.7468282   1.0359940
           49          50          51          52          53          54
    1   0.7583700   0.4725203   0.0460915   0.0016390   0.0003893   0.0002908
           55          56          57          58          59          60
    1   0.0001530   0.0000941   0.0000925   0.0000882   0.0000585   0.0000329
           61          62
    1   0.0000257   0.0000103

 Head-Gordon Nu:    2.56
 Head-Gordon Nu_nl: 2.62

  Amplitudes : 
  
 | HOLE  | ALPHA   | BETA    | PART  |    AMPLITUDE 
--------------------------------------------------
 |       | 1111110 | 1110100 |       |     1.5657820795666E-01
 |       | 1111110 | 1110010 |       |     3.4338289314191E-01
 |       | 1111101 | 1111000 |       |     7.3827317487772E-01
 |  41   | 1111111 | 1111000 |       |    -2.3267364968837E-01
 |  41   | 1111110 | 1111001 |       |     1.0608291235204E-01
 |  41   | 1111101 | 1111100 |       |     1.1868548955940E-01
 |  41   | 1111101 | 1111010 |       |     3.1827234312939E-01
 |       | 1110110 | 1111000 |  55   |     1.1689793830553E-01
 |       | 1111100 | 1110010 |  55   |    -2.2424978273330E-01
 |       | 1111110 | 1110000 |  55   |    -1.2105098905210E-01
--------------------------------------------------
*** Contributions RASCI wfn    Active:  69.88
                                 Hole:  20.24
                                 Part:   9.88

      Mulliken population analysis 
 ---------------------------------------------------
   Atom    Charge (a.u.)   Spin (a.u.)  
 ---------------------------------------------------
   1  C    0.406019       -0.069550 
   2  O   -0.229965        0.914954 
   3  C    0.112173        0.206036 
   4  C    0.112059        0.206035 
   5  C   -0.333803        0.077434 
   6  C   -0.184068        0.045501 
   7  C   -0.137066        0.049828 
   8  C   -0.073125        0.030264 
   9  C   -0.149566        0.164698 
  10  H    0.154867        0.001047 
  11  H    0.141374        0.000567 
  12  H    0.128104        0.000062 
  13  H    0.126240        0.000542 
  14  H    0.126933        0.001320 
  15  C   -0.333887        0.077432 
  16  C   -0.184089        0.045500 
  17  C   -0.073121        0.030265 
  18  C   -0.137077        0.049829 
  19  C   -0.149574        0.164697 
  20  H    0.154859        0.001047 
  21  H    0.128122        0.000061 
  22  H    0.141398        0.000567 
  23  H    0.126253        0.000543 
  24  H    0.126939        0.001320 
 ---------------------------------------------------
   Sum:    0.000000        2.000000 
 ---------------------------------------------------
 
  
 NATURAL OCCUPATION NUMBERS (higher than 1.0E-05)
            1           2           3           4           5           6
    1   2.0000000   2.0000000   2.0000000   2.0000000   2.0000000   2.0000000
            7           8           9          10          11          12
    1   2.0000000   2.0000000   2.0000000   2.0000000   2.0000000   2.0000000
           13          14          15          16          17          18
    1   2.0000000   2.0000000   2.0000000   2.0000000   2.0000000   2.0000000
           19          20          21          22          23          24
    1   2.0000000   2.0000000   2.0000000   2.0000000   2.0000000   1.9999999
           25          26          27          28          29          30
    1   1.9999998   1.9999998   1.9999993   1.9999992   1.9999986   1.9999973
           31          32          33          34          35          36
    1   1.9999972   1.9999950   1.9999873   1.9999819   1.9999739   1.9998489
           37          38          39          40          41          42
    1   1.9998404   1.9997718   1.9997024   1.9994579   1.9991481   1.9989904
           43          44          45          46          47          48
    1   1.9983124   1.9980895   1.9946787   1.9495248   1.7468282   1.0359940
           49          50          51          52          53          54
    1   0.7583700   0.4725203   0.0460915   0.0016390   0.0003893   0.0002908
           55          56          57          58          59          60
    1   0.0001530   0.0000941   0.0000925   0.0000882   0.0000585   0.0000329
           61          62
    1   0.0000257   0.0000103
  
*** Unpaired Electrons
 Yamaguchi Nd:         3.32
 Head-Gordon Nu:       2.56
 Head-Gordon Nu_nl:    2.62
  
**************************************************
 RAS-CI total energy for state   4:   -572.946294376284
  Excitation energy (eV) =  4.158159699074
  State symmetry: B     (C2       )
  <S^2>      :  2.0000
  Dipole Moment:    0.0000 X    -0.0000 Y     1.8298 Z
  Trans. Moment:    0.7239 X     0.0597 Y     0.0000 Z
  Strength   :  0.053754
  Natural transition orbitals ( 1 -> 4 ):
   e-/hole pair  1 alpha:  ampl =  0.221835 (  4.9%)   [7 : 8]
   e-/hole pair  2 alpha:  ampl =  0.046485 (  0.2%)   [6 : 9]
   e-/hole pair  1 beta :  ampl =  0.694015 ( 48.2%)   [7 : 8]
   e-/hole pair  2 beta :  ampl =  0.029306 (  0.1%)   [6 : 9]
   Sum of square amplitudes: 0.53

 NATURAL OCCUPATION NUMBERS (higher than 1.0E-05)
            1           2           3           4           5           6
    1   2.0000000   2.0000000   2.0000000   2.0000000   2.0000000   2.0000000
            7           8           9          10          11          12
    1   2.0000000   2.0000000   2.0000000   2.0000000   2.0000000   2.0000000
           13          14          15          16          17          18
    1   2.0000000   2.0000000   2.0000000   2.0000000   2.0000000   2.0000000
           19          20          21          22          23          24
    1   2.0000000   2.0000000   2.0000000   2.0000000   2.0000000   1.9999999
           25          26          27          28          29          30
    1   1.9999996   1.9999996   1.9999995   1.9999987   1.9999982   1.9999979
           31          32          33          34          35          36
    1   1.9999973   1.9999967   1.9999920   1.9999807   1.9999651   1.9999506
           37          38          39          40          41          42
    1   1.9997831   1.9997020   1.9995256   1.9993362   1.9991113   1.9986790
           43          44          45          46          47          48
    1   1.9922164   1.9788871   1.9667125   1.9515814   1.7141349   1.2666328
           49          50          51          52          53          54
    1   0.8442635   0.2449971   0.0357383   0.0065686   0.0007316   0.0007226
           55          56          57          58          59          60
    1   0.0003335   0.0001215   0.0001039   0.0000659   0.0000582   0.0000303
           61          62          63          64
    1   0.0000250   0.0000183   0.0000116   0.0000106

 Head-Gordon Nu:    2.27
 Head-Gordon Nu_nl: 2.26

  Amplitudes : 
  
 | HOLE  | ALPHA   | BETA    | PART  |    AMPLITUDE 
--------------------------------------------------
 |       | 1111110 | 1110100 |       |     6.1638927094857E-01
 |       | 1111110 | 1010110 |       |     2.9049750296979E-01
 |       | 1111110 | 0111100 |       |    -1.6351885375020E-01
 |       | 1111101 | 1111000 |       |    -2.0391645933730E-01
 |       | 1111101 | 1011100 |       |    -1.4880324332476E-01
 |  28   | 1111110 | 1111100 |       |     1.2023278143493E-01
 |  32   | 1111110 | 1111100 |       |     1.2885348077244E-01
 |  30   | 1111110 | 1110110 |       |     1.3456976347879E-01
 |  33   | 1111110 | 1110110 |       |    -2.0423134028804E-01
 |  39   | 1111110 | 1110110 |       |     1.4504043796590E-01
 |  41   | 1111110 | 1110110 |       |    -1.3736104772912E-01
 |  33   | 1111101 | 1111100 |       |     1.0965287360984E-01
 |  41   | 1111101 | 1111100 |       |     3.3500157077154E-01
 |       | 1111100 | 1110100 |  55   |    -2.4737803475184E-01
--------------------------------------------------
*** Contributions RASCI wfn    Active:  56.69
                                 Hole:  33.74
                                 Part:   9.57

      Mulliken population analysis 
 ---------------------------------------------------
   Atom    Charge (a.u.)   Spin (a.u.)  
 ---------------------------------------------------
   1  C    0.332285        0.127126 
   2  O   -0.539285        0.582273 
   3  C    0.238796        0.190059 
   4  C    0.238686        0.190055 
   5  C   -0.341695        0.068718 
   6  C   -0.186471        0.084521 
   7  C   -0.105345        0.035983 
   8  C   -0.052515        0.051450 
   9  C   -0.118205        0.211199 
  10  H    0.152388        0.001221 
  11  H    0.130892        0.001328 
  12  H    0.128314       -0.000203 
  13  H    0.126397       -0.000294 
  14  H    0.131034        0.001323 
  15  C   -0.341783        0.068716 
  16  C   -0.186503        0.084518 
  17  C   -0.052514        0.051450 
  18  C   -0.105357        0.035984 
  19  C   -0.118216        0.211199 
  20  H    0.152387        0.001222 
  21  H    0.128329       -0.000204 
  22  H    0.130921        0.001327 
  23  H    0.126417       -0.000293 
  24  H    0.131043        0.001322 
 ---------------------------------------------------
   Sum:    0.000000        2.000000 
 ---------------------------------------------------
 
  
 NATURAL OCCUPATION NUMBERS (higher than 1.0E-05)
            1           2           3           4           5           6
    1   2.0000000   2.0000000   2.0000000   2.0000000   2.0000000   2.0000000
            7           8           9          10          11          12
    1   2.0000000   2.0000000   2.0000000   2.0000000   2.0000000   2.0000000
           13          14          15          16          17          18
    1   2.0000000   2.0000000   2.0000000   2.0000000   2.0000000   2.0000000
           19          20          21          22          23          24
    1   2.0000000   2.0000000   2.0000000   2.0000000   2.0000000   1.9999999
           25          26          27          28          29          30
    1   1.9999996   1.9999996   1.9999995   1.9999987   1.9999982   1.9999979
           31          32          33          34          35          36
    1   1.9999973   1.9999967   1.9999920   1.9999807   1.9999651   1.9999506
           37          38          39          40          41          42
    1   1.9997831   1.9997020   1.9995256   1.9993362   1.9991113   1.9986790
           43          44          45          46          47          48
    1   1.9922164   1.9788871   1.9667125   1.9515814   1.7141349   1.2666328
           49          50          51          52          53          54
    1   0.8442635   0.2449971   0.0357383   0.0065686   0.0007316   0.0007226
           55          56          57          58          59          60
    1   0.0003335   0.0001215   0.0001039   0.0000659   0.0000582   0.0000303
           61          62          63          64
    1   0.0000250   0.0000183   0.0000116   0.0000106
  
*** Unpaired Electrons
 Yamaguchi Nd:         3.14
 Head-Gordon Nu:       2.27
 Head-Gordon Nu_nl:    2.26
  
**************************************************
 RAS-CI total energy for state   5:   -572.920932981401
  Excitation energy (eV) =  4.848278365966
  State symmetry: A     (C2       )
  <S^2>      :  2.0000
  Dipole Moment:    0.0000 X    -0.0000 Y     1.0423 Z
  Trans. Moment:    0.0000 X     0.0000 Y     0.0216 Z
  Strength   :  0.000056
  Natural transition orbitals ( 1 -> 5 ):
   e-/hole pair  1 alpha:  ampl =  0.157112 (  2.5%)   [7 : 8]
   e-/hole pair  2 alpha:  ampl =  0.022024 (  0.0%)   [6 : 9]
   e-/hole pair  1 beta :  ampl =  0.216063 (  4.7%)   [7 : 8]
   e-/hole pair  2 beta :  ampl =  0.049761 (  0.2%)   [6 : 9]
   Sum of square amplitudes: 0.08

 NATURAL OCCUPATION NUMBERS (higher than 1.0E-05)
            1           2           3           4           5           6
    1   2.0000000   2.0000000   2.0000000   2.0000000   2.0000000   2.0000000
            7           8           9          10          11          12
    1   2.0000000   2.0000000   2.0000000   2.0000000   2.0000000   2.0000000
           13          14          15          16          17          18
    1   2.0000000   2.0000000   2.0000000   2.0000000   2.0000000   2.0000000
           19          20          21          22          23          24
    1   2.0000000   2.0000000   2.0000000   2.0000000   2.0000000   1.9999999
           25          26          27          28          29          30
    1   1.9999999   1.9999997   1.9999995   1.9999992   1.9999989   1.9999989
           31          32          33          34          35          36
    1   1.9999975   1.9999975   1.9999951   1.9999914   1.9999851   1.9999714
           37          38          39          40          41          42
    1   1.9999332   1.9999321   1.9998051   1.9997506   1.9997417   1.9993333
           43          44          45          46          47          48
    1   1.9979235   1.9972039   1.9598892   1.9539992   1.8545603   1.0778345
           49          50          51          52          53          54
    1   0.9230413   0.2076018   0.0262804   0.0012167   0.0010886   0.0003834
           55          56          57          58          59          60
    1   0.0002274   0.0001229   0.0000634   0.0000381   0.0000315   0.0000182
           61
    1   0.0000168

 Head-Gordon Nu:    2.32
 Head-Gordon Nu_nl: 2.20

  Amplitudes : 
  
 | HOLE  | ALPHA   | BETA    | PART  |    AMPLITUDE 
--------------------------------------------------
 |       | 1111101 | 1110100 |       |     7.3967155152814E-01
 |       | 1111101 | 1110010 |       |     1.1283491538944E-01
 |       | 1111101 | 1010110 |       |     2.2838863255366E-01
 |       | 1011111 | 1110100 |       |    -2.9136992223414E-01
 |  30   | 1111111 | 1110100 |       |    -1.5607613626372E-01
 |  33   | 1111111 | 1110100 |       |     2.3111936615033E-01
 |  39   | 1111111 | 1110100 |       |    -1.4164238968430E-01
 |  41   | 1111111 | 1110100 |       |     1.2265931147611E-01
 |  41   | 1111110 | 1111100 |       |     1.3931138244506E-01
 |  41   | 1111110 | 1111010 |       |     1.1284509234322E-01
 |  30   | 1111101 | 1110110 |       |     1.2320637093227E-01
 |  33   | 1111101 | 1110110 |       |    -1.8096461992163E-01
 |  39   | 1111101 | 1110110 |       |     1.1406576426946E-01
 |       | 1111100 | 1111000 |  55   |    -1.5225134279510E-01
--------------------------------------------------
*** Contributions RASCI wfn    Active:  72.28
                                 Hole:  24.29
                                 Part:   3.43

      Mulliken population analysis 
 ---------------------------------------------------
   Atom    Charge (a.u.)   Spin (a.u.)  
 ---------------------------------------------------
   1  C    0.415872        0.108940 
   2  O   -0.393707       -0.038335 
   3  C    0.186572        0.328497 
   4  C    0.186459        0.328497 
   5  C   -0.379879        0.107023 
   6  C   -0.192431        0.092291 
   7  C   -0.130985        0.068210 
   8  C   -0.044206        0.063945 
   9  C   -0.127039        0.300868 
  10  H    0.151792        0.001505 
  11  H    0.138935        0.000071 
  12  H    0.129431        0.000022 
  13  H    0.126208        0.000634 
  14  H    0.130611        0.001632 
  15  C   -0.379967        0.107023 
  16  C   -0.192463        0.092291 
  17  C   -0.044203        0.063946 
  18  C   -0.130995        0.068210 
  19  C   -0.127050        0.300868 
  20  H    0.151790        0.001504 
  21  H    0.129447        0.000022 
  22  H    0.138962        0.000071 
  23  H    0.126226        0.000634 
  24  H    0.130620        0.001632 
 ---------------------------------------------------
   Sum:    0.000000        2.000000 
 ---------------------------------------------------
 
  
 NATURAL OCCUPATION NUMBERS (higher than 1.0E-05)
            1           2           3           4           5           6
    1   2.0000000   2.0000000   2.0000000   2.0000000   2.0000000   2.0000000
            7           8           9          10          11          12
    1   2.0000000   2.0000000   2.0000000   2.0000000   2.0000000   2.0000000
           13          14          15          16          17          18
    1   2.0000000   2.0000000   2.0000000   2.0000000   2.0000000   2.0000000
           19          20          21          22          23          24
    1   2.0000000   2.0000000   2.0000000   2.0000000   2.0000000   1.9999999
           25          26          27          28          29          30
    1   1.9999999   1.9999997   1.9999995   1.9999992   1.9999989   1.9999989
           31          32          33          34          35          36
    1   1.9999975   1.9999975   1.9999951   1.9999914   1.9999851   1.9999714
           37          38          39          40          41          42
    1   1.9999332   1.9999321   1.9998051   1.9997506   1.9997417   1.9993333
           43          44          45          46          47          48
    1   1.9979235   1.9972039   1.9598892   1.9539992   1.8545603   1.0778345
           49          50          51          52          53          54
    1   0.9230413   0.2076018   0.0262804   0.0012167   0.0010886   0.0003834
           55          56          57          58          59          60
    1   0.0002274   0.0001229   0.0000634   0.0000381   0.0000315   0.0000182
           61
    1   0.0000168
  
*** Unpaired Electrons
 Yamaguchi Nd:         2.87
 Head-Gordon Nu:       2.32
 Head-Gordon Nu_nl:    2.20
  
**************************************************
 RAS-CI total energy for state   6:   -572.911880132798
  Excitation energy (eV) =  5.094618909884
  State symmetry: B     (C2       )
  <S^2>      :  2.0000
  Dipole Moment:    0.0000 X     0.0000 Y     0.4503 Z
  Trans. Moment:    1.8370 X     0.0747 Y    -0.0000 Z
  Strength   :  0.421908
  Natural transition orbitals ( 1 -> 6 ):
   e-/hole pair  1 alpha:  ampl =  0.418389 ( 17.5%)   [7 : 8]
   e-/hole pair  2 alpha:  ampl =  0.041252 (  0.2%)   [6 : 9]
   e-/hole pair  1 beta :  ampl =  0.625318 ( 39.1%)   [7 : 8]
   e-/hole pair  2 beta :  ampl =  0.436175 ( 19.0%)   [6 : 9]
   Sum of square amplitudes: 0.79

 NATURAL OCCUPATION NUMBERS (higher than 1.0E-05)
            1           2           3           4           5           6
    1   2.0000000   2.0000000   2.0000000   2.0000000   2.0000000   2.0000000
            7           8           9          10          11          12
    1   2.0000000   2.0000000   2.0000000   2.0000000   2.0000000   2.0000000
           13          14          15          16          17          18
    1   2.0000000   2.0000000   2.0000000   2.0000000   2.0000000   2.0000000
           19          20          21          22          23          24
    1   2.0000000   2.0000000   2.0000000   2.0000000   2.0000000   1.9999997
           25          26          27          28          29          30
    1   1.9999994   1.9999992   1.9999991   1.9999986   1.9999974   1.9999973
           31          32          33          34          35          36
    1   1.9999958   1.9999947   1.9999866   1.9999721   1.9998843   1.9998830
           37          38          39          40          41          42
    1   1.9997547   1.9995216   1.9993399   1.9986449   1.9976524   1.9954808
           43          44          45          46          47          48
    1   1.9944070   1.9735662   1.8702023   1.8072291   1.5276270   1.3120996
           49          50          51          52          53          54
    1   1.1101658   0.3376724   0.0466905   0.0251795   0.0033161   0.0005629
           55          56          57          58          59          60
    1   0.0003311   0.0002614   0.0001999   0.0001207   0.0000878   0.0000550
           61          62          63          64          65
    1   0.0000386   0.0000276   0.0000169   0.0000158   0.0000113

 Head-Gordon Nu:    2.83
 Head-Gordon Nu_nl: 2.82

  Amplitudes : 
  
 | HOLE  | ALPHA   | BETA    | PART  |    AMPLITUDE 
--------------------------------------------------
 |       | 1111110 | 1110010 |       |     5.7572110154126E-01
 |       | 1111110 | 1101100 |       |     1.3522379640980E-01
 |       | 1111110 | 0111100 |       |    -2.5019586506160E-01
 |       | 1111101 | 1111000 |       |    -3.5720138491364E-01
 |       | 1111101 | 1011100 |       |     1.3237530871772E-01
 |  26   | 1111110 | 1111100 |       |     1.2450554230960E-01
 |  28   | 1111110 | 1111100 |       |     1.7784747829327E-01
 |  32   | 1111110 | 1111100 |       |     1.9355286429042E-01
 |  41   | 1111110 | 1111001 |       |     1.7247162891878E-01
 |  33   | 1111101 | 1111100 |       |    -1.0672051804919E-01
 |  41   | 1111101 | 1111100 |       |    -2.3936917910972E-01
 |       | 1111100 | 1111000 |  51   |     1.9261059621784E-01
 |       | 1111100 | 1110010 |  55   |    -1.9306861861107E-01
 |       | 1111110 | 1110000 |  55   |    -2.2533740772268E-01
--------------------------------------------------
*** Contributions RASCI wfn    Active:  57.35
                                 Hole:  26.80
                                 Part:  15.85

      Mulliken population analysis 
 ---------------------------------------------------
   Atom    Charge (a.u.)   Spin (a.u.)  
 ---------------------------------------------------
   1  C    0.386505        0.202215 
   2  O   -0.294541        0.858075 
   3  C    0.200762        0.138611 
   4  C    0.200652        0.138612 
   5  C   -0.361211        0.071142 
   6  C   -0.210633        0.060467 
   7  C   -0.129554        0.024950 
   8  C   -0.069685        0.038078 
   9  C   -0.154926        0.133154 
  10  H    0.153444        0.000590 
  11  H    0.142787        0.001407 
  12  H    0.128143        0.000372 
  13  H    0.126533        0.000273 
  14  H    0.128444        0.000809 
  15  C   -0.361293        0.071142 
  16  C   -0.210654        0.060466 
  17  C   -0.069683        0.038078 
  18  C   -0.129566        0.024950 
  19  C   -0.154934        0.133154 
  20  H    0.153438        0.000591 
  21  H    0.128160        0.000372 
  22  H    0.142812        0.001407 
  23  H    0.126548        0.000274 
  24  H    0.128451        0.000809 
 ---------------------------------------------------
   Sum:    0.000000        2.000000 
 ---------------------------------------------------
 
  
 NATURAL OCCUPATION NUMBERS (higher than 1.0E-05)
            1           2           3           4           5           6
    1   2.0000000   2.0000000   2.0000000   2.0000000   2.0000000   2.0000000
            7           8           9          10          11          12
    1   2.0000000   2.0000000   2.0000000   2.0000000   2.0000000   2.0000000
           13          14          15          16          17          18
    1   2.0000000   2.0000000   2.0000000   2.0000000   2.0000000   2.0000000
           19          20          21          22          23          24
    1   2.0000000   2.0000000   2.0000000   2.0000000   2.0000000   1.9999997
           25          26          27          28          29          30
    1   1.9999994   1.9999992   1.9999991   1.9999986   1.9999974   1.9999973
           31          32          33          34          35          36
    1   1.9999958   1.9999947   1.9999866   1.9999721   1.9998843   1.9998830
           37          38          39          40          41          42
    1   1.9997547   1.9995216   1.9993399   1.9986449   1.9976524   1.9954808
           43          44          45          46          47          48
    1   1.9944070   1.9735662   1.8702023   1.8072291   1.5276270   1.3120996
           49          50          51          52          53          54
    1   1.1101658   0.3376724   0.0466905   0.0251795   0.0033161   0.0005629
           55          56          57          58          59          60
    1   0.0003311   0.0002614   0.0001999   0.0001207   0.0000878   0.0000550
           61          62          63          64          65
    1   0.0000386   0.0000276   0.0000169   0.0000158   0.0000113
  
*** Unpaired Electrons
 Yamaguchi Nd:         4.00
 Head-Gordon Nu:       2.83
 Head-Gordon Nu_nl:    2.82
  
**************************************************
 RAS-CI total energy for state   7:   -572.909556530947
  Excitation energy (eV) =  5.157847333212
  State symmetry: B     (C2       )
  <S^2>      :  2.0000
  Dipole Moment:    0.0000 X     0.0000 Y     0.5754 Z
  Trans. Moment:   -1.2307 X    -0.0933 Y     0.0000 Z
  Strength   :  0.192484
  Natural transition orbitals ( 1 -> 7 ):
   e-/hole pair  1 alpha:  ampl =  0.330877 ( 10.9%)   [7 : 8]
   e-/hole pair  2 alpha:  ampl =  0.039141 (  0.2%)   [6 : 9]
   e-/hole pair  1 beta :  ampl =  0.796093 ( 63.4%)   [7 : 8]
   e-/hole pair  2 beta :  ampl =  0.378103 ( 14.3%)   [6 : 9]
   Sum of square amplitudes: 0.90

 NATURAL OCCUPATION NUMBERS (higher than 1.0E-05)
            1           2           3           4           5           6
    1   2.0000000   2.0000000   2.0000000   2.0000000   2.0000000   2.0000000
            7           8           9          10          11          12
    1   2.0000000   2.0000000   2.0000000   2.0000000   2.0000000   2.0000000
           13          14          15          16          17          18
    1   2.0000000   2.0000000   2.0000000   2.0000000   2.0000000   2.0000000
           19          20          21          22          23          24
    1   2.0000000   2.0000000   2.0000000   2.0000000   2.0000000   1.9999997
           25          26          27          28          29          30
    1   1.9999996   1.9999995   1.9999991   1.9999983   1.9999978   1.9999967
           31          32          33          34          35          36
    1   1.9999955   1.9999953   1.9999848   1.9999705   1.9999124   1.9998294
           37          38          39          40          41          42
    1   1.9996969   1.9993700   1.9992465   1.9990149   1.9978386   1.9962836
           43          44          45          46          47          48
    1   1.9962323   1.9895027   1.9471080   1.8104024   1.6993051   1.3577391
           49          50          51          52          53          54
    1   0.9842904   0.1680717   0.0319598   0.0205570   0.0024990   0.0003456
           55          56          57          58          59          60
    1   0.0002452   0.0001660   0.0001635   0.0000850   0.0000607   0.0000488
           61          62          63
    1   0.0000266   0.0000218   0.0000116

 Head-Gordon Nu:    2.42
 Head-Gordon Nu_nl: 2.25

  Amplitudes : 
  
 | HOLE  | ALPHA   | BETA    | PART  |    AMPLITUDE 
--------------------------------------------------
 |       | 1111110 | 1110010 |       |    -3.5329248740866E-01
 |       | 1111110 | 1101100 |       |     2.4183732053614E-01
 |       | 1111110 | 0111100 |       |    -4.5158235461016E-01
 |       | 1111101 | 1111000 |       |     2.5684152427395E-01
 |  26   | 1111110 | 1111100 |       |     2.2426078965090E-01
 |  28   | 1111110 | 1111100 |       |     3.2300503168481E-01
 |  31   | 1111110 | 1111100 |       |     1.7870510279200E-01
 |  32   | 1111110 | 1111100 |       |     3.5914990142703E-01
 |  34   | 1111110 | 1111100 |       |    -1.2626911657501E-01
 |  36   | 1111110 | 1111100 |       |    -1.6502536534674E-01
 |  41   | 1111101 | 1111100 |       |    -1.4614123552917E-01
 |       | 1111100 | 1111000 |  51   |    -2.0131593470664E-01
 |       | 1111100 | 1110010 |  55   |     1.2858256722616E-01
 |       | 1111110 | 1110000 |  55   |     1.1967751705931E-01
--------------------------------------------------
*** Contributions RASCI wfn    Active:  47.85
                                 Hole:  43.04
                                 Part:   9.11

      Mulliken population analysis 
 ---------------------------------------------------
   Atom    Charge (a.u.)   Spin (a.u.)  
 ---------------------------------------------------
   1  C    0.429442        0.479171 
   2  O   -0.363861        0.841178 
   3  C    0.196411        0.100657 
   4  C    0.196299        0.100658 
   5  C   -0.348829        0.063640 
   6  C   -0.217024        0.052326 
   7  C   -0.119024        0.015389 
   8  C   -0.076787        0.024870 
   9  C   -0.146531        0.079929 
  10  H    0.153707       -0.000190 
  11  H    0.142137        0.001697 
  12  H    0.128650        0.000882 
  13  H    0.125937       -0.000253 
  14  H    0.128653        0.000879 
  15  C   -0.348914        0.063639 
  16  C   -0.217047        0.052325 
  17  C   -0.076784        0.024870 
  18  C   -0.119034        0.015390 
  19  C   -0.146540        0.079928 
  20  H    0.153701       -0.000189 
  21  H    0.128667        0.000882 
  22  H    0.142161        0.001696 
  23  H    0.125952       -0.000252 
  24  H    0.128659        0.000879 
 ---------------------------------------------------
   Sum:    0.000000        2.000000 
 ---------------------------------------------------
 
  
 NATURAL OCCUPATION NUMBERS (higher than 1.0E-05)
            1           2           3           4           5           6
    1   2.0000000   2.0000000   2.0000000   2.0000000   2.0000000   2.0000000
            7           8           9          10          11          12
    1   2.0000000   2.0000000   2.0000000   2.0000000   2.0000000   2.0000000
           13          14          15          16          17          18
    1   2.0000000   2.0000000   2.0000000   2.0000000   2.0000000   2.0000000
           19          20          21          22          23          24
    1   2.0000000   2.0000000   2.0000000   2.0000000   2.0000000   1.9999997
           25          26          27          28          29          30
    1   1.9999996   1.9999995   1.9999991   1.9999983   1.9999978   1.9999967
           31          32          33          34          35          36
    1   1.9999955   1.9999953   1.9999848   1.9999705   1.9999124   1.9998294
           37          38          39          40          41          42
    1   1.9996969   1.9993700   1.9992465   1.9990149   1.9978386   1.9962836
           43          44          45          46          47          48
    1   1.9962323   1.9895027   1.9471080   1.8104024   1.6993051   1.3577391
           49          50          51          52          53          54
    1   0.9842904   0.1680717   0.0319598   0.0205570   0.0024990   0.0003456
           55          56          57          58          59          60
    1   0.0002452   0.0001660   0.0001635   0.0000850   0.0000607   0.0000488
           61          62          63
    1   0.0000266   0.0000218   0.0000116
  
*** Unpaired Electrons
 Yamaguchi Nd:         3.29
 Head-Gordon Nu:       2.42
 Head-Gordon Nu_nl:    2.25
  
**************************************************
 RAS-CI total energy for state   8:   -572.901221989644
  Excitation energy (eV) =  5.384641740999
  State symmetry: B     (C2       )
  <S^2>      :  2.0000
  Dipole Moment:    0.0000 X     0.0000 Y    -0.5056 Z
  Trans. Moment:    1.2411 X    -0.0226 Y     0.0000 Z
  Strength   :  0.203261
  Natural transition orbitals ( 1 -> 8 ):
   e-/hole pair  1 alpha:  ampl =  0.903609 ( 81.7%)   [7 : 8]
   e-/hole pair  2 alpha:  ampl =  0.112953 (  1.3%)   [6 : 9]
   e-/hole pair  1 beta :  ampl =  0.262553 (  6.9%)   [7 : 8]
   e-/hole pair  2 beta :  ampl =  0.121779 (  1.5%)   [6 : 9]
   Sum of square amplitudes: 0.93

 NATURAL OCCUPATION NUMBERS (higher than 1.0E-05)
            1           2           3           4           5           6
    1   2.0000000   2.0000000   2.0000000   2.0000000   2.0000000   2.0000000
            7           8           9          10          11          12
    1   2.0000000   2.0000000   2.0000000   2.0000000   2.0000000   2.0000000
           13          14          15          16          17          18
    1   2.0000000   2.0000000   2.0000000   2.0000000   2.0000000   2.0000000
           19          20          21          22          23          24
    1   2.0000000   2.0000000   2.0000000   2.0000000   2.0000000   2.0000000
           25          26          27          28          29          30
    1   1.9999999   1.9999998   1.9999998   1.9999998   1.9999996   1.9999995
           31          32          33          34          35          36
    1   1.9999992   1.9999986   1.9999981   1.9999911   1.9999870   1.9999525
           37          38          39          40          41          42
    1   1.9998623   1.9998128   1.9997098   1.9996683   1.9994808   1.9975712
           43          44          45          46          47          48
    1   1.9955073   1.9927516   1.9871176   1.9769319   1.8820810   1.0126666
           49          50          51          52          53          54
    1   0.8442349   0.2328465   0.0365768   0.0363851   0.0059474   0.0006424
           55          56          57          58          59          60
    1   0.0000881   0.0000543   0.0000421   0.0000289   0.0000207   0.0000128

 Head-Gordon Nu:    2.31
 Head-Gordon Nu_nl: 2.18

  Amplitudes : 
  
 | HOLE  | ALPHA   | BETA    | PART  |    AMPLITUDE 
--------------------------------------------------
 |       | 1111110 | 1110010 |       |     2.0068443778524E-01
 |       | 1111101 | 1111000 |       |    -1.3795927992700E-01
 |  42   | 1111110 | 1111010 |       |     1.3399331149486E-01
 |       | 1111100 | 1111000 |  51   |    -8.8560032144476E-01
 |       | 1110110 | 1111000 |  52   |     1.1054832174703E-01
 |       | 1111100 | 1110010 |  52   |    -1.5918827813012E-01
--------------------------------------------------
*** Contributions RASCI wfn    Active:   6.53
                                 Hole:   5.14
                                 Part:  88.33

      Mulliken population analysis 
 ---------------------------------------------------
   Atom    Charge (a.u.)   Spin (a.u.)  
 ---------------------------------------------------
   1  C    0.581813        0.172773 
   2  O   -0.115308        0.934281 
   3  C    0.211279       -0.009397 
   4  C    0.211148       -0.009382 
   5  C   -0.343874        0.067744 
   6  C   -0.322859        0.155253 
   7  C   -0.181121        0.081393 
   8  C   -0.185590        0.109389 
   9  C   -0.083958        0.034615 
  10  H    0.154012        0.000504 
  11  H    0.138408        0.005109 
  12  H    0.126691        0.000701 
  13  H    0.125711        0.000925 
  14  H    0.128154        0.000227 
  15  C   -0.343968        0.067752 
  16  C   -0.322889        0.155259 
  17  C   -0.185581        0.109384 
  18  C   -0.181129        0.081391 
  19  C   -0.083967        0.034615 
  20  H    0.154006        0.000504 
  21  H    0.126708        0.000701 
  22  H    0.138431        0.005110 
  23  H    0.125725        0.000925 
  24  H    0.128160        0.000227 
 ---------------------------------------------------
   Sum:    0.000000        2.000000 
 ---------------------------------------------------
 
  
 NATURAL OCCUPATION NUMBERS (higher than 1.0E-05)
            1           2           3           4           5           6
    1   2.0000000   2.0000000   2.0000000   2.0000000   2.0000000   2.0000000
            7           8           9          10          11          12
    1   2.0000000   2.0000000   2.0000000   2.0000000   2.0000000   2.0000000
           13          14          15          16          17          18
    1   2.0000000   2.0000000   2.0000000   2.0000000   2.0000000   2.0000000
           19          20          21          22          23          24
    1   2.0000000   2.0000000   2.0000000   2.0000000   2.0000000   2.0000000
           25          26          27          28          29          30
    1   1.9999999   1.9999998   1.9999998   1.9999998   1.9999996   1.9999995
           31          32          33          34          35          36
    1   1.9999992   1.9999986   1.9999981   1.9999911   1.9999870   1.9999525
           37          38          39          40          41          42
    1   1.9998623   1.9998128   1.9997098   1.9996683   1.9994808   1.9975712
           43          44          45          46          47          48
    1   1.9955073   1.9927516   1.9871176   1.9769319   1.8820810   1.0126666
           49          50          51          52          53          54
    1   0.8442349   0.2328465   0.0365768   0.0363851   0.0059474   0.0006424
           55          56          57          58          59          60
    1   0.0000881   0.0000543   0.0000421   0.0000289   0.0000207   0.0000128
  
*** Unpaired Electrons
 Yamaguchi Nd:         2.87
 Head-Gordon Nu:       2.31
 Head-Gordon Nu_nl:    2.18
  
**************************************************
 RAS-CI total energy for state   9:   -572.897216051996
  Excitation energy (eV) =  5.493648850524
  State symmetry: A     (C2       )
  <S^2>      :  2.0000
  Dipole Moment:   -0.0000 X    -0.0000 Y     0.0123 Z
  Trans. Moment:   -0.0000 X     0.0000 Y     0.1513 Z
  Strength   :  0.003080
  Natural transition orbitals ( 1 -> 9 ):
   e-/hole pair  1 alpha:  ampl =  0.643924 ( 41.5%)   [7 : 8]
   e-/hole pair  2 alpha:  ampl =  0.204146 (  4.2%)   [6 : 9]
   e-/hole pair  1 beta :  ampl =  0.539833 ( 29.1%)   [7 : 8]
   e-/hole pair  2 beta :  ampl =  0.226935 (  5.1%)   [6 : 9]
   Sum of square amplitudes: 0.80

 NATURAL OCCUPATION NUMBERS (higher than 1.0E-05)
            1           2           3           4           5           6
    1   2.0000000   2.0000000   2.0000000   2.0000000   2.0000000   2.0000000
            7           8           9          10          11          12
    1   2.0000000   2.0000000   2.0000000   2.0000000   2.0000000   2.0000000
           13          14          15          16          17          18
    1   2.0000000   2.0000000   2.0000000   2.0000000   2.0000000   2.0000000
           19          20          21          22          23          24
    1   2.0000000   2.0000000   2.0000000   2.0000000   2.0000000   2.0000000
           25          26          27          28          29          30
    1   1.9999999   1.9999998   1.9999996   1.9999995   1.9999993   1.9999992
           31          32          33          34          35          36
    1   1.9999986   1.9999980   1.9999928   1.9999925   1.9999631   1.9999577
           37          38          39          40          41          42
    1   1.9998840   1.9997780   1.9997323   1.9995831   1.9992503   1.9989281
           43          44          45          46          47          48
    1   1.9980677   1.9975994   1.9806727   1.7153876   1.7044816   1.0492483
           49          50          51          52          53          54
    1   0.8424007   0.4233435   0.2750559   0.0142775   0.0009380   0.0006596
           55          56          57          58          59          60
    1   0.0005048   0.0001021   0.0000638   0.0000528   0.0000316   0.0000137
           61
    1   0.0000124

 Head-Gordon Nu:    3.11
 Head-Gordon Nu_nl: 3.11

  Amplitudes : 
  
 | HOLE  | ALPHA   | BETA    | PART  |    AMPLITUDE 
--------------------------------------------------
 |       | 1111110 | 1110001 |       |     2.1399043393938E-01
 |       | 1111101 | 1110100 |       |    -1.4377176256070E-01
 |       | 1111101 | 1110010 |       |     3.2545801387788E-01
 |       | 1110111 | 1111000 |       |    -1.8013975432382E-01
 |  39   | 1111110 | 1111010 |       |    -1.1715496179291E-01
 |  41   | 1111110 | 1111010 |       |     5.1462085290258E-01
 |       | 1111100 | 1111000 |  52   |     4.2404426361061E-01
 |       | 1111100 | 1111000 |  55   |    -4.7425215133351E-01
 |       | 1111100 | 1110010 |  51   |     1.5036361810452E-01
--------------------------------------------------
*** Contributions RASCI wfn    Active:  22.08
                                 Hole:  31.35
                                 Part:  46.57

      Mulliken population analysis 
 ---------------------------------------------------
   Atom    Charge (a.u.)   Spin (a.u.)  
 ---------------------------------------------------
   1  C    0.332023        0.057652 
   2  O   -0.187693        0.906768 
   3  C    0.204134        0.167257 
   4  C    0.204022        0.167258 
   5  C   -0.329722        0.026081 
   6  C   -0.244910        0.087325 
   7  C   -0.111598        0.015839 
   8  C   -0.134008        0.104490 
   9  C   -0.132635        0.111920 
  10  H    0.152513        0.001790 
  11  H    0.143031        0.001066 
  12  H    0.126826        0.001010 
  13  H    0.126546        0.000070 
  14  H    0.127753        0.000936 
  15  C   -0.329808        0.026081 
  16  C   -0.244936        0.087327 
  17  C   -0.134008        0.104494 
  18  C   -0.111609        0.015840 
  19  C   -0.132644        0.111920 
  20  H    0.152507        0.001790 
  21  H    0.126843        0.001010 
  22  H    0.143055        0.001067 
  23  H    0.126560        0.000071 
  24  H    0.127759        0.000936 
 ---------------------------------------------------
   Sum:    0.000000        2.000000 
 ---------------------------------------------------
 
  
 NATURAL OCCUPATION NUMBERS (higher than 1.0E-05)
            1           2           3           4           5           6
    1   2.0000000   2.0000000   2.0000000   2.0000000   2.0000000   2.0000000
            7           8           9          10          11          12
    1   2.0000000   2.0000000   2.0000000   2.0000000   2.0000000   2.0000000
           13          14          15          16          17          18
    1   2.0000000   2.0000000   2.0000000   2.0000000   2.0000000   2.0000000
           19          20          21          22          23          24
    1   2.0000000   2.0000000   2.0000000   2.0000000   2.0000000   2.0000000
           25          26          27          28          29          30
    1   1.9999999   1.9999998   1.9999996   1.9999995   1.9999993   1.9999992
           31          32          33          34          35          36
    1   1.9999986   1.9999980   1.9999928   1.9999925   1.9999631   1.9999577
           37          38          39          40          41          42
    1   1.9998840   1.9997780   1.9997323   1.9995831   1.9992503   1.9989281
           43          44          45          46          47          48
    1   1.9980677   1.9975994   1.9806727   1.7153876   1.7044816   1.0492483
           49          50          51          52          53          54
    1   0.8424007   0.4233435   0.2750559   0.0142775   0.0009380   0.0006596
           55          56          57          58          59          60
    1   0.0005048   0.0001021   0.0000638   0.0000528   0.0000316   0.0000137
           61
    1   0.0000124
  
*** Unpaired Electrons
 Yamaguchi Nd:         4.19
 Head-Gordon Nu:       3.11
 Head-Gordon Nu_nl:    3.11
  
**************************************************
 RAS-CI total energy for state  10:   -572.891256979414
  Excitation energy (eV) =  5.655803465640
  State symmetry: A     (C2       )
  <S^2>      :  2.0000
  Dipole Moment:    0.0000 X     0.0000 Y    -0.3733 Z
  Trans. Moment:    0.0000 X    -0.0000 Y     0.1654 Z
  Strength   :  0.003792
  Natural transition orbitals ( 1 -> 10 ):
   e-/hole pair  1 alpha:  ampl =  0.828339 ( 68.6%)   [7 : 8]
   e-/hole pair  2 alpha:  ampl =  0.176915 (  3.1%)   [6 : 9]
   e-/hole pair  1 beta :  ampl =  0.331296 ( 11.0%)   [7 : 8]
   e-/hole pair  2 beta :  ampl =  0.186931 (  3.5%)   [6 : 9]
   Sum of square amplitudes: 0.87

 NATURAL OCCUPATION NUMBERS (higher than 1.0E-05)
            1           2           3           4           5           6
    1   2.0000000   2.0000000   2.0000000   2.0000000   2.0000000   2.0000000
            7           8           9          10          11          12
    1   2.0000000   2.0000000   2.0000000   2.0000000   2.0000000   2.0000000
           13          14          15          16          17          18
    1   2.0000000   2.0000000   2.0000000   2.0000000   2.0000000   2.0000000
           19          20          21          22          23          24
    1   2.0000000   2.0000000   2.0000000   2.0000000   2.0000000   1.9999999
           25          26          27          28          29          30
[...]
245 A   246 A   242 B   247 A   248 A                                          
 
 Beta MOs, Restricted
 -- Doubly Occupied --           
-20.658 -11.299 -11.261 -11.261 -11.240 -11.240 -11.240 -11.240
  1 A     2 A     1 B     3 A     2 B     4 A     3 B     5 A                  
-11.239 -11.239 -11.239 -11.239 -11.237 -11.237  -1.459  -1.167
  4 B     6 A     7 A     5 B     8 A     6 B     9 A    10 A                  
 -1.156  -1.068  -1.027  -1.025  -1.020  -0.923  -0.848  -0.836
  7 B    11 A     8 B    12 A     9 B    13 A    10 B    14 A                  
 -0.825  -0.784  -0.722  -0.710  -0.662  -0.645  -0.628  -0.608
 11 B    15 A    12 B    16 A    13 B    14 B    17 A    18 A                  
 -0.616  -0.596  -0.600  -0.526  -0.514  -0.512  -0.516  -0.495
 15 B    19 A    16 B    20 A    17 B    21 A    18 B    19 B                  
 -0.387  -0.352  -0.350  -0.674  -0.611  -0.496  -0.348
 20 B    22 A    21 B    23 A    22 B    24 A    25 A                          
 -- Singly Occupied (Vacant) --  
 -0.644  -0.271
 23 B    24 B                                                                  
 -- Virtual --                   
  0.095   0.112   0.122   0.154   0.159   0.162   0.173   0.182
 26 A    27 A    25 B    28 A    26 B    27 B    29 A    28 B                  
  0.185   0.198   0.206   0.208   0.213   0.219   0.247   0.263
 30 A    29 B    31 A    30 B    32 A    31 B    33 A    32 B                  
  0.285   0.290   0.297   0.316   0.319   0.329   0.332   0.339
 34 A    33 B    35 A    36 A    34 B    37 A    35 B    36 B                  
  0.340   0.344   0.346   0.362   0.363   0.371   0.373   0.391
 38 A    37 B    39 A    38 B    40 A    39 B    41 A    40 B                  
  0.399   0.402   0.413   0.423   0.437   0.440   0.454   0.457
 42 A    43 A    44 A    41 B    42 B    45 A    46 A    43 B                  
  0.462   0.466   0.473   0.479   0.489   0.500   0.506   0.511
 47 A    44 B    48 A    45 B    46 B    49 A    50 A    47 B                  
  0.527   0.534   0.538   0.543   0.545   0.550   0.563   0.567
 48 B    51 A    49 B    52 A    50 B    53 A    51 B    54 A                  
  0.569   0.572   0.581   0.590   0.591   0.599   0.612   0.614
 52 B    55 A    56 A    57 A    53 B    54 B    58 A    55 B                  
  0.627   0.629   0.633   0.648   0.661   0.662   0.668   0.678
 56 B    59 A    60 A    57 B    58 B    61 A    59 B    62 A                  
  0.687   0.689   0.708   0.744   0.753   0.757   0.770   0.782
 60 B    63 A    64 A    61 B    62 B    63 B    65 A    66 A                  
  0.803   0.818   0.836   0.842   0.843   0.852   0.857   0.878
 67 A    64 B    65 B    68 A    66 B    67 B    69 A     0 xxx                
  0.879   0.897   0.910   0.910   0.910   0.919   0.924   0.931
  0 xxx  70 A     0 xxx   0 xxx  68 B    71 A    69 B    72 A                  
  0.936   0.956   0.973   0.978   0.977   0.999   1.008   1.016
 70 B    73 A    71 B    74 A    72 B    73 B    75 A    74 B                  
  1.034   1.058   1.060   1.072   1.072   1.078   1.088   1.090
 76 A    77 A    75 B    78 A    76 B    79 A    80 A    77 B                  
  1.107   1.116   1.155   1.183   1.183   1.194   1.199   1.214
 78 B    81 A    79 B    82 A    80 B    83 A    81 B    84 A                  
  1.223   1.236   1.252   1.271   1.298   1.312   1.327   1.342
 82 B    83 B    85 A    86 A    84 B    85 B    87 A    88 A                  
  1.345   1.355   1.403   1.407   1.424   1.424   1.431   1.436
 86 B    89 A    87 B    90 A    88 B    91 A    89 B    92 A                  
  1.451   1.451   1.477   1.483   1.494   1.508   1.509   1.515
 90 B    93 A    94 A    91 B    92 B    93 B    95 A    96 A                  
  1.527   1.538   1.568   1.575   1.588   1.622   1.622   1.640
 94 B    97 A    95 B    98 A    96 B    97 B    99 A   100 A                  
  1.670   1.683   1.698   1.701   1.723   1.730   1.731   1.734
101 A    98 B   102 A    99 B   103 A   100 B   101 B   104 A                  
  1.785   1.785   1.790   1.804   1.809   1.806   1.821   1.834
105 A   102 B   106 A   103 B   104 B   107 A   108 A   105 B                  
  1.836   1.859   1.867   1.894   1.899   1.907   1.928   1.935
109 A   106 B   110 A   107 B   111 A   108 B   112 A   109 B                  
  1.963   1.974   1.988   1.988   1.991   2.000   2.001   2.016
113 A   114 A   110 B   115 A   111 B   112 B   116 A   113 B                  
  2.020   2.045   2.072   2.077   2.122   2.133   2.141   2.156
117 A   118 A   114 B   115 B   119 A   116 B   120 A   121 A                  
  2.155   2.175   2.195   2.199   2.228   2.269   2.290   2.303
117 B   118 B   119 B   122 A   123 A   120 B   124 A   125 A                  
  2.307   2.313   2.337   2.349   2.368   2.384   2.403   2.418
121 B   122 B   126 A   123 B   127 A   124 B   128 A   125 B                  
  2.422   2.436   2.455   2.477   2.478   2.489   2.501   2.511
129 A   130 A   126 B   127 B   131 A   132 A   128 B   133 A                  
  2.516   2.550   2.556   2.578   2.587   2.625   2.644   2.683
129 B   134 A   130 B   131 B   135 A   132 B   136 A   133 B                  
  2.693   2.706   2.742   2.759   2.771   2.784   2.787   2.812
137 A   134 B   138 A   135 B   139 A   140 A   136 B   137 B                  
  2.841   2.869   2.875   2.878   2.902   2.908   2.923   2.926
141 A   138 B   142 A   139 B   143 A   140 B   144 A   141 B                  
  2.943   2.957   2.960   2.961   2.979   2.977   2.992   2.994
142 B   145 A   143 B   146 A   147 A   144 B   145 B   148 A                  
  3.003   3.005   3.011   3.025   3.032   3.045   3.053   3.058
146 B   149 A   150 A   147 B   148 B   151 A   149 B   152 A                  
  3.083   3.084   3.090   3.098   3.108   3.114   3.126   3.130
150 B   153 A   154 A   151 B   155 A   152 B   156 A   153 B                  
  3.139   3.153   3.160   3.165   3.170   3.171   3.192   3.202
157 A   154 B   158 A   155 B   159 A   156 B   160 A   157 B                  
  3.208   3.228   3.232   3.238   3.292   3.292   3.307   3.326
158 B   161 A   162 A   159 B   163 A   160 B   164 A   161 B                  
  3.337   3.348   3.361   3.370   3.385   3.402   3.413   3.415
165 A   162 B   166 A   163 B   167 A   164 B   165 B   168 A                  
  3.432   3.438   3.456   3.460   3.463   3.473   3.483   3.483
169 A   166 B   170 A   167 B   168 B   171 A   172 A   173 A                  
  3.491   3.512   3.517   3.521   3.530   3.541   3.545   3.567
169 B   170 B   171 B   174 A   175 A   176 A   172 B   177 A                  
  3.582   3.598   3.607   3.619   3.623   3.635   3.638   3.654
173 B   178 A   174 B   175 B   179 A   180 A   176 B   181 A                  
  3.669   3.686   3.692   3.694   3.703   3.707   3.716   3.724
177 B   178 B   182 A   179 B   180 B   183 A   181 B   184 A                  
  3.736   3.748   3.760   3.786   3.788   3.797   3.799   3.805
182 B   185 A   183 B   186 A   184 B   187 A   185 B   188 A                  
  3.813   3.817   3.830   3.847   3.859   3.871   3.879   3.886
189 A   186 B   190 A   187 B   191 A   192 A   188 B   189 B                  
  3.900   3.908   3.909   3.947   3.991   3.998   4.020   4.026
193 A   190 B   194 A   191 B   195 A   196 A   197 A   192 B                  
  4.041   4.070   4.075   4.092   4.118   4.149   4.173   4.199
193 B   194 B   198 A   195 B   199 A   200 A   196 B   197 B                  
  4.238   4.259   4.285   4.300   4.309   4.312   4.338   4.347
201 A   198 B   199 B   202 A   200 B   203 A   201 B   204 A                  
  4.376   4.395   4.425   4.457   4.472   4.475   4.506   4.508
202 B   205 A   203 B   206 A   204 B   207 A   205 B   208 A                  
  4.536   4.540   4.557   4.575   4.576   4.581   4.588   4.595
206 B   209 A   207 B   210 A   208 B   211 A   212 A   209 B                  
  4.603   4.629   4.636   4.653   4.671   4.688   4.701   4.740
213 A   214 A   210 B   211 B   212 B   215 A   216 A   213 B                  
  4.784   4.790   4.868   4.895   4.902   4.991   5.008   5.010
214 B   217 A   218 A   219 A   215 B   216 B   220 A   217 B                  
  5.018   5.044   5.058   5.071   5.111   5.136   5.172   5.247
221 A   222 A   218 B   219 B   223 A   220 B   224 A   221 B                  
  5.262   5.276   5.295   5.311   5.395   5.454   5.470   5.532
225 A   226 A   222 B   227 A   223 B   224 B   228 A   225 B                  
  5.562   5.585   5.586   5.618   5.635   5.722   5.764   5.767
226 B   229 A   227 B   230 A   228 B   231 A   229 B   232 A                  
  5.834   5.832   5.862   5.864   6.003   6.056   6.055   6.329
230 B   233 A   231 B   234 A   235 A   232 B   236 A   233 B                  
  6.594   6.800   6.790   6.966   7.243   7.426   7.461  23.100
237 A   234 B   238 A   239 A   235 B   240 A   236 B   241 A                  
 23.323  23.676  23.684  23.700  23.706  23.818  23.847  23.885
237 B   242 A   238 B   243 A   239 B   240 B   244 A   241 B                  
 23.939  24.181  24.248  24.494  45.382
245 A   246 A   242 B   247 A   248 A                                          
 --------------------------------------------------------------
 
          Ground-State Mulliken Net Atomic Charges

     Atom                 Charge (a.u.)
  ----------------------------------------
      1 C                     0.286340
      2 O                    -0.221435
      3 C                     0.180202
      4 C                     0.180087
      5 C                    -0.330761
      6 C                    -0.230215
      7 C                    -0.105505
      8 C                    -0.078832
      9 C                    -0.146322
     10 H                     0.154313
     11 H                     0.143291
     12 H                     0.127303
     13 H                     0.126440
     14 H                     0.127724
     15 C                    -0.330847
     16 C                    -0.230238
     17 C                    -0.078828
     18 C                    -0.105515
     19 C                    -0.146331
     20 H                     0.154307
     21 H                     0.127321
     22 H                     0.143315
     23 H                     0.126454
     24 H                     0.127730
  ----------------------------------------
  Sum of atomic charges =     0.000000

  Do orbital-by-orbital Lowdin population analysis
 
 
 Partial Mulliken analysis unavailable for frozen orbitals
 
 -----------------------------------------------------------------
                    Cartesian Multipole Moments
 -----------------------------------------------------------------
    Charge (ESU x 10^10)
                 0.0000
    Dipole Moment (Debye)
         X      -0.0000      Y      -0.0000      Z      -1.2403
       Tot       1.2403
    Quadrupole Moments (Debye-Ang)
        XX     -70.5256     XY      -2.3255     YY     -86.4439
        XZ      -0.0000     YZ       0.0000     ZZ     -78.6483
    Octopole Moments (Debye-Ang^2)
       XXX      -0.0000    XXY      -0.0000    XYY      -0.0000
       YYY      -0.0000    XXZ      -1.6719    XYZ     -16.8560
       YYZ       3.7668    XZZ      -0.0000    YZZ      -0.0000
       ZZZ      -5.0449
    Hexadecapole Moments (Debye-Ang^3)
      XXXX   -3099.2375   XXXY     -65.8071   XXYY    -666.2261
      XYYY      -4.3100   YYYY    -208.5014   XXXZ      -0.0000
      XXYZ       0.0000   XYYZ       0.0000   YYYZ       0.0000
      XXZZ    -643.5832   XYZZ       8.0174   YYZZ    -151.0574
      XZZZ      -0.0000   YZZZ       0.0000   ZZZZ    -736.3444
 -----------------------------------------------------------------
 Mayer SCF Bond Order, atomic valence on the diagonal:

            1           2           3           4           5           6
    1   1.7548010   0.1596988   0.2294472   0.0697227   0.0137916   0.0524878
    2   0.1596988   1.1031893  -0.0302414  -0.0302249   0.0073068   0.0197549
    3   0.2294472  -0.0302414   3.6754129  -0.0719045   0.0016949   0.0071915
    4   0.0697227  -0.0302249  -0.0719045   3.6753811   1.3579529   1.3824411
    5   0.0137916   0.0073068   0.0016949   1.3579529   4.0193198   0.0521207
    6   0.0524878   0.0197549   0.0071915   1.3824411   0.0521207   3.9785893
    7   0.0140318  -0.0000135  -0.0007815  -0.0274408   0.0634919   1.4663534
    8   0.0245225   0.0011464   0.0025367  -0.0473381   1.4847884   0.0611285
    9   0.0155015   0.0034316   0.0006501   0.0465115   0.0618702   0.0428897
   10   0.0054860   0.0001353  -0.0003741  -0.0111771   0.9760575   0.0057989
   11   0.0021392   0.0081655  -0.0000790  -0.0031438   0.0062048   0.9700954
   12   0.0016267   0.0001080   0.0000556   0.0056779  -0.0123324   0.0006229
   13  -0.0026089   0.0000569   0.0001793   0.0059073   0.0005237  -0.0120907
   14  -0.0002182   0.0000371   0.0000298   0.0006199   0.0051979   0.0053796
   15   0.0344165   0.0073076   1.3579555   0.0016921   0.0231171   0.0081570
   16   0.0338994   0.0197540   1.3825297   0.0071881   0.0081593   0.0030783
   17  -0.0460508   0.0011463  -0.0473535   0.0025333  -0.0025560  -0.0021348
   18  -0.0174236  -0.0000144  -0.0274776  -0.0007799  -0.0013250   0.0004682
   19   0.0100573   0.0034318   0.0465610   0.0006492   0.0027648   0.0021286
   20  -0.0076007   0.0001354  -0.0111804  -0.0003779  -0.0002622   0.0000116
   21   0.0060055   0.0001081   0.0056761   0.0000555   0.0000171   0.0000830
   22  -0.0041923   0.0081668  -0.0031288  -0.0000806   0.0002113   0.0000464
   23   0.0026679   0.0000569   0.0059051   0.0001798  -0.0000195   0.0000284
   24   0.0000242   0.0000371   0.0006200   0.0000295   0.0000965   0.0000643
            7           8           9          10          11          12
    1   0.0140318   0.0245225   0.0155015   0.0054860   0.0021392   0.0016267
    2  -0.0000135   0.0011464   0.0034316   0.0001353   0.0081655   0.0001080
    3  -0.0007815   0.0025367   0.0006501  -0.0003741  -0.0000790   0.0000556
    4  -0.0274408  -0.0473381   0.0465115  -0.0111771  -0.0031438   0.0056779
    5   0.0634919   1.4847884   0.0618702   0.9760575   0.0062048  -0.0123324
    6   1.4663534   0.0611285   0.0428897   0.0057989   0.9700954   0.0006229
    7   3.9288963   0.0200364   1.4344295   0.0006322  -0.0118363   0.0057283
    8   0.0200364   3.9011269   1.4073744  -0.0115888   0.0006098   0.9793325
    9   1.4344295   1.4073744   3.9820819   0.0064905   0.0061304  -0.0100861
   10   0.0006322  -0.0115888   0.0064905   0.9677737   0.0007054  -0.0001496
   11  -0.0118363   0.0006098   0.0061304   0.0007054   0.9755286   0.0000044
   12   0.0057283   0.9793325  -0.0100861  -0.0001496   0.0000044   0.9704782
   13   0.9804656   0.0060071  -0.0102640   0.0000098  -0.0001059   0.0006705
   14  -0.0101359  -0.0105667   0.9795408   0.0005344   0.0005745  -0.0001210
   15  -0.0013229  -0.0025514   0.0027612  -0.0002625   0.0002097   0.0000172
   16   0.0004696  -0.0021326   0.0021249   0.0000121   0.0000459   0.0000830
   17   0.0008208   0.0036539  -0.0010769   0.0002093  -0.0000616   0.0000096
   18  -0.0001378   0.0008205   0.0002252   0.0004114   0.0000181  -0.0000392
   19   0.0002234  -0.0010777   0.0015352   0.0004148   0.0000075   0.0000379
   20   0.0004113   0.0002099   0.0004150  -0.0035409   0.0000152   0.0000062
   21  -0.0000393   0.0000096   0.0000379   0.0000062   0.0000052   0.0000014
   22   0.0000175  -0.0000631   0.0000084   0.0000153   0.0000020   0.0000051
   23   0.0000086   0.0000344   0.0000040   0.0000028   0.0000025  -0.0000007
   24   0.0000054  -0.0000723   0.0000375   0.0000104   0.0000027  -0.0000005
           13          14          15          16          17          18
    1  -0.0026089  -0.0002182   0.0344165   0.0338994  -0.0460508  -0.0174236
    2   0.0000569   0.0000371   0.0073076   0.0197540   0.0011463  -0.0000144
    3   0.0001793   0.0000298   1.3579555   1.3825297  -0.0473535  -0.0274776
    4   0.0059073   0.0006199   0.0016921   0.0071881   0.0025333  -0.0007799
    5   0.0005237   0.0051979   0.0231171   0.0081593  -0.0025560  -0.0013250
    6  -0.0120907   0.0053796   0.0081570   0.0030783  -0.0021348   0.0004682
    7   0.9804656  -0.0101359  -0.0013229   0.0004696   0.0008208  -0.0001378
    8   0.0060071  -0.0105667  -0.0025514  -0.0021326   0.0036539   0.0008205
    9  -0.0102640   0.9795408   0.0027612   0.0021249  -0.0010769   0.0002252
   10   0.0000098   0.0005344  -0.0002625   0.0000121   0.0002093   0.0004114
   11  -0.0001059   0.0005745   0.0002097   0.0000459  -0.0000616   0.0000181
   12   0.0006705  -0.0001210   0.0000172   0.0000830   0.0000096  -0.0000392
   13   0.9720044  -0.0001314  -0.0000191   0.0000285   0.0000341   0.0000086
   14  -0.0001314   0.9715226   0.0000965   0.0000642  -0.0000722   0.0000055
   15  -0.0000191   0.0000965   4.0193173   0.0521911   1.4847485   0.0634722
   16   0.0000285   0.0000642   0.0521911   3.9787228   0.0610826   1.4664216
   17   0.0000341  -0.0000722   1.4847485   0.0610826   3.9010700   0.0200588
   18   0.0000086   0.0000055   0.0634722   1.4664216   0.0200588   3.9290117
   19   0.0000041   0.0000375   0.0618461   0.0428757   1.4074387   1.4345127
   20   0.0000028   0.0000104   0.9760648   0.0058000  -0.0115815   0.0006320
   21  -0.0000008  -0.0000005  -0.0123075   0.0006212   0.9792845   0.0057269
   22   0.0000025   0.0000027   0.0061999   0.9700399   0.0006100  -0.0118003
   23   0.0000010  -0.0000001   0.0005229  -0.0120679   0.0060057   0.9804227
   24  -0.0000001   0.0000014   0.0051977   0.0053795  -0.0105552  -0.0101251
           19          20          21          22          23          24
    1   0.0100573  -0.0076007   0.0060055  -0.0041923   0.0026679   0.0000242
    2   0.0034318   0.0001354   0.0001081   0.0081668   0.0000569   0.0000371
    3   0.0465610  -0.0111804   0.0056761  -0.0031288   0.0059051   0.0006200
    4   0.0006492  -0.0003779   0.0000555  -0.0000806   0.0001798   0.0000295
    5   0.0027648  -0.0002622   0.0000171   0.0002113  -0.0000195   0.0000965
    6   0.0021286   0.0000116   0.0000830   0.0000464   0.0000284   0.0000643
    7   0.0002234   0.0004113  -0.0000393   0.0000175   0.0000086   0.0000054
    8  -0.0010777   0.0002099   0.0000096  -0.0000631   0.0000344  -0.0000723
    9   0.0015352   0.0004150   0.0000379   0.0000084   0.0000040   0.0000375
   10   0.0004148  -0.0035409   0.0000062   0.0000153   0.0000028   0.0000104
   11   0.0000075   0.0000152   0.0000052   0.0000020   0.0000025   0.0000027
   12   0.0000379   0.0000062   0.0000014   0.0000051  -0.0000007  -0.0000005
   13   0.0000041   0.0000028  -0.0000008   0.0000025   0.0000010  -0.0000001
   14   0.0000375   0.0000104  -0.0000005   0.0000027  -0.0000001   0.0000014
   15   0.0618461   0.9760648  -0.0123075   0.0061999   0.0005229   0.0051977
   16   0.0428757   0.0058000   0.0006212   0.9700399  -0.0120679   0.0053795
   17   1.4074387  -0.0115815   0.9792845   0.0006100   0.0060057  -0.0105552
   18   1.4345127   0.0006320   0.0057269  -0.0118003   0.9804227  -0.0101251
   19   3.9822690   0.0064894  -0.0100599   0.0061255  -0.0102428   0.9795177
   20   0.0064894   0.9677822  -0.0001476   0.0007056   0.0000097   0.0005346
   21  -0.0100599  -0.0001476   0.9704806   0.0000043   0.0006711  -0.0001190
   22   0.0061255   0.0007056   0.0000043   0.9755283  -0.0001035   0.0005749
   23  -0.0102428   0.0000097   0.0006711  -0.0001035   0.9720058  -0.0001300
   24   0.9795177   0.0005346  -0.0001190   0.0005749  -0.0001300   0.9715255


 Total job time:  11062.57s(wall), 10315.49s(cpu) 
 Mon Nov 27 16:31:16 2023

        *************************************************************
        *                                                           *
        *  Thank you very much for using Q-Chem.  Have a nice day.  *
        *                                                           *
        *************************************************************


