                  Welcome to Q-Chem
     A Quantum Leap Into The Future Of Chemistry


 Q-Chem 6.0 (devel), Q-Chem, Inc., Pleasanton, CA (2022)

 E. Epifanovsky,  A. T. B. Gilbert,  Xintian Feng,  Joonho Lee,  Yuezhi Mao,  
 N. Mardirossian,  P. Pokhilko,  A. White,  M. Wormit,  M. P. Coons,  
 A. L. Dempwolff,  Zhengting Gan,  D. Hait,  P. R. Horn,  L. D. Jacobson,  
 I. Kaliman,  J. Kussmann,  A. W. Lange,  Ka Un Lao,  D. S. Levine,  Jie Liu,  
 S. C. McKenzie,  A. F. Morrison,  K. Nanda,  F. Plasser,  D. R. Rehn,  
 M. L. Vidal,  Zhi-Qiang You,  Ying Zhu,  B. Alam,  B. Albrecht,  
 A. Aldossary,  E. Alguire,  J. H. Andersen,  V. Athavale,  D. Barton,  
 K. Begam,  A. Behn,  N. Bellonzi,  Y. A. Bernard,  E. J. Berquist,  
 H. Burton,  A. Carreras,  K. Carter-Fenk,  Romit Chakraborty,  
 Chandrima Chakravarty,  Junhan Chen,  A. D. Chien,  K. D. Closser,  
 V. Cofer-Shabica,  L. Cunha,  S. Dasgupta,  Jia Deng,  M. de Wergifosse,  
 M. Diedenhofen,  Hainam Do,  S. Ehlert,  Po-Tung Fang,  S. Fatehi,  
 Qingguo Feng,  T. Friedhoff,  B. Ganoe,  J. Gayvert,  Qinghui Ge,  
 G. Gidofalvi,  M. Goldey,  J. Gomes,  C. Gonzalez-Espinoza,  S. Gulania,  
 A. Gunina,  J. A. Gyamfi,  M. W. D. Hanson-Heine,  P. H. P. Harbach,  
 A. W. Hauser,  M. F. Herbst,  M. Hernandez Vera,  M. Hodecker,  
 Z. C. Holden,  S. Houck,  Xunkun Huang,  Kerwin Hui,  B. C. Huynh,  
 K. Ikeda,  M. Ivanov,  Hyunjun Ji,  Zuxin Jin,  Hanjie Jiang,  B. Kaduk,  
 S. Kaehler,  R. Kang,  K. Khistyaev,  Jaehoon Kim,  Yongbin Kim,  
 P. Klunzinger,  Z. Koczor-Benda,  Joong Hoon Koh,  D. Kosenkov,  
 Saikiran Kotaru,  L. Koulias,  T. Kowalczyk,  C. M. Krauter,  K. Kue,  
 A. Kunitsa,  T. Kus,  A. Landau,  K. V. Lawler,  D. Lefrancois,  S. Lehtola,  
 Rain Li,  Shaozhi Li,  Yi-Pei Li,  Jiashu Liang,  M. Liebenthal,  
 Hung-Hsuan Lin,  You-Sheng Lin,  Fenglai Liu,  Kuan-Yu Liu,  
 M. Loipersberger,  A. Luenser,  C. Malbon,  A. Manjanath,  P. Manohar,  
 E. Mansoor,  S. F. Manzer,  Shan-Ping Mao,  A. V. Marenich,  T. Markovich,  
 S. Mason,  F. Matz,  S. A. Maurer,  P. F. McLaughlin,  M. F. S. J. Menger,  
 J.-M. Mewes,  S. A. Mewes,  P. Morgante,  Mohammad Mostafanejad,  
 J. W. Mullinax,  K. J. Oosterbaan,  G. Paran,  V. Parravicini,  
 Alexander C. Paul,  Suranjan K. Paul,  F. Pavosevic,  Zheng Pei,  S. Prager,  
 E. I. Proynov,  E. Ramos,  B. Rana,  A. E. Rask,  A. Rettig,  R. M. Richard,  
 F. Rob,  E. Rossomme,  T. Scheele,  M. Scheurer,  M. Schneider,  
 P. E. Schneider,  N. Sergueev,  S. M. Sharada,  Hengyuan Shen,  
 W. Skomorowski,  D. W. Small,  C. J. Stein,  Yingli Su,  Yu-Chuan Su,  
 E. J. Sundstrom,  Zhen Tao,  J. Thirman,  Hung-Yi Tsai,  T. Tsuchimochi,  
 N. M. Tubman,  C. Utku,  S. P. Veccham,  O. Vydrov,  J. Wenzel,  
 Jonathan Wong,  J. Witte,  A. Yamada,  Chou-Hsun Yang,  Kun Yao,  
 S. Yeganeh,  S. R. Yost,  A. Zech,  F. Zeller,  Igor Ying Zhang,  
 Xing Zhang,  Yu Zhang,  D. Zuev,  A. Aspuru-Guzik,  A. T. Bell,  
 N. A. Besley,  K. B. Bravaya,  B. R. Brooks,  D. Casanova,  Jeng-Da Chai,  
 Hsing-Ta Chen,  S. Coriani,  C. J. Cramer,  A. E. DePrince, III,  
 R. A. DiStasio Jr.,  A. Dreuw,  B. D. Dunietz,  T. R. Furlani,  
 W. A. Goddard III,  S. Grimme,  S. Hammes-Schiffer,  T. Head-Gordon,  
 W. J. Hehre,  Chao-Ping Hsu,  T.-C. Jagau,  Yousung Jung,  A. Klamt,  
 Jing Kong,  D. S. Lambrecht,  Xiangyuan Li,  WanZhen Liang,  N. J. Mayhall,  
 C. W. McCurdy,  J. B. Neaton,  T. Neudecker,  C. Ochsenfeld,  
 J. A. Parkhill,  R. Peverati,  V. A. Rassolov,  Haisheng Ren,  Yihan Shao,  
 L. V. Slipchenko,  R. P. Steele,  J. E. Subotnik,  A. J. W. Thom,  
 A. Tkatchenko,  D. G. Truhlar,  T. Van Voorhis,  Fan Wang,  
 T. A. Wesolowski,  K. B. Whaley,  H. L. Woodcock III,  P. M. Zimmerman,  
 S. Faraji,  P. M. W. Gill,  M. Head-Gordon,  J. M. Herbert,  A. I. Krylov

 Contributors to earlier versions of Q-Chem not listed above: 
 R. D. Adamson,  B. Austin,  R. Baer,  J. Baker,  G. J. O. Beran,  
 K. Brandhorst,  S. T. Brown,  E. F. C. Byrd,  Arup K. Chakraborty,  
 G. K. L. Chan,  Chun-Min Chang,  Yunqing Chen,  C.-L. Cheng,  
 Siu Hung Chien,  D. M. Chipman,  D. L. Crittenden,  H. Dachsel,  
 R. J. Doerksen,  A. D. Dutoi,  R. G. Edgar,  J. Fosso-Tande,  
 L. Fusti-Molnar,  D. Ghosh,  A. Ghysels,  A. Golubeva-Zadorozhnaya,  
 J. Gonthier,  M. S. Gordon,  S. R. Gwaltney,  G. Hawkins,  J. E. Herr,  
 A. Heyden,  S. Hirata,  E. G. Hohenstein,  G. Kedziora,  F. J. Keil,  
 C. Kelley,  Jihan Kim,  R. A. King,  R. Z. Khaliullin,  P. P. Korambath,  
 W. Kurlancheek,  A. Laurent,  A. M. Lee,  M. S. Lee,  S. V. Levchenko,  
 Ching Yeh Lin,  D. Liotard,  E. Livshits,  R. C. Lochan,  I. Lotan,  
 L. A. Martinez-Martinez,  P. E. Maslen,  N. Nair,  D. P. O'Neill,  
 D. Neuhauser,  E. Neuscamman,  C. M. Oana,  R. Olivares-Amaya,  R. Olson,  
 T. M. Perrine,  B. Peters,  P. A. Pieniazek,  A. Prociuk,  Y. M. Rhee,  
 J. Ritchie,  M. A. Rohrdanz,  E. Rosta,  N. J. Russ,  H. F. Schaefer III,  
 M. W. Schmidt,  N. E. Schultz,  S. Sharma,  N. Shenvi,  C. D. Sherrill,  
 A. C. Simmonett,  A. Sodt,  T. Stein,  D. Stuck,  K. S. Thanthiriwatte,  
 V. Vanovschi,  L. Vogt,  Tao Wang,  A. Warshel,  M. A. Watson,  
 C. F. Williams,  Q. Wu,  X. Xu,  Jun Yang,  W. Zhang,  Yan Zhao

   Please cite Q-Chem as follows:
  "Software for the frontiers of quantum chemistry:
   An overview of developments in the Q-Chem 5 package"
   J. Chem. Phys. 155, 084801 (2021)
   https://doi.org/10.1063/5.0055522 (open access)

 Q-Chem 6.0.1 for Intel X86 EM64T Linux

 Parts of Q-Chem use Armadillo 9.900.5 (Nocturnal Misbehaviour).
 http://arma.sourceforge.net/

 Q-Chem begins on Tue Oct 24 10:34:35 2023  

 Host: atlas-077
0

     Scratch files written to ./qchem20045//
 Processing $rem in /scratch/abel/SOFTWARE/qchem/config/preferences:
 Processing $rem in /dipc/acebg/.qchemrc:

 Checking the input file for inconsistencies... 	...done.

--------------------------------------------------------------
User input:
--------------------------------------------------------------
$comment
 RAS-SF CALCULATION
$end

$molecule
 READ benzophenone.molecule
$end

$rem
!**CALCULATION TYPE***     
JOBTYPE            sp    
EXCHANGE           HF
CORRELATION        RASCI    !RASCI=Casanova; RASCI2=Zimmerman
BASIS              def2-TZVP
BASIS2             STO-3G

!***SCF REFERENCE***
INPUT_BOHR          TRUE
!SKIP_SCFMAN        FALSE
UNRESTRICTED       FALSE
!SCF_GUESS          core
!SCF_GUESS_MIX      FALSE
!SCF_GUESS_ALWAYS   FALSE
MAX_SCF_CYCLES     999
!SCF_CONVERGENCE    8
SCF_ALGORITHM      DIIS_GDM !DIIS,DM,DIIS_DM,GDM,DIIS_GDM,GD

!SYMMETRY           TRUE   !use of symmetry for calculating integrals
!SYM_IGNORE         FALSE  !turn off using symmetry
!SYM_TOL            5      !tolerance for determining point group
!USE_ABELIAN_SUBGROUP      !define to use abelian group

!THRESH             14
SCF_FINAL_PRINT     1 !0,1,2,3

!****RAS-SF****
RAS_ROOTS          30       !number of RAS-CI roots to be computed
SET_ITER           100     !number of iterations in RASCI
RAS_ELEC           10       !number of electrons in RAS2
RAS_ELEC_ALPHA     6       !spin-α electrons in RAS2 
RAS_ELEC_BETA      4       !spin-β electrons in RAS2

RAS_ACT            9      !number of orbitals in RAS2 
RAS_ACT_ORB [37, 44, 45, 46, 48, 49, 50, 51, 52]  !user-selected RAS2 orbitals
RAS_OCC            43       !number of orbitals in RAS1
N_FROZEN_CORE      23     !Number of frozen core orbitals
N_FROZEN_VIRTUAL   422      !Number of frozen virtual orbitals

RAS_DO_HOLE        TRUE   !presence of hole excitations in RAS-CI wave function
RAS_DO_PART        TRUE   !presence of particle excitations
!RAS_AMPL_PRINT     10     !threshold (×10 2 ) for the CI amplitudes

!RAS_GUESS_CS       0      !number of closed shell guess conﬁgurations
!RAS_SPIN_MULT      0      !spin multiplicity. Only for Ms = 0 
!RAS_SRDFT          FALSE  !short-range density functional RAS-CI
!RAS_NFRAG          0     !fragments of excitation analysis in RASCI

RAS_PRINT          2      !level of information
RAS_NATORB         TRUE   !computation of the natural orbital occupancies
!RAS_NATORB_STATE  0      !Saves NO of i RAS computed state in .fchk ﬁle
!RAS_FOD            TRUE

!****RAS-SOC****
CALC_SOC           TRUE   !calculate SOC for EOM-CC, RAS-CI, ADC, TDDFT/TDA and TDDFT
!RAS_SOC_2E        TRUE   !two-electron mean-ﬁeld contribution, default=true
RAS_SOC_SYM_DENS   TRUE   !averaging of α and β densities

!****MEMORY****
MEM_TOTAL          68000 !Default 2000 MB
MEM_STATIC         20000  !Default 64 MB

!**Molecular Properties and Analysis **                                                                                          
POP_MULLIKEN       TRUE   !Run Mulliken population analysis
LOWDIN_POPULATION  TRUE   !Run Löwdin population analysis
GUI                2       !Checkpoints generation
STATE_ANALYSIS     TRUE

!**Wave function analysis of RAS-CI states: MOLDEN**
!PLOTS = 0     ! Note: This can be omitted, default is 0
!NTO_PAIRS = 2 ! Note: This can be omitted, default is 2
!GUI 0
!MOLDEN_FORMAT      TRUE
!PRINT_ORBITALS     15

!**Wave function analysis of RAS-CI state: CUBE**
!NTO_PAIRS = 2 ! Note: This can be omitted, default is 2
!PLOTS = 1
!GUI 0

!**SR-DFT**
!RAS_SRDFT           TRUE !Perform short-range density functional RAS-CI
!RAS_SRDFT_EXC       0 !EX functional. 0=HF. 
!RAS_SRDFT_ONLY_COR  TRUE !No use of EXC functional
!RAS_SRDFT_COR       srPBE !short-range correlation functional
!ras_srdft_0         TRUE !true: no iteration (one-shot); false: iteration
!RAS_OMEGA           400 !Coulomb range-separation parameter. def=400
!RAS_SRDFT_DAMP     0.5 !dumping factor. def=0.5
$end

!$plots
!   grid_points 100 100 100
!   grid_range  (-10,10) (-10,10) (-10,10)
!$end

--------------------------------------------------------------
 ----------------------------------------------------------------
             Standard Nuclear Orientation (Bohr)
    I     Atom           X                Y                Z
 ----------------------------------------------------------------
    1      C       0.0000000000    -0.0000000000     1.7616000772
    2      O       0.0000000000    -0.0000000000     4.2626453788
    3      C      -2.4515146503    -0.0331342717     0.5854026033
    4      C       2.4515146503     0.0331342717     0.5854026033
    5      C       2.8430013288     1.0880866231    -1.8463666677
    6      C       4.5970400963    -0.8671930082     1.9264083375
    7      C       6.9748613791    -0.7928839619     0.8403562343
    8      C       5.2262074578     1.1225172668    -2.9109015756
    9      C       7.3157580598     0.1834271136    -1.5850434514
   10      H       1.2649900922     1.9042492020    -2.8578536668
   11      H       4.3392930822    -1.6659511958     3.7896568207
   12      H       5.4817259580     1.9198549006    -4.7799236178
   13      H       8.5807201718    -1.5192143035     1.8831820792
   14      H       9.1788078092     0.2325165625    -2.4295762444
   15      C      -2.8430013288    -1.0880866231    -1.8463666677
   16      C      -4.5970400963     0.8671930082     1.9264083375
   17      C      -5.2262074578    -1.1225172668    -2.9109015756
   18      C      -6.9748613791     0.7928839619     0.8403562343
   19      C      -7.3157580598    -0.1834271136    -1.5850434514
   20      H      -1.2649900922    -1.9042492020    -2.8578536668
   21      H      -5.4817259580    -1.9198549006    -4.7799236178
   22      H      -4.3392930822     1.6659511958     3.7896568207
   23      H      -8.5807201718     1.5192143035     1.8831820792
   24      H      -9.1788078092    -0.2325165625    -2.4295762444
 ----------------------------------------------------------------
 Molecular Point Group                 C2    NOp =  2
 Largest Abelian Subgroup              C2    NOp =  2
 Nuclear Repulsion Energy =         772.43069410 hartrees
 There are       49 alpha and       47 beta electrons
 Requested basis set is def2-TZVP
 There are 194 shells and 494 basis functions

 Q-Chem warning in module libmdc/get_mega.C, line 167:

 Allowed MEM_STATIC has been capped at MEM_STATIC=8191.
 Reduce the value of MEM_STATIC to silence this warning.


 Total QAlloc Memory Limit  68000 MB
 Mega-Array Size      8007 MB
 MEM_STATIC part      8191 MB

 A cutoff of  1.0D-09 yielded  13678 shell pairs
 There are     87354 function pairs (    112510 Cartesian)
 Smallest overlap matrix eigenvalue = 8.18E-06

 Q-Chem warning in module stvman/mkSTV.C, line 313:

 Overlap eigenvalue is smaller than square root of threshold
 Use THRESH >= 12 to get rid of this warning


 Scale SEOQF with 1.000000e-01/1.000000e+00/1.000000e-01

 Standard Electronic Orientation quadrupole field applied
 Nucleus-field energy     =     0.0000000231 hartrees
 Requested basis set is STO-3G
 There are 38 shells and 80 basis functions
 A cutoff of  1.0D-09 yielded    531 shell pairs
 There are      2742 function pairs
 Smallest overlap matrix eigenvalue = 1.73E-01
 Constructing guess Fock matrix from core Hamiltonian
 Applying Wolfsberg-Helmholtz approximation
 A restricted Hartree-Fock SCF calculation will be
 performed using Geometric Direct Minimization
 SCF converges when RMS gradient is below 1.0E-04
 ---------------------------------------
  Cycle       Energy        RMS Gradient
 ---------------------------------------
    1    -563.5189813627      3.78E-01 Descent step
    2    -564.1073352384      2.94E-01 Descent step
    3    -564.5762614188      2.35E-01 Descent step
    4    -564.9424222796      3.10E-01 Descent step
    5    -565.2385720744      4.42E-01 Descent step
    6    -565.5186594576      2.72E-01 Descent step
    7    -565.7068111177      1.77E-01 Descent step
    8    -565.8063347325      7.75E-02 Dog-leg BFGS step
    9    -565.8197166914      7.27E-02 Normal BFGS step
   10    -565.8079560722      8.11E-02 Line search: overstep
   11    -565.8300208096      4.05E-02 Descent step
   12    -565.8348600491      3.54E-02 Normal BFGS step
   13    -565.8355378695      1.28E-02 Normal BFGS step
   14    -565.8358576558      4.09E-03 Normal BFGS step
   15    -565.8359171123      2.92E-03 Normal BFGS step
   16    -565.8359561849      1.86E-03 Normal BFGS step
   17    -565.8359781573      1.30E-03 Normal BFGS step
   18    -565.8359889881      1.08E-03 Normal BFGS step
   19    -565.8359931603      7.13E-04 Normal BFGS step
   20    -565.8359947151      3.36E-04 Normal BFGS step
   21    -565.8359951645      1.96E-04 Normal BFGS step
   22    -565.8359952311      9.64E-05 Convergence criterion met
 ---------------------------------------
 One-Electron    Energy = -2305.4763240232
 Total Coulomb   Energy =  1046.6215714433
 Alpha Exchange  Energy =   -40.3563193634
 Beta  Exchange  Energy =   -39.0556174122
 DFT   Exchange  Energy =     0.0000000000
 DFT Correlation Energy =     0.0000000000
 Nuclear Repu.   Energy =   772.4306941244
 Nuclear Attr.   Energy = -2866.5234544087
 Kinetic         Energy =   561.0471303854
 SCF time:  CPU 2.85 s  wall 4.95 s
 SCF   energy in the small basis set = -565.83599523
 Total energy in the small basis set = -565.83599523
 ----------------------------------------------------
  Cycle       Energy    
 ----------------------------------------------------
    1     -71.5185056489     -7.15E+01
 A restricted Hartree-Fock SCF calculation will be
 performed using Geometric Direct Minimization
 SCF converges when RMS gradient is below 1.0E-05
 ---------------------------------------
  Cycle       Energy        RMS Gradient
 ---------------------------------------
    1    -572.8384162148      4.89E-01 Descent step
    2    -572.8764802812      3.47E-01 Descent step
    3    -573.0028633520      9.82E-02 Descent step
    4    -573.0646717880      1.32E-01 Normal BFGS step
    5    -573.0781860123      1.34E-01 Normal BFGS step
    6    -573.0794718724      1.07E-01 Normal BFGS step
    7    -573.0875361402      3.49E-02 Normal BFGS step
    8    -573.0895883328      2.03E-02 Normal BFGS step
    9    -573.0904120621      1.26E-02 Normal BFGS step
   10    -573.0913895967      1.03E-02 Normal BFGS step
   11    -573.0918054956      7.53E-03 Normal BFGS step
   12    -573.0920914255      3.74E-03 Normal BFGS step
   13    -573.0921412321      1.92E-03 Normal BFGS step
   14    -573.0921486914      9.60E-04 Normal BFGS step
   15    -573.0921498064      3.98E-04 Normal BFGS step
   16    -573.0921492016      3.61E-05 Line search: overstep
   17    -573.0921499934      2.66E-04 Normal BFGS step
   18    -573.0921493321      2.49E-05 Line search: overstep
   19    -573.0921501081      1.94E-04 Normal BFGS step
   20    -573.0921493493      1.95E-05 Line search: overstep
   21    -573.0921501020      6.35E-05 Line search: overstep
   22    -573.0921511756      6.75E-05 Line search: understep
   23    -573.0921501963      1.64E-04 Normal BFGS step
   24    -573.0921495614      6.61E-05 Line search: overstep
   25    -573.0921502007      1.34E-04 Normal BFGS step
   26    -573.0921496268      1.61E-05 Line search: overstep
   27    -573.0921502144      1.17E-04 Normal BFGS step
   28    -573.0921495319      1.78E-05 Line search: overstep
   29    -573.0921502554      1.04E-04 Normal BFGS step
   30    -573.0921502299      5.78E-05 Line search: overstep
   31    -573.0921507408      5.88E-05 Normal BFGS step
   32    -573.0921509999      1.64E-05 Normal BFGS step
   33    -573.0921495139      6.51E-06 Convergence criterion met
 ---------------------------------------
 One-Electron    Energy = -2309.5737999987
 Total Coulomb   Energy =  1043.3490984323
 Alpha Exchange  Energy =   -40.2366623579
 Beta  Exchange  Energy =   -39.0614797141
 DFT   Exchange  Energy =     0.0000000000
 DFT Correlation Energy =     0.0000000000
 Nuclear Repu.   Energy =   772.4306941244
 Nuclear Attr.   Energy = -2882.1129269061
 Kinetic         Energy =   572.5391269075
 SCF time:  CPU 2386.34 s  wall 2411.98 s
 SCF   energy in the final basis set = -573.09214951
 Total energy in the final basis set = -573.09214951
  
     ##========================================##
     ||                                        ||
     ||              R A S M A N 2             ||
     ||________________________________________||
     ||                                        ||
     ||  Author:                               ||
     ||                                        ||
     ||        David Casanova (2010)           ||
     ||                                        ||
     ##========================================##
  
Setting single-point xc-functionals (if necessary)

  ***************************************************
  *  RAS-CI Dimensions:                             *
  *                                                 *
  *  Active Elec.:  10 ( 6, 4)   Active Orb.:   9   *
  *  Doubly Occ. :  43           Doubly Vir.: 442   *
  *  Frozen Occ. :  23           Frozen Vir.: 422   *
  *                                                 *
  *  Total CI configurations:    771624             * 
  *    Active configurations:     10584             * 
  *      Hole configurations:    302400             * 
  *  Particle configurations:    458640             * 
  *                                                 *
  *   Requested states:       30                    *
  *  Spin multiplicity: Any multiplicity            *
  *                                                 *
  ***************************************************
-----------------------------------------
    Memory requirements of RASCI

 Each CI-vector requires      5.89 MiB 
 Max. subspace vectors           3000      

 Reduced Lists                0.00 MiB 
 Excitation Lists             0.01 MiB 
 Excitation Lists Sign        0.01 MiB 
 CI-space (Max)           17906.37 MiB 
 Integrals                  295.86 MiB 
 Memory required (Max)    17906.39 MiB 
 Memory available          7811.55 MiB 

 Q-Chem warning in module rasman2/ras_mem_check.C, line 162:

 Static memory may be insufficient to store the subspace vectors


    Disk requirements of RASCI

 Fock matrix                  3.72 MiB 
 2-electron integrals         3.02 MiB 
 CI-space                 35322.14 MiB 
 Disk required            35328.88 MiB 
-----------------------------------------
  
RAS1 HF-like energy:           -560.2526855521
 Computing integrals
 Computing J and K matrices
 Computing addressing
 Making amplitude guesses
 
Direct CI diagonalization
 ---------------------------------------------------
 Iter    Rts Conv    Rts Left    Ttl Dev     Max Dev
 ---------------------------------------------------
   1         0          30      0.007465    0.000344
   2         0          30      0.006796    0.000380
   3         0          30      0.006157    0.000346
   4         0          30      0.005067    0.000302
   5         0          30      0.004918    0.000268
   6         0          30      0.004787    0.000290
   7         0          30      0.004734    0.000258
   8         0          30      0.004317    0.000262
   9         0          30      0.003794    0.000177
  10         0          30      0.003500    0.000228
  11         0          30      0.003123    0.000185
  12         0          30      0.002647    0.000182
  13         0          30      0.002247    0.000130
  14         1          29      0.001765    0.000120
  15         1          29      0.001489    0.000118
  16         1          29      0.001285    0.000133
  17         1          29      0.001042    0.000104
  18         1          29      0.000835    0.000083
  19         2          28      0.000654    0.000066
  20         2          28      0.000516    0.000054
  21         2          28      0.000410    0.000061
  22         4          26      0.000322    0.000053
  23         6          24      0.000257    0.000044
  24         9          21      0.000208    0.000036
  25        12          18      0.000165    0.000032
  26        14          16      0.000128    0.000026
  27        16          14      0.000098    0.000020
  28        18          12      0.000074    0.000015
  29        18          12      0.000055    0.000011
  30        19          11      0.000041    0.000009
  31        24           6      0.000032    0.000007
  32        25           5      0.000025    0.000005
  33        25           5      0.000021    0.000004
  34        26           4      0.000018    0.000003
  35        26           4      0.000016    0.000002
  36        26           4      0.000014    0.000002
  37        29           1      0.000013    0.000001
  38        29           1      0.000012    0.000001
  39        30           0      0.000012    0.000001    Roots Converged
 ---------------------------------------------------
   
**************************************************
 RAS-CI total energy for state   1:   -573.141061212590
  Excitation energy (eV) =  0.000000000000
 Warning : Irrep of orbital( 140) could not be determined
 Warning : Irrep of orbital( 141) could not be determined
 Warning : Irrep of orbital( 140) could not be determined
 Warning : Irrep of orbital( 141) could not be determined
  State symmetry: A     (C2       )
  <S^2>      :  2.0000
  Dipole Moment:   -0.0000 X    -0.0000 Y     0.5092 Z
 NATURAL OCCUPATION NUMBERS (higher than 1.0E-05)
            1           2           3           4           5           6
    1   2.0000000   2.0000000   2.0000000   2.0000000   2.0000000   2.0000000
            7           8           9          10          11          12
    1   2.0000000   2.0000000   2.0000000   2.0000000   2.0000000   2.0000000
           13          14          15          16          17          18
    1   2.0000000   2.0000000   2.0000000   2.0000000   2.0000000   2.0000000
           19          20          21          22          23          24
    1   2.0000000   2.0000000   2.0000000   2.0000000   2.0000000   1.9999985
           25          26          27          28          29          30
    1   1.9999976   1.9999975   1.9999966   1.9999956   1.9999920   1.9999918
           31          32          33          34          35          36
    1   1.9999881   1.9999842   1.9999750   1.9999687   1.9999685   1.9999605
           37          38          39          40          41          42
    1   1.9999511   1.9998150   1.9998003   1.9995127   1.9993056   1.9991060
           43          44          45          46          47          48
    1   1.9985102   1.9799015   1.9672276   1.9573798   1.9572741   1.0040538
           49          50          51          52          53          54
    1   0.9994894   0.0417444   0.0415348   0.0350627   0.0182544   0.0008172
           55          56          57          58          59          60
    1   0.0003519   0.0003180   0.0002141   0.0001775   0.0001382   0.0000607
           61          62          63          64          65
    1   0.0000564   0.0000369   0.0000242   0.0000188   0.0000142
Natural Orbitals stored in FCHK

  Amplitudes : 
  
 | HOLE  | ALPHA     | BETA      | PART  |    AMPLITUDE 
--------------------------------------------------
 |       | 111111000 | 111100000 |       |     9.5575760521185E-01
--------------------------------------------------
*** Contributions RASCI wfn    Active:  95.31
                                 Hole:   2.33
                                 Part:   2.36

      Mulliken population analysis 
 ---------------------------------------------------
   Atom    Charge (a.u.)   Spin (a.u.)  
 ---------------------------------------------------
   1  C    0.280076        0.572366 
   2  O   -0.224802        1.017180 
   3  C    0.174295        0.007392 
   4  C    0.174565        0.007392 
   5  C   -0.322677        0.072466 
   6  C   -0.222400        0.080969 
   7  C   -0.106344       -0.031677 
   8  C   -0.081234       -0.026420 
   9  C   -0.147845        0.103335 
  10  H    0.154349       -0.000627 
  11  H    0.142807        0.001612 
  12  H    0.127221       -0.000868 
  13  H    0.126303       -0.001535 
  14  H    0.127631        0.000581 
  15  C   -0.322495        0.072467 
  16  C   -0.222194        0.080969 
  17  C   -0.081448       -0.026421 
  18  C   -0.106487       -0.031677 
  19  C   -0.147649        0.103335 
  20  H    0.154364       -0.000627 
  21  H    0.127216       -0.000869 
  22  H    0.142805        0.001612 
  23  H    0.126301       -0.001536 
  24  H    0.127643        0.000582 
 ---------------------------------------------------
   Sum:    0.000000        2.000000 
 ---------------------------------------------------
 
  
 NATURAL OCCUPATION NUMBERS (higher than 1.0E-05)
            1           2           3           4           5           6
    1   2.0000000   2.0000000   2.0000000   2.0000000   2.0000000   2.0000000
            7           8           9          10          11          12
    1   2.0000000   2.0000000   2.0000000   2.0000000   2.0000000   2.0000000
           13          14          15          16          17          18
    1   2.0000000   2.0000000   2.0000000   2.0000000   2.0000000   2.0000000
           19          20          21          22          23          24
    1   2.0000000   2.0000000   2.0000000   2.0000000   2.0000000   1.9999985
           25          26          27          28          29          30
    1   1.9999976   1.9999975   1.9999966   1.9999956   1.9999920   1.9999918
           31          32          33          34          35          36
    1   1.9999881   1.9999842   1.9999750   1.9999687   1.9999685   1.9999605
           37          38          39          40          41          42
    1   1.9999511   1.9998150   1.9998003   1.9995127   1.9993056   1.9991060
           43          44          45          46          47          48
    1   1.9985102   1.9799015   1.9672276   1.9573798   1.9572741   1.0040538
           49          50          51          52          53          54
    1   0.9994894   0.0417444   0.0415348   0.0350627   0.0182544   0.0008172
           55          56          57          58          59          60
    1   0.0003519   0.0003180   0.0002141   0.0001775   0.0001382   0.0000607
           61          62          63          64          65
    1   0.0000564   0.0000369   0.0000242   0.0000188   0.0000142
  
*** Unpaired Electrons
 Yamaguchi Nd:         2.55
 Head-Gordon Nu:       2.28
 Head-Gordon Nu_nl:    2.04
  
**************************************************
 RAS-CI total energy for state   2:   -573.085074828797
  Excitation energy (eV) =  1.523467014579
  State symmetry: A     (C2       )
  <S^2>      :  2.0000
  Dipole Moment:   -0.0000 X    -0.0000 Y     0.8154 Z
  Trans. Moment:    0.0000 X    -0.0000 Y     0.0778 Z
  Strength   :  0.000226
  Natural transition orbitals ( 1 -> 2 ):
   e-/hole pair  1 alpha:  ampl =  0.017267 (  0.0%)   [9 : 10]
   e-/hole pair  2 alpha:  ampl =  0.008164 (  0.0%)   [8 : 11]
   e-/hole pair  1 beta :  ampl =  0.979788 ( 96.0%)   [9 : 10]
   e-/hole pair  2 beta :  ampl =  0.026099 (  0.1%)   [8 : 11]
   Sum of square amplitudes: 0.96

 NATURAL OCCUPATION NUMBERS (higher than 1.0E-05)
            1           2           3           4           5           6
    1   2.0000000   2.0000000   2.0000000   2.0000000   2.0000000   2.0000000
            7           8           9          10          11          12
    1   2.0000000   2.0000000   2.0000000   2.0000000   2.0000000   2.0000000
           13          14          15          16          17          18
    1   2.0000000   2.0000000   2.0000000   2.0000000   2.0000000   2.0000000
           19          20          21          22          23          24
    1   2.0000000   2.0000000   2.0000000   2.0000000   2.0000000   1.9999992
           25          26          27          28          29          30
    1   1.9999989   1.9999987   1.9999984   1.9999980   1.9999968   1.9999955
           31          32          33          34          35          36
    1   1.9999926   1.9999922   1.9999902   1.9999854   1.9999812   1.9999799
           37          38          39          40          41          42
    1   1.9999748   1.9999400   1.9998376   1.9995419   1.9993772   1.9983237
           43          44          45          46          47          48
    1   1.9947962   1.9908473   1.9776044   1.9633705   1.9632586   1.0182512
           49          50          51          52          53          54
    1   0.9900745   0.0358615   0.0354963   0.0239190   0.0080226   0.0005976
           55          56          57          58          59          60
    1   0.0003342   0.0002115   0.0001324   0.0001204   0.0000814   0.0000284
           61          62          63
    1   0.0000272   0.0000178   0.0000155
Natural Orbitals stored in FCHK

  Amplitudes : 
  
 | HOLE  | ALPHA     | BETA      | PART  |    AMPLITUDE 
--------------------------------------------------
 |       | 111111000 | 101110000 |       |     4.0963504423846E-01
 |       | 111111000 | 011110000 |       |     5.9356560923279E-01
 |  31   | 111111000 | 111110000 |       |     2.9296302426683E-01
 |  34   | 111111000 | 111110000 |       |    -4.4469547760609E-01
 |  40   | 111111000 | 111110000 |       |     3.1712118525118E-01
--------------------------------------------------
*** Contributions RASCI wfn    Active:  55.02
                                 Hole:  43.86
                                 Part:   1.12

      Mulliken population analysis 
 ---------------------------------------------------
   Atom    Charge (a.u.)   Spin (a.u.)  
 ---------------------------------------------------
   1  C    0.312361        0.599649 
   2  O   -0.311648        0.920276 
   3  C    0.182159        0.039707 
   4  C    0.182438        0.039709 
   5  C   -0.319914        0.073791 
   6  C   -0.207955        0.081200 
   7  C   -0.107592       -0.018793 
   8  C   -0.082473       -0.012846 
   9  C   -0.136692        0.075696 
  10  H    0.154228        0.000754 
  11  H    0.136795        0.001074 
  12  H    0.127026       -0.000393 
  13  H    0.126067       -0.000691 
  14  H    0.127728        0.000537 
  15  C   -0.319729        0.073792 
  16  C   -0.207743        0.081202 
  17  C   -0.082689       -0.012847 
  18  C   -0.107736       -0.018794 
  19  C   -0.136493        0.075696 
  20  H    0.154243        0.000754 
  21  H    0.127020       -0.000393 
  22  H    0.136794        0.001075 
  23  H    0.126064       -0.000691 
  24  H    0.127740        0.000538 
 ---------------------------------------------------
   Sum:    0.000000        2.000000 
 ---------------------------------------------------
 
  
 NATURAL OCCUPATION NUMBERS (higher than 1.0E-05)
            1           2           3           4           5           6
    1   2.0000000   2.0000000   2.0000000   2.0000000   2.0000000   2.0000000
            7           8           9          10          11          12
    1   2.0000000   2.0000000   2.0000000   2.0000000   2.0000000   2.0000000
           13          14          15          16          17          18
    1   2.0000000   2.0000000   2.0000000   2.0000000   2.0000000   2.0000000
           19          20          21          22          23          24
    1   2.0000000   2.0000000   2.0000000   2.0000000   2.0000000   1.9999992
           25          26          27          28          29          30
    1   1.9999989   1.9999987   1.9999984   1.9999980   1.9999968   1.9999955
           31          32          33          34          35          36
    1   1.9999926   1.9999922   1.9999902   1.9999854   1.9999812   1.9999799
           37          38          39          40          41          42
    1   1.9999748   1.9999400   1.9998376   1.9995419   1.9993772   1.9983237
           43          44          45          46          47          48
    1   1.9947962   1.9908473   1.9776044   1.9633705   1.9632586   1.0182512
           49          50          51          52          53          54
    1   0.9900745   0.0358615   0.0354963   0.0239190   0.0080226   0.0005976
           55          56          57          58          59          60
    1   0.0003342   0.0002115   0.0001324   0.0001204   0.0000814   0.0000284
           61          62          63
    1   0.0000272   0.0000178   0.0000155
  
*** Unpaired Electrons
 Yamaguchi Nd:         2.43
 Head-Gordon Nu:       2.19
 Head-Gordon Nu_nl:    2.02
  
**************************************************
 RAS-CI total energy for state   3:   -573.010987997226
  Excitation energy (eV) =  3.539472272794
  State symmetry: B     (C2       )
  <S^2>      :  2.0000
  Dipole Moment:    0.0000 X     0.0000 Y     0.1573 Z
  Trans. Moment:   -1.3752 X    -0.0761 Y     0.0000 Z
  Strength   :  0.164490
  Natural transition orbitals ( 1 -> 3 ):
   e-/hole pair  1 alpha:  ampl =  0.856486 ( 73.4%)   [9 : 10]
   e-/hole pair  2 alpha:  ampl =  0.052915 (  0.3%)   [8 : 11]
   e-/hole pair  1 beta :  ampl =  0.198808 (  4.0%)   [9 : 10]
   e-/hole pair  2 beta :  ampl =  0.067465 (  0.5%)   [8 : 11]
   Sum of square amplitudes: 0.79

 NATURAL OCCUPATION NUMBERS (higher than 1.0E-05)
            1           2           3           4           5           6
    1   2.0000000   2.0000000   2.0000000   2.0000000   2.0000000   2.0000000
            7           8           9          10          11          12
    1   2.0000000   2.0000000   2.0000000   2.0000000   2.0000000   2.0000000
           13          14          15          16          17          18
    1   2.0000000   2.0000000   2.0000000   2.0000000   2.0000000   2.0000000
           19          20          21          22          23          24
    1   2.0000000   2.0000000   2.0000000   2.0000000   2.0000000   1.9999989
           25          26          27          28          29          30
    1   1.9999977   1.9999963   1.9999958   1.9999939   1.9999904   1.9999874
           31          32          33          34          35          36
    1   1.9999864   1.9999692   1.9999531   1.9999497   1.9999464   1.9999193
           37          38          39          40          41          42
    1   1.9997716   1.9992798   1.9989481   1.9982221   1.9963770   1.9956162
           43          44          45          46          47          48
    1   1.9784340   1.9559158   1.9366539   1.9211347   1.9167115   1.0578187
           49          50          51          52          53          54
    1   0.8963400   0.1958601   0.0693731   0.0672541   0.0082102   0.0055286
           55          56          57          58          59          60
    1   0.0012326   0.0004810   0.0003396   0.0002545   0.0002400   0.0000851
           61          62          63          64          65          66
    1   0.0000712   0.0000620   0.0000371   0.0000143   0.0000104   0.0000102
Natural Orbitals stored in FCHK

  Amplitudes : 
  
 | HOLE  | ALPHA     | BETA      | PART  |    AMPLITUDE 
--------------------------------------------------
 |       | 111110100 | 111100000 |       |     7.9928747374192E-01
 |       | 111110100 | 101110000 |       |     1.8162068604805E-01
 |       | 111110100 | 101101000 |       |     2.4542181552004E-01
 |       | 111110010 | 111010000 |       |     1.2332432513395E-01
 |       | 111110001 | 110110000 |       |     1.1514164195184E-01
 |       | 101111100 | 111100000 |       |    -2.0433954816011E-01
 |  43   | 111111000 | 111101000 |       |     1.6131472408293E-01
--------------------------------------------------
*** Contributions RASCI wfn    Active:  88.25
                                 Hole:   9.32
                                 Part:   2.42

      Mulliken population analysis 
 ---------------------------------------------------
   Atom    Charge (a.u.)   Spin (a.u.)  
 ---------------------------------------------------
   1  C    0.487921       -0.034838 
   2  O   -0.212802        0.859662 
   3  C    0.071688        0.169002 
   4  C    0.071955        0.169008 
   5  C   -0.326539        0.144615 
   6  C   -0.196166        0.047723 
   7  C   -0.141140        0.072536 
   8  C   -0.088033        0.009468 
   9  C   -0.134523        0.140749 
  10  H    0.154081        0.001231 
  11  H    0.140581        0.000343 
  12  H    0.127935       -0.000002 
  13  H    0.127018        0.000701 
  14  H    0.127282        0.001215 
  15  C   -0.326360        0.144620 
  16  C   -0.195960        0.047725 
  17  C   -0.088246        0.009468 
  18  C   -0.141282        0.072534 
  19  C   -0.134328        0.140750 
  20  H    0.154097        0.001231 
  21  H    0.127930       -0.000001 
  22  H    0.140579        0.000343 
  23  H    0.127016        0.000701 
  24  H    0.127294        0.001215 
 ---------------------------------------------------
   Sum:    0.000000        2.000000 
 ---------------------------------------------------
 
  
 NATURAL OCCUPATION NUMBERS (higher than 1.0E-05)
            1           2           3           4           5           6
    1   2.0000000   2.0000000   2.0000000   2.0000000   2.0000000   2.0000000
            7           8           9          10          11          12
    1   2.0000000   2.0000000   2.0000000   2.0000000   2.0000000   2.0000000
           13          14          15          16          17          18
    1   2.0000000   2.0000000   2.0000000   2.0000000   2.0000000   2.0000000
           19          20          21          22          23          24
    1   2.0000000   2.0000000   2.0000000   2.0000000   2.0000000   1.9999989
           25          26          27          28          29          30
    1   1.9999977   1.9999963   1.9999958   1.9999939   1.9999904   1.9999874
           31          32          33          34          35          36
    1   1.9999864   1.9999692   1.9999531   1.9999497   1.9999464   1.9999193
           37          38          39          40          41          42
    1   1.9997716   1.9992798   1.9989481   1.9982221   1.9963770   1.9956162
           43          44          45          46          47          48
    1   1.9784340   1.9559158   1.9366539   1.9211347   1.9167115   1.0578187
           49          50          51          52          53          54
    1   0.8963400   0.1958601   0.0693731   0.0672541   0.0082102   0.0055286
           55          56          57          58          59          60
    1   0.0012326   0.0004810   0.0003396   0.0002545   0.0002400   0.0000851
           61          62          63          64          65          66
    1   0.0000712   0.0000620   0.0000371   0.0000143   0.0000104   0.0000102
  
*** Unpaired Electrons
 Yamaguchi Nd:         3.22
 Head-Gordon Nu:       2.49
 Head-Gordon Nu_nl:    2.20
  
**************************************************
 RAS-CI total energy for state   4:   -573.006383404790
  Excitation energy (eV) =  3.664769607883
  State symmetry: B     (C2       )
  <S^2>      :  2.0000
  Dipole Moment:    0.0000 X    -0.0000 Y     0.6545 Z
  Trans. Moment:   -0.0652 X     0.0554 Y    -0.0000 Z
  Strength   :  0.000657
  Natural transition orbitals ( 1 -> 4 ):
   e-/hole pair  1 alpha:  ampl =  0.564675 ( 31.9%)   [9 : 10]
   e-/hole pair  2 alpha:  ampl =  0.099208 (  1.0%)   [8 : 11]
   e-/hole pair  1 beta :  ampl =  0.213642 (  4.6%)   [9 : 10]
   e-/hole pair  2 beta :  ampl =  0.083705 (  0.7%)   [8 : 11]
   Sum of square amplitudes: 0.39

 NATURAL OCCUPATION NUMBERS (higher than 1.0E-05)
            1           2           3           4           5           6
    1   2.0000000   2.0000000   2.0000000   2.0000000   2.0000000   2.0000000
            7           8           9          10          11          12
    1   2.0000000   2.0000000   2.0000000   2.0000000   2.0000000   2.0000000
           13          14          15          16          17          18
    1   2.0000000   2.0000000   2.0000000   2.0000000   2.0000000   2.0000000
           19          20          21          22          23          24
    1   2.0000000   2.0000000   2.0000000   2.0000000   2.0000000   1.9999982
           25          26          27          28          29          30
    1   1.9999972   1.9999969   1.9999963   1.9999944   1.9999917   1.9999906
           31          32          33          34          35          36
    1   1.9999854   1.9999740   1.9999572   1.9999539   1.9999412   1.9998817
           37          38          39          40          41          42
    1   1.9998164   1.9996985   1.9994342   1.9974642   1.9953434   1.9941017
           43          44          45          46          47          48
    1   1.9609785   1.9609325   1.8681499   1.8267448   1.6888400   1.3668106
           49          50          51          52          53          54
    1   0.6674234   0.3637153   0.2313499   0.0590733   0.0123988   0.0039370
           55          56          57          58          59          60
    1   0.0012145   0.0010612   0.0007997   0.0004377   0.0002554   0.0000819
           61          62          63          64          65          66
    1   0.0000809   0.0000549   0.0000511   0.0000199   0.0000179   0.0000146
Natural Orbitals stored in FCHK

  Amplitudes : 
  
 | HOLE  | ALPHA     | BETA      | PART  |    AMPLITUDE 
--------------------------------------------------
 |       | 111111000 | 110110000 |       |     1.3233185787115E-01
 |       | 111111000 | 110101000 |       |     1.4294023751434E-01
 |       | 111110100 | 111100000 |       |    -1.2050702077601E-01
 |       | 111110010 | 111100000 |       |     5.1396740497541E-01
 |       | 111110010 | 111010000 |       |     4.0518481870967E-01
 |       | 111110010 | 101110000 |       |     1.0663623459779E-01
 |       | 111110010 | 101101000 |       |     1.5894328680408E-01
 |       | 111110010 | 011011000 |       |    -1.3273167506726E-01
 |       | 111110001 | 110110000 |       |     3.5788558850826E-01
 |       | 111110001 | 010111000 |       |    -1.1695828403789E-01
 |       | 101111010 | 111100000 |       |    -1.4827007508071E-01
 |       | 011111010 | 111010000 |       |     1.4627743906953E-01
 |       | 011111001 | 110110000 |       |     1.3228376371262E-01
 |  34   | 111111010 | 111010000 |       |    -1.1331916576444E-01
 |  34   | 111111001 | 110110000 |       |    -1.0345575419182E-01
 |  34   | 111110010 | 111011000 |       |     1.0290032817857E-01
 |  43   | 111110001 | 111101000 |       |     1.2254773323841E-01
--------------------------------------------------
*** Contributions RASCI wfn    Active:  81.41
                                 Hole:  16.04
                                 Part:   2.55

      Mulliken population analysis 
 ---------------------------------------------------
   Atom    Charge (a.u.)   Spin (a.u.)  
 ---------------------------------------------------
   1  C    0.398214        0.047943 
   2  O   -0.322221        0.388651 
   3  C    0.173270        0.008048 
   4  C    0.173551        0.008045 
   5  C   -0.326732        0.132787 
   6  C   -0.197561        0.222819 
   7  C   -0.133911        0.181785 
   8  C   -0.111228        0.218529 
   9  C   -0.104949        0.007969 
  10  H    0.150832        0.003303 
  11  H    0.133038        0.003208 
  12  H    0.126160        0.001491 
  13  H    0.125592        0.001142 
  14  H    0.127222        0.000619 
  15  C   -0.326540        0.132785 
  16  C   -0.197342        0.222818 
  17  C   -0.111448        0.218538 
  18  C   -0.134060        0.181792 
  19  C   -0.104747        0.007965 
  20  H    0.150846        0.003304 
  21  H    0.126153        0.001491 
  22  H    0.133038        0.003206 
  23  H    0.125590        0.001142 
  24  H    0.127235        0.000619 
 ---------------------------------------------------
   Sum:    0.000000        2.000000 
 ---------------------------------------------------
 
  
 NATURAL OCCUPATION NUMBERS (higher than 1.0E-05)
            1           2           3           4           5           6
    1   2.0000000   2.0000000   2.0000000   2.0000000   2.0000000   2.0000000
            7           8           9          10          11          12
    1   2.0000000   2.0000000   2.0000000   2.0000000   2.0000000   2.0000000
           13          14          15          16          17          18
    1   2.0000000   2.0000000   2.0000000   2.0000000   2.0000000   2.0000000
           19          20          21          22          23          24
    1   2.0000000   2.0000000   2.0000000   2.0000000   2.0000000   1.9999982
           25          26          27          28          29          30
    1   1.9999972   1.9999969   1.9999963   1.9999944   1.9999917   1.9999906
           31          32          33          34          35          36
    1   1.9999854   1.9999740   1.9999572   1.9999539   1.9999412   1.9998817
           37          38          39          40          41          42
    1   1.9998164   1.9996985   1.9994342   1.9974642   1.9953434   1.9941017
           43          44          45          46          47          48
    1   1.9609785   1.9609325   1.8681499   1.8267448   1.6888400   1.3668106
           49          50          51          52          53          54
    1   0.6674234   0.3637153   0.2313499   0.0590733   0.0123988   0.0039370
           55          56          57          58          59          60
    1   0.0012145   0.0010612   0.0007997   0.0004377   0.0002554   0.0000819
           61          62          63          64          65          66
    1   0.0000809   0.0000549   0.0000511   0.0000199   0.0000179   0.0000146
  
*** Unpaired Electrons
 Yamaguchi Nd:         4.18
 Head-Gordon Nu:       2.68
 Head-Gordon Nu_nl:    2.52
  
**************************************************
 RAS-CI total energy for state   5:   -573.004055347901
  Excitation energy (eV) =  3.728119258973
  State symmetry: A     (C2       )
  <S^2>      :  2.0000
  Dipole Moment:    0.0000 X    -0.0000 Y     0.9502 Z
  Trans. Moment:    0.0000 X    -0.0000 Y     0.0839 Z
  Strength   :  0.000642
  Natural transition orbitals ( 1 -> 5 ):
   e-/hole pair  1 alpha:  ampl =  0.329868 ( 10.9%)   [9 : 10]
   e-/hole pair  2 alpha:  ampl =  0.063060 (  0.4%)   [8 : 11]
   e-/hole pair  1 beta :  ampl =  0.213356 (  4.6%)   [9 : 10]
   e-/hole pair  2 beta :  ampl =  0.058291 (  0.3%)   [8 : 11]
   Sum of square amplitudes: 0.16

 NATURAL OCCUPATION NUMBERS (higher than 1.0E-05)
            1           2           3           4           5           6
    1   2.0000000   2.0000000   2.0000000   2.0000000   2.0000000   2.0000000
            7           8           9          10          11          12
    1   2.0000000   2.0000000   2.0000000   2.0000000   2.0000000   2.0000000
           13          14          15          16          17          18
    1   2.0000000   2.0000000   2.0000000   2.0000000   2.0000000   2.0000000
           19          20          21          22          23          24
    1   2.0000000   2.0000000   2.0000000   2.0000000   2.0000000   1.9999984
           25          26          27          28          29          30
    1   1.9999984   1.9999975   1.9999965   1.9999964   1.9999940   1.9999928
           31          32          33          34          35          36
    1   1.9999889   1.9999825   1.9999712   1.9999695   1.9999536   1.9999155
           37          38          39          40          41          42
    1   1.9998915   1.9998151   1.9993769   1.9970851   1.9960588   1.9934814
           43          44          45          46          47          48
    1   1.9761693   1.9662028   1.9305742   1.8276912   1.5724746   1.4683615
           49          50          51          52          53          54
    1   0.5659113   0.4321561   0.2225042   0.0343411   0.0117935   0.0027199
           55          56          57          58          59          60
    1   0.0013632   0.0008963   0.0004549   0.0004476   0.0001565   0.0000814
           61          62          63          64          65
    1   0.0000612   0.0000519   0.0000462   0.0000197   0.0000126
Natural Orbitals stored in FCHK

  Amplitudes : 
  
 | HOLE  | ALPHA     | BETA      | PART  |    AMPLITUDE 
--------------------------------------------------
 |       | 111111000 | 111010000 |       |     1.5397333231694E-01
 |       | 111111000 | 111001000 |       |     1.0332597837937E-01
 |       | 111110010 | 110110000 |       |     4.7865804814205E-01
 |       | 111110010 | 010111000 |       |    -1.5421545181375E-01
 |       | 111110001 | 111100000 |       |     3.0592265809392E-01
 |       | 111110001 | 111010000 |       |     4.7436696844401E-01
 |       | 111110001 | 011011000 |       |    -1.5248493347668E-01
 |       | 011111010 | 110110000 |       |     1.7579132465472E-01
 |       | 011111001 | 111010000 |       |     1.7596852316810E-01
 |  34   | 111111001 | 111010000 |       |    -1.3726055886775E-01
 |  34   | 111111010 | 110110000 |       |    -1.3581684461238E-01
 |  34   | 111110010 | 110111000 |       |     1.2046701206626E-01
 |  34   | 111110001 | 111011000 |       |     1.1872096972172E-01
--------------------------------------------------
*** Contributions RASCI wfn    Active:  78.81
                                 Hole:  18.57
                                 Part:   2.62

      Mulliken population analysis 
 ---------------------------------------------------
   Atom    Charge (a.u.)   Spin (a.u.)  
 ---------------------------------------------------
   1  C    0.395330        0.068009 
   2  O   -0.382555        0.092635 
   3  C    0.166686        0.003168 
   4  C    0.166968        0.003169 
   5  C   -0.310589        0.173759 
   6  C   -0.189471        0.272718 
   7  C   -0.103683        0.202160 
   8  C   -0.094882        0.244167 
   9  C   -0.127137        0.008061 
  10  H    0.146364        0.008003 
  11  H    0.128798        0.003889 
  12  H    0.125568        0.001619 
  13  H    0.125043        0.001151 
  14  H    0.126644        0.000984 
  15  C   -0.310400        0.173759 
  16  C   -0.189252        0.272713 
  17  C   -0.095102        0.244167 
  18  C   -0.103831        0.202163 
  19  C   -0.126935        0.008058 
  20  H    0.146379        0.008003 
  21  H    0.125560        0.001619 
  22  H    0.128800        0.003888 
  23  H    0.125040        0.001152 
  24  H    0.126657        0.000984 
 ---------------------------------------------------
   Sum:    0.000000        2.000000 
 ---------------------------------------------------
 
  
 NATURAL OCCUPATION NUMBERS (higher than 1.0E-05)
            1           2           3           4           5           6
    1   2.0000000   2.0000000   2.0000000   2.0000000   2.0000000   2.0000000
            7           8           9          10          11          12
    1   2.0000000   2.0000000   2.0000000   2.0000000   2.0000000   2.0000000
           13          14          15          16          17          18
    1   2.0000000   2.0000000   2.0000000   2.0000000   2.0000000   2.0000000
           19          20          21          22          23          24
    1   2.0000000   2.0000000   2.0000000   2.0000000   2.0000000   1.9999984
           25          26          27          28          29          30
    1   1.9999984   1.9999975   1.9999965   1.9999964   1.9999940   1.9999928
           31          32          33          34          35          36
    1   1.9999889   1.9999825   1.9999712   1.9999695   1.9999536   1.9999155
           37          38          39          40          41          42
    1   1.9998915   1.9998151   1.9993769   1.9970851   1.9960588   1.9934814
           43          44          45          46          47          48
    1   1.9761693   1.9662028   1.9305742   1.8276912   1.5724746   1.4683615
           49          50          51          52          53          54
    1   0.5659113   0.4321561   0.2225042   0.0343411   0.0117935   0.0027199
           55          56          57          58          59          60
    1   0.0013632   0.0008963   0.0004549   0.0004476   0.0001565   0.0000814
           61          62          63          64          65
    1   0.0000612   0.0000519   0.0000462   0.0000197   0.0000126
  
*** Unpaired Electrons
 Yamaguchi Nd:         4.03
 Head-Gordon Nu:       2.55
 Head-Gordon Nu_nl:    2.46
  
**************************************************
 RAS-CI total energy for state   6:   -572.997721789564
  Excitation energy (eV) =  3.900464149963
  State symmetry: B     (C2       )
  <S^2>      :  2.0000
  Dipole Moment:   -0.0000 X    -0.0000 Y     0.5448 Z
  Trans. Moment:    0.6747 X    -0.0288 Y    -0.0000 Z
  Strength   :  0.043585
  Natural transition orbitals ( 1 -> 6 ):
   e-/hole pair  1 alpha:  ampl =  0.616316 ( 38.0%)   [9 : 10]
   e-/hole pair  2 alpha:  ampl =  0.108028 (  1.2%)   [8 : 11]
   e-/hole pair  1 beta :  ampl =  0.176634 (  3.1%)   [9 : 10]
   e-/hole pair  2 beta :  ampl =  0.091385 (  0.8%)   [8 : 11]
   Sum of square amplitudes: 0.44

 NATURAL OCCUPATION NUMBERS (higher than 1.0E-05)
            1           2           3           4           5           6
    1   2.0000000   2.0000000   2.0000000   2.0000000   2.0000000   2.0000000
            7           8           9          10          11          12
    1   2.0000000   2.0000000   2.0000000   2.0000000   2.0000000   2.0000000
           13          14          15          16          17          18
    1   2.0000000   2.0000000   2.0000000   2.0000000   2.0000000   2.0000000
           19          20          21          22          23          24
    1   2.0000000   2.0000000   2.0000000   2.0000000   2.0000000   1.9999984
           25          26          27          28          29          30
    1   1.9999969   1.9999966   1.9999942   1.9999939   1.9999909   1.9999888
           31          32          33          34          35          36
    1   1.9999817   1.9999678   1.9999550   1.9999533   1.9999145   1.9998932
           37          38          39          40          41          42
    1   1.9997811   1.9995772   1.9994877   1.9977529   1.9952157   1.9944957
           43          44          45          46          47          48
    1   1.9584793   1.9490461   1.8476192   1.7825891   1.7446212   1.3615069
           49          50          51          52          53          54
    1   0.6396266   0.3221663   0.2544970   0.1333006   0.0120964   0.0044173
           55          56          57          58          59          60
    1   0.0012901   0.0010307   0.0007864   0.0003838   0.0002318   0.0001005
           61          62          63          64          65          66
    1   0.0000788   0.0000572   0.0000406   0.0000229   0.0000198   0.0000164
Natural Orbitals stored in FCHK

  Amplitudes : 
  
 | HOLE  | ALPHA     | BETA      | PART  |    AMPLITUDE 
--------------------------------------------------
 |       | 111111000 | 110101000 |       |    -1.4020873489418E-01
 |       | 111110100 | 111100000 |       |    -1.9030518167676E-01
 |       | 111110100 | 111010000 |       |    -1.4734609175680E-01
 |       | 111110010 | 111100000 |       |    -5.4288483860745E-01
 |       | 111110010 | 111010000 |       |     3.3708697050177E-01
 |       | 111110010 | 101110000 |       |    -1.1758617951466E-01
 |       | 111110010 | 101101000 |       |    -1.8874671051504E-01
 |       | 111110010 | 011011000 |       |    -1.1388701742488E-01
 |       | 111110001 | 110110000 |       |     3.3442172237364E-01
 |       | 111110001 | 010111000 |       |    -1.1405305348631E-01
 |       | 101111010 | 111100000 |       |     1.7618407596295E-01
 |       | 011111010 | 111010000 |       |     1.2581303241319E-01
 |       | 011111001 | 110110000 |       |     1.2409271715626E-01
 |  43   | 111111001 | 111100000 |       |     1.0618464447838E-01
 |  43   | 111110001 | 111101000 |       |    -1.3070744593382E-01
--------------------------------------------------
*** Contributions RASCI wfn    Active:  81.88
                                 Hole:  15.50
                                 Part:   2.61

      Mulliken population analysis 
 ---------------------------------------------------
   Atom    Charge (a.u.)   Spin (a.u.)  
 ---------------------------------------------------
   1  C    0.393875        0.043103 
   2  O   -0.282027        0.501418 
   3  C    0.169245        0.024619 
   4  C    0.169528        0.024614 
   5  C   -0.295445        0.164124 
   6  C   -0.232000        0.165762 
   7  C   -0.122317        0.163193 
   8  C   -0.142265        0.173640 
   9  C   -0.099816        0.028195 
  10  H    0.152335        0.002979 
  11  H    0.134382        0.002291 
  12  H    0.126203        0.001193 
  13  H    0.126159        0.001098 
  14  H    0.127322        0.000663 
  15  C   -0.295254        0.164110 
  16  C   -0.231781        0.165750 
  17  C   -0.142486        0.173641 
  18  C   -0.122466        0.163192 
  19  C   -0.099614        0.028193 
  20  H    0.152349        0.002980 
  21  H    0.126196        0.001193 
  22  H    0.134383        0.002289 
  23  H    0.126157        0.001098 
  24  H    0.127335        0.000663 
 ---------------------------------------------------
   Sum:    0.000000        2.000000 
 ---------------------------------------------------
 
  
 NATURAL OCCUPATION NUMBERS (higher than 1.0E-05)
            1           2           3           4           5           6
    1   2.0000000   2.0000000   2.0000000   2.0000000   2.0000000   2.0000000
            7           8           9          10          11          12
    1   2.0000000   2.0000000   2.0000000   2.0000000   2.0000000   2.0000000
           13          14          15          16          17          18
    1   2.0000000   2.0000000   2.0000000   2.0000000   2.0000000   2.0000000
           19          20          21          22          23          24
    1   2.0000000   2.0000000   2.0000000   2.0000000   2.0000000   1.9999984
           25          26          27          28          29          30
    1   1.9999969   1.9999966   1.9999942   1.9999939   1.9999909   1.9999888
           31          32          33          34          35          36
    1   1.9999817   1.9999678   1.9999550   1.9999533   1.9999145   1.9998932
           37          38          39          40          41          42
    1   1.9997811   1.9995772   1.9994877   1.9977529   1.9952157   1.9944957
           43          44          45          46          47          48
    1   1.9584793   1.9490461   1.8476192   1.7825891   1.7446212   1.3615069
           49          50          51          52          53          54
    1   0.6396266   0.3221663   0.2544970   0.1333006   0.0120964   0.0044173
           55          56          57          58          59          60
    1   0.0012901   0.0010307   0.0007864   0.0003838   0.0002318   0.0001005
           61          62          63          64          65          66
    1   0.0000788   0.0000572   0.0000406   0.0000229   0.0000198   0.0000164
  
*** Unpaired Electrons
 Yamaguchi Nd:         4.34
 Head-Gordon Nu:       2.74
 Head-Gordon Nu_nl:    2.51
  
**************************************************
 RAS-CI total energy for state   7:   -572.994069123515
  Excitation energy (eV) =  3.999858250177
  State symmetry: A     (C2       )
  <S^2>      :  2.0000
  Dipole Moment:   -0.0000 X    -0.0000 Y     0.4044 Z
  Trans. Moment:   -0.0000 X     0.0000 Y     0.1260 Z
  Strength   :  0.001555
  Natural transition orbitals ( 1 -> 7 ):
   e-/hole pair  1 alpha:  ampl =  0.666723 ( 44.5%)   [9 : 10]
   e-/hole pair  2 alpha:  ampl =  0.143299 (  2.1%)   [8 : 11]
   e-/hole pair  1 beta :  ampl =  0.294326 (  8.7%)   [9 : 10]
   e-/hole pair  2 beta :  ampl =  0.127004 (  1.6%)   [8 : 11]
   Sum of square amplitudes: 0.57

 NATURAL OCCUPATION NUMBERS (higher than 1.0E-05)
            1           2           3           4           5           6
    1   2.0000000   2.0000000   2.0000000   2.0000000   2.0000000   2.0000000
            7           8           9          10          11          12
    1   2.0000000   2.0000000   2.0000000   2.0000000   2.0000000   2.0000000
           13          14          15          16          17          18
    1   2.0000000   2.0000000   2.0000000   2.0000000   2.0000000   2.0000000
           19          20          21          22          23          24
    1   2.0000000   2.0000000   2.0000000   2.0000000   2.0000000   1.9999984
           25          26          27          28          29          30
    1   1.9999975   1.9999966   1.9999949   1.9999943   1.9999898   1.9999897
           31          32          33          34          35          36
    1   1.9999779   1.9999682   1.9999512   1.9999432   1.9999037   1.9998753
           37          38          39          40          41          42
    1   1.9997447   1.9995867   1.9995249   1.9976311   1.9945781   1.9938447
           43          44          45          46          47          48
    1   1.9602044   1.9319703   1.8977548   1.8099304   1.7887396   1.2051400
           49          50          51          52          53          54
    1   0.6649786   0.4250632   0.2311028   0.0680456   0.0241998   0.0046340
           55          56          57          58          59          60
    1   0.0014015   0.0009155   0.0003785   0.0003451   0.0002576   0.0001119
           61          62          63          64          65          66
    1   0.0000967   0.0000780   0.0000620   0.0000272   0.0000184   0.0000117
           67
    1   0.0000108
Natural Orbitals stored in FCHK

  Amplitudes : 
  
 | HOLE  | ALPHA     | BETA      | PART  |    AMPLITUDE 
--------------------------------------------------
 |       | 111111000 | 111010000 |       |     1.1397007183195E-01
 |       | 111111000 | 111001000 |       |     2.4705243731911E-01
 |       | 111111000 | 110100100 |       |     1.2411063497114E-01
 |       | 111110100 | 110110000 |       |     1.7126004783207E-01
 |       | 111110100 | 110101000 |       |     1.3406683621469E-01
 |       | 111110010 | 110110000 |       |    -2.3162467126495E-01
 |       | 111110001 | 111100000 |       |     6.1751703840940E-01
 |       | 111110001 | 111010000 |       |    -2.1688302775922E-01
 |       | 111110001 | 101110000 |       |     1.4892897989594E-01
 |       | 111110001 | 101101000 |       |     2.2010012798327E-01
 |       | 101111001 | 111100000 |       |    -2.0467745133946E-01
 |  43   | 111111010 | 111100000 |       |    -1.3959690872581E-01
 |  43   | 111110010 | 111101000 |       |     1.7531550992179E-01
 |       | 111111000 | 111000000 |  55   |    -1.0586115400964E-01
--------------------------------------------------
*** Contributions RASCI wfn    Active:  80.89
                                 Hole:  14.54
                                 Part:   4.57

      Mulliken population analysis 
 ---------------------------------------------------
   Atom    Charge (a.u.)   Spin (a.u.)  
 ---------------------------------------------------
   1  C    0.406227       -0.010579 
   2  O   -0.261125        0.703169 
   3  C    0.169764        0.038395 
   4  C    0.170038        0.038394 
   5  C   -0.311895        0.169473 
   6  C   -0.216927        0.095935 
   7  C   -0.149271        0.180551 
   8  C   -0.130822        0.142496 
   9  C   -0.093548        0.010563 
  10  H    0.143458        0.011281 
  11  H    0.136717        0.001940 
  12  H    0.126626        0.000996 
  13  H    0.125977        0.001235 
  14  H    0.127111        0.000835 
  15  C   -0.311712        0.169474 
  16  C   -0.216718        0.095936 
  17  C   -0.131040        0.142499 
  18  C   -0.149419        0.180554 
  19  C   -0.093348        0.010563 
  20  H    0.143474        0.011281 
  21  H    0.126619        0.000996 
  22  H    0.136716        0.001940 
  23  H    0.125975        0.001235 
  24  H    0.127123        0.000835 
 ---------------------------------------------------
   Sum:    0.000000        2.000000 
 ---------------------------------------------------
 
  
 NATURAL OCCUPATION NUMBERS (higher than 1.0E-05)
            1           2           3           4           5           6
    1   2.0000000   2.0000000   2.0000000   2.0000000   2.0000000   2.0000000
            7           8           9          10          11          12
    1   2.0000000   2.0000000   2.0000000   2.0000000   2.0000000   2.0000000
           13          14          15          16          17          18
    1   2.0000000   2.0000000   2.0000000   2.0000000   2.0000000   2.0000000
           19          20          21          22          23          24
    1   2.0000000   2.0000000   2.0000000   2.0000000   2.0000000   1.9999984
           25          26          27          28          29          30
    1   1.9999975   1.9999966   1.9999949   1.9999943   1.9999898   1.9999897
           31          32          33          34          35          36
    1   1.9999779   1.9999682   1.9999512   1.9999432   1.9999037   1.9998753
           37          38          39          40          41          42
    1   1.9997447   1.9995867   1.9995249   1.9976311   1.9945781   1.9938447
           43          44          45          46          47          48
    1   1.9602044   1.9319703   1.8977548   1.8099304   1.7887396   1.2051400
           49          50          51          52          53          54
    1   0.6649786   0.4250632   0.2311028   0.0680456   0.0241998   0.0046340
           55          56          57          58          59          60
    1   0.0014015   0.0009155   0.0003785   0.0003451   0.0002576   0.0001119
           61          62          63          64          65          66
    1   0.0000967   0.0000780   0.0000620   0.0000272   0.0000184   0.0000117
           67
    1   0.0000108
  
*** Unpaired Electrons
 Yamaguchi Nd:         4.28
 Head-Gordon Nu:       2.84
 Head-Gordon Nu_nl:    2.66
  
**************************************************
 RAS-CI total energy for state   8:   -572.980808437495
  Excitation energy (eV) =  4.360699875813
  State symmetry: A     (C2       )
  <S^2>      :  2.0000
  Dipole Moment:   -0.0000 X    -0.0000 Y     0.4780 Z
  Trans. Moment:   -0.0000 X    -0.0000 Y     0.0931 Z
  Strength   :  0.000925
  Natural transition orbitals ( 1 -> 8 ):
   e-/hole pair  1 alpha:  ampl =  0.498065 ( 24.8%)   [9 : 10]
   e-/hole pair  2 alpha:  ampl =  0.188801 (  3.6%)   [8 : 11]
   e-/hole pair  1 beta :  ampl =  0.598831 ( 35.9%)   [9 : 10]
   e-/hole pair  2 beta :  ampl =  0.189905 (  3.6%)   [8 : 11]
   Sum of square amplitudes: 0.71

 NATURAL OCCUPATION NUMBERS (higher than 1.0E-05)
            1           2           3           4           5           6
    1   2.0000000   2.0000000   2.0000000   2.0000000   2.0000000   2.0000000
            7           8           9          10          11          12
    1   2.0000000   2.0000000   2.0000000   2.0000000   2.0000000   2.0000000
           13          14          15          16          17          18
    1   2.0000000   2.0000000   2.0000000   2.0000000   2.0000000   2.0000000
           19          20          21          22          23          24
    1   2.0000000   2.0000000   2.0000000   2.0000000   2.0000000   1.9999993
           25          26          27          28          29          30
    1   1.9999990   1.9999988   1.9999980   1.9999978   1.9999962   1.9999962
           31          32          33          34          35          36
    1   1.9999934   1.9999933   1.9999826   1.9999798   1.9999792   1.9999765
           37          38          39          40          41          42
    1   1.9999729   1.9998077   1.9997331   1.9987597   1.9965939   1.9954122
           43          44          45          46          47          48
    1   1.9856265   1.9478584   1.9386285   1.7763563   1.5488220   1.1754438
           49          50          51          52          53          54
    1   0.9786135   0.3148966   0.2457817   0.0471719   0.0453674   0.0029558
           55          56          57          58          59          60
    1   0.0010936   0.0005259   0.0002013   0.0001571   0.0001260   0.0000592
           61          62          63          64          65
    1   0.0000400   0.0000278   0.0000248   0.0000155   0.0000112
Natural Orbitals stored in FCHK

  Amplitudes : 
  
 | HOLE  | ALPHA     | BETA      | PART  |    AMPLITUDE 
--------------------------------------------------
 |       | 111111000 | 111100000 |       |    -1.1906877167750E-01
 |       | 111111000 | 101110000 |       |     1.1815888036834E-01
 |       | 111111000 | 101101000 |       |     5.3766783179539E-01
 |  43   | 111111100 | 111100000 |       |    -1.8436961156227E-01
 |  43   | 111111000 | 111100100 |       |     1.8213760102847E-01
 |  43   | 111110100 | 111101000 |       |     3.4061439595640E-01
 |       | 111110000 | 111100000 |  55   |    -4.5087569944122E-01
 |       | 101111000 | 111100000 |  55   |     1.4502053362735E-01
 |       | 111110000 | 101101000 |  55   |    -2.8519695412190E-01
 |       | 111111000 | 101100000 |  55   |    -1.6663382289021E-01
--------------------------------------------------
*** Contributions RASCI wfn    Active:  38.87
                                 Hole:  23.29
                                 Part:  37.84

      Mulliken population analysis 
 ---------------------------------------------------
   Atom    Charge (a.u.)   Spin (a.u.)  
 ---------------------------------------------------
   1  C    0.294185       -0.000785 
   2  O   -0.239462        0.921005 
   3  C    0.201390        0.198184 
   4  C    0.201659        0.198182 
   5  C   -0.324061        0.027721 
   6  C   -0.236518        0.012287 
   7  C   -0.098520        0.096629 
   8  C   -0.088788        0.074906 
   9  C   -0.155484        0.127289 
  10  H    0.153555        0.000113 
  11  H    0.141279        0.000827 
  12  H    0.126789        0.000389 
  13  H    0.125889        0.000534 
  14  H    0.126852        0.001012 
  15  C   -0.323879        0.027723 
  16  C   -0.236313        0.012286 
  17  C   -0.089002        0.074906 
  18  C   -0.098662        0.096629 
  19  C   -0.155288        0.127290 
  20  H    0.153569        0.000112 
  21  H    0.126784        0.000389 
  22  H    0.141277        0.000827 
  23  H    0.125887        0.000534 
  24  H    0.126864        0.001012 
 ---------------------------------------------------
   Sum:    0.000000        2.000000 
 ---------------------------------------------------
 
  
 NATURAL OCCUPATION NUMBERS (higher than 1.0E-05)
            1           2           3           4           5           6
    1   2.0000000   2.0000000   2.0000000   2.0000000   2.0000000   2.0000000
            7           8           9          10          11          12
    1   2.0000000   2.0000000   2.0000000   2.0000000   2.0000000   2.0000000
           13          14          15          16          17          18
    1   2.0000000   2.0000000   2.0000000   2.0000000   2.0000000   2.0000000
           19          20          21          22          23          24
    1   2.0000000   2.0000000   2.0000000   2.0000000   2.0000000   1.9999993
           25          26          27          28          29          30
    1   1.9999990   1.9999988   1.9999980   1.9999978   1.9999962   1.9999962
           31          32          33          34          35          36
    1   1.9999934   1.9999933   1.9999826   1.9999798   1.9999792   1.9999765
           37          38          39          40          41          42
    1   1.9999729   1.9998077   1.9997331   1.9987597   1.9965939   1.9954122
           43          44          45          46          47          48
    1   1.9856265   1.9478584   1.9386285   1.7763563   1.5488220   1.1754438
           49          50          51          52          53          54
    1   0.9786135   0.3148966   0.2457817   0.0471719   0.0453674   0.0029558
           55          56          57          58          59          60
    1   0.0010936   0.0005259   0.0002013   0.0001571   0.0001260   0.0000592
           61          62          63          64          65
    1   0.0000400   0.0000278   0.0000248   0.0000155   0.0000112
  
*** Unpaired Electrons
 Yamaguchi Nd:         4.49
 Head-Gordon Nu:       3.27
 Head-Gordon Nu_nl:    3.09
  
**************************************************
 RAS-CI total energy for state   9:   -572.977820821780
  Excitation energy (eV) =  4.441997035687
  State symmetry: B     (C2       )
  <S^2>      :  2.0000
  Dipole Moment:   -0.0000 X    -0.0000 Y     1.2540 Z
  Trans. Moment:    0.0807 X    -0.0739 Y     0.0000 Z
  Strength   :  0.001302
  Natural transition orbitals ( 1 -> 9 ):
   e-/hole pair  1 alpha:  ampl =  0.247766 (  6.1%)   [9 : 10]
   e-/hole pair  2 alpha:  ampl =  0.054512 (  0.3%)   [8 : 11]
   e-/hole pair  1 beta :  ampl =  0.421354 ( 17.8%)   [9 : 10]
   e-/hole pair  2 beta :  ampl =  0.049434 (  0.2%)   [8 : 11]
   Sum of square amplitudes: 0.25

 NATURAL OCCUPATION NUMBERS (higher than 1.0E-05)
            1           2           3           4           5           6
    1   2.0000000   2.0000000   2.0000000   2.0000000   2.0000000   2.0000000
            7           8           9          10          11          12
    1   2.0000000   2.0000000   2.0000000   2.0000000   2.0000000   2.0000000
           13          14          15          16          17          18
    1   2.0000000   2.0000000   2.0000000   2.0000000   2.0000000   2.0000000
           19          20          21          22          23          24
    1   2.0000000   2.0000000   2.0000000   2.0000000   2.0000000   1.9999977
           25          26          27          28          29          30
    1   1.9999967   1.9999963   1.9999948   1.9999943   1.9999908   1.9999879
           31          32          33          34          35          36
    1   1.9999792   1.9999739   1.9999568   1.9999538   1.9999375   1.9999096
           37          38          39          40          41          42
    1   1.9998827   1.9997955   1.9988049   1.9957546   1.9953522   1.9903391
           43          44          45          46          47          48
    1   1.9716031   1.9538752   1.9088964   1.8145568   1.6290734   1.4839477
           49          50          51          52          53          54
    1   0.4973736   0.4859409   0.1695010   0.0647365   0.0329359   0.0028206
           55          56          57          58          59          60
    1   0.0024871   0.0011079   0.0005648   0.0002982   0.0002363   0.0001349
           61          62          63          64          65          66
    1   0.0000818   0.0000809   0.0000500   0.0000201   0.0000196   0.0000151
           67          68
    1   0.0000116   0.0000109
Natural Orbitals stored in FCHK

  Amplitudes : 
  
 | HOLE  | ALPHA     | BETA      | PART  |    AMPLITUDE 
--------------------------------------------------
 |       | 111111000 | 110110000 |       |     4.0927518725666E-01
 |       | 111111000 | 100111000 |       |    -1.0729630173744E-01
 |       | 111111000 | 010111000 |       |    -1.8448642662068E-01
 |       | 111110100 | 111010000 |       |     4.0643822738093E-01
 |       | 111110100 | 101110000 |       |    -2.9135661432470E-01
 |       | 111110100 | 011110000 |       |    -1.4705531830225E-01
 |       | 111110100 | 011011000 |       |    -1.4963964673042E-01
 |       | 111110100 | 001111000 |       |     1.0309413985464E-01
 |       | 111110010 | 111100000 |       |    -2.2602246792880E-01
 |       | 111110010 | 101110000 |       |     2.0126872234956E-01
 |       | 111110010 | 011110000 |       |     1.0321670100798E-01
 |       | 111101001 | 110110000 |       |     1.0151180241214E-01
 |       | 011111100 | 111010000 |       |     1.2134749808178E-01
 |  34   | 111111000 | 110111000 |       |     1.2808327017269E-01
 |  34   | 111110100 | 111110000 |       |     1.0667502235548E-01
 |  34   | 111110100 | 111011000 |       |     1.1056630744415E-01
 |       | 111110000 | 110110000 |  55   |    -2.1712967169442E-01
--------------------------------------------------
*** Contributions RASCI wfn    Active:  73.49
                                 Hole:  18.65
                                 Part:   7.85

      Mulliken population analysis 
 ---------------------------------------------------
   Atom    Charge (a.u.)   Spin (a.u.)  
 ---------------------------------------------------
   1  C    0.387324       -0.002082 
   2  O   -0.443954        0.395606 
   3  C    0.131788        0.113440 
   4  C    0.132073        0.113445 
   5  C   -0.289011        0.213623 
   6  C   -0.159247        0.068797 
   7  C   -0.070255        0.204154 
   8  C   -0.061794        0.085107 
   9  C   -0.179394        0.112819 
  10  H    0.152871        0.002227 
  11  H    0.125595        0.001055 
  12  H    0.125706        0.000111 
  13  H    0.124931        0.000858 
  14  H    0.126852        0.001054 
  15  C   -0.288825        0.213619 
  16  C   -0.159028        0.068796 
  17  C   -0.062015        0.085103 
  18  C   -0.070404        0.204148 
  19  C   -0.179190        0.112816 
  20  H    0.152886        0.002227 
  21  H    0.125699        0.000111 
  22  H    0.125597        0.001055 
  23  H    0.124929        0.000857 
  24  H    0.126864        0.001054 
 ---------------------------------------------------
   Sum:    0.000000        2.000000 
 ---------------------------------------------------
 
  
 NATURAL OCCUPATION NUMBERS (higher than 1.0E-05)
            1           2           3           4           5           6
    1   2.0000000   2.0000000   2.0000000   2.0000000   2.0000000   2.0000000
            7           8           9          10          11          12
    1   2.0000000   2.0000000   2.0000000   2.0000000   2.0000000   2.0000000
           13          14          15          16          17          18
    1   2.0000000   2.0000000   2.0000000   2.0000000   2.0000000   2.0000000
           19          20          21          22          23          24
[...]
246 A   247 A   243 B   248 A   249 A                                          
 
 Beta MOs, Restricted
 -- Doubly Occupied --           
-20.658 -11.299 -11.261 -11.261 -11.240 -11.240 -11.240 -11.240
  1 A     2 A     1 B     3 A     2 B     4 A     3 B     5 A                  
-11.239 -11.239 -11.239 -11.239 -11.237 -11.237  -1.459  -1.167
  4 B     6 A     7 A     5 B     8 A     6 B     9 A    10 A                  
 -1.156  -1.068  -1.027  -1.025  -1.020  -0.923  -0.848  -0.836
  7 B    11 A     8 B    12 A     9 B    13 A    10 B    14 A                  
 -0.825  -0.784  -0.722  -0.710  -0.674  -0.662  -0.645  -0.628
 11 B    15 A    12 B    16 A    17 A    13 B    14 B    18 A                  
 -0.608  -0.616  -0.596  -0.600  -0.526  -0.514  -0.512  -0.516
 19 A    15 B    20 A    16 B    21 A    17 B    22 A    18 B                  
 -0.496  -0.495  -0.348  -0.611  -0.387  -0.352  -0.350
 23 A    19 B    24 A    20 B    21 B    25 A    22 B                          
 -- Singly Occupied (Vacant) --  
 -0.644  -0.271
 23 B    24 B                                                                  
 -- Virtual --                   
  0.095   0.112   0.122   0.154   0.159   0.162   0.173   0.182
 26 A    27 A    25 B    28 A    26 B    27 B    29 A    28 B                  
  0.185   0.198   0.206   0.208   0.213   0.219   0.247   0.263
 30 A    29 B    31 A    30 B    32 A    31 B    33 A    32 B                  
  0.285   0.290   0.297   0.316   0.319   0.329   0.332   0.339
 34 A    33 B    35 A    36 A    34 B    37 A    35 B    36 B                  
  0.340   0.344   0.346   0.362   0.363   0.371   0.373   0.391
 38 A    37 B    39 A    38 B    40 A    39 B    41 A    40 B                  
  0.399   0.402   0.413   0.423   0.437   0.440   0.454   0.457
 42 A    43 A    44 A    41 B    42 B    45 A    46 A    43 B                  
  0.462   0.466   0.473   0.479   0.489   0.500   0.506   0.511
 47 A    44 B    48 A    45 B    46 B    49 A    50 A    47 B                  
  0.527   0.534   0.538   0.543   0.545   0.550   0.563   0.567
 48 B    51 A    49 B    52 A    50 B    53 A    51 B    54 A                  
  0.568   0.572   0.581   0.590   0.591   0.599   0.612   0.614
 52 B    55 A    56 A    57 A    53 B    54 B    58 A    55 B                  
  0.627   0.629   0.633   0.648   0.661   0.662   0.668   0.678
 56 B    59 A    60 A    57 B    58 B    61 A    59 B    62 A                  
  0.687   0.689   0.708   0.744   0.753   0.757   0.770   0.782
 60 B    63 A    64 A    61 B    62 B    63 B    65 A    66 A                  
  0.803   0.818   0.836   0.842   0.843   0.852   0.857   0.878
 67 A    64 B    65 B    68 A    66 B    67 B    69 A    68 B                  
  0.880   0.898   0.910   0.910   0.910   0.919   0.924   0.931
 70 A    71 A     0 xxx   0 xxx  69 B    72 A    70 B    73 A                  
  0.936   0.956   0.973   0.978   0.977   1.000   1.008   1.016
 71 B    74 A    72 B    75 A    73 B    74 B    76 A    75 B                  
  1.034   1.058   1.060   1.072   1.072   1.078   1.088   1.090
 77 A    78 A    76 B    79 A    77 B    80 A    81 A    78 B                  
  1.107   1.116   1.155   1.183   1.183   1.194   1.199   1.214
 79 B    82 A    80 B    83 A    81 B    84 A    82 B    85 A                  
  1.223   1.236   1.252   1.271   1.298   1.312   1.327   1.342
 83 B    84 B    86 A    87 A    85 B    86 B    88 A    89 A                  
  1.345   1.355   1.403   1.407   1.424   1.424   1.431   1.436
 87 B    90 A    88 B    91 A    89 B    92 A    90 B    93 A                  
  1.451   1.451   1.477   1.483   1.494   1.508   1.509   1.515
 91 B    94 A    95 A    92 B    93 B    94 B    96 A    97 A                  
  1.527   1.538   1.568   1.575   1.588   1.622   1.622   1.640
 95 B    98 A    96 B    99 A    97 B    98 B   100 A   101 A                  
  1.670   1.683   1.698   1.701   1.723   1.730   1.731   1.734
102 A    99 B   103 A   100 B   104 A   101 B   102 B   105 A                  
  1.785   1.785   1.790   1.804   1.809   1.806   1.821   1.834
106 A   103 B   107 A   104 B   105 B   108 A   109 A   106 B                  
  1.836   1.859   1.867   1.894   1.899   1.907   1.928   1.935
110 A   107 B   111 A   108 B   112 A   109 B   113 A   110 B                  
  1.963   1.974   1.988   1.988   1.991   2.000   2.001   2.016
114 A   115 A   111 B   116 A   112 B   113 B   117 A   114 B                  
  2.020   2.045   2.072   2.077   2.122   2.133   2.141   2.156
118 A   119 A   115 B   116 B   120 A   117 B   121 A   122 A                  
  2.155   2.175   2.195   2.199   2.228   2.269   2.290   2.303
118 B   119 B   120 B   123 A   124 A   121 B   125 A   126 A                  
  2.307   2.313   2.337   2.349   2.368   2.384   2.403   2.418
122 B   123 B   127 A   124 B   128 A   125 B   129 A   126 B                  
  2.422   2.436   2.455   2.477   2.478   2.489   2.501   2.511
130 A   131 A   127 B   128 B   132 A   133 A   129 B   134 A                  
  2.516   2.550   2.556   2.578   2.587   2.625   2.644   2.683
130 B   135 A   131 B   132 B   136 A   133 B   137 A   134 B                  
  2.693   2.706   2.742   2.759   2.771   2.784   2.787   2.812
138 A   135 B   139 A   136 B   140 A   141 A   137 B   138 B                  
  2.841   2.869   2.875   2.878   2.902   2.908   2.923   2.926
142 A   139 B   143 A   140 B   144 A   141 B   145 A   142 B                  
  2.943   2.957   2.960   2.961   2.979   2.977   2.992   2.994
143 B   146 A   144 B   147 A   148 A   145 B   146 B   149 A                  
  3.003   3.005   3.011   3.025   3.032   3.045   3.053   3.058
147 B   150 A   151 A   148 B   149 B   152 A   150 B   153 A                  
  3.083   3.084   3.090   3.098   3.108   3.114   3.126   3.130
151 B   154 A   155 A   152 B   156 A   153 B   157 A   154 B                  
  3.139   3.153   3.160   3.165   3.170   3.171   3.192   3.202
158 A   155 B   159 A   156 B   160 A   157 B   161 A   158 B                  
  3.208   3.228   3.232   3.238   3.292   3.292   3.307   3.326
159 B   162 A   163 A   160 B   164 A   161 B   165 A   162 B                  
  3.337   3.348   3.361   3.370   3.385   3.402   3.413   3.415
166 A   163 B   167 A   164 B   168 A   165 B   166 B   169 A                  
  3.432   3.438   3.456   3.460   3.463   3.473   3.483   3.483
170 A   167 B   171 A   168 B   169 B   172 A   173 A   174 A                  
  3.491   3.512   3.517   3.521   3.530   3.541   3.545   3.567
170 B   171 B   172 B   175 A   176 A   177 A   173 B   178 A                  
  3.582   3.598   3.607   3.619   3.623   3.635   3.638   3.654
174 B   179 A   175 B   176 B   180 A   181 A   177 B   182 A                  
  3.669   3.686   3.692   3.694   3.703   3.707   3.716   3.724
178 B   179 B   183 A   180 B   181 B   184 A   182 B   185 A                  
  3.736   3.748   3.760   3.786   3.788   3.796   3.799   3.805
183 B   186 A   184 B   187 A   185 B   188 A   186 B   189 A                  
  3.813   3.817   3.830   3.847   3.859   3.871   3.879   3.886
190 A   187 B   191 A   188 B   192 A   193 A   189 B   190 B                  
  3.900   3.908   3.909   3.947   3.991   3.998   4.020   4.026
194 A   191 B   195 A   192 B   196 A   197 A   198 A   193 B                  
  4.041   4.070   4.075   4.092   4.118   4.149   4.173   4.199
194 B   195 B   199 A   196 B   200 A   201 A   197 B   198 B                  
  4.238   4.259   4.285   4.300   4.309   4.312   4.338   4.347
202 A   199 B   200 B   203 A   201 B   204 A   202 B   205 A                  
  4.376   4.395   4.425   4.457   4.472   4.475   4.506   4.508
203 B   206 A   204 B   207 A   205 B   208 A   206 B   209 A                  
  4.536   4.540   4.557   4.575   4.576   4.581   4.588   4.595
207 B   210 A   208 B   211 A   209 B   212 A   213 A   210 B                  
  4.603   4.629   4.636   4.653   4.671   4.688   4.701   4.740
214 A   215 A   211 B   212 B   213 B   216 A   217 A   214 B                  
  4.784   4.790   4.868   4.895   4.902   4.991   5.008   5.010
215 B   218 A   219 A   220 A   216 B   217 B   221 A   218 B                  
  5.018   5.044   5.058   5.071   5.111   5.136   5.172   5.247
222 A   223 A   219 B   220 B   224 A   221 B   225 A   222 B                  
  5.262   5.276   5.295   5.311   5.395   5.454   5.470   5.532
226 A   227 A   223 B   228 A   224 B   225 B   229 A   226 B                  
  5.562   5.585   5.586   5.618   5.634   5.721   5.764   5.768
227 B   230 A   228 B   231 A   229 B   232 A   230 B   233 A                  
  5.834   5.832   5.862   5.864   6.002   6.055   6.055   6.329
231 B   234 A   232 B   235 A   236 A   237 A   233 B   234 B                  
  6.594   6.800   6.790   6.966   7.243   7.426   7.461  23.100
238 A   235 B   239 A   240 A   236 B   241 A   237 B   242 A                  
 23.323  23.676  23.684  23.700  23.706  23.818  23.847  23.885
238 B   243 A   239 B   244 A   240 B   241 B   245 A   242 B                  
 23.939  24.181  24.248  24.494  45.382
246 A   247 A   243 B   248 A   249 A                                          
 --------------------------------------------------------------
 
          Ground-State Mulliken Net Atomic Charges

     Atom                 Charge (a.u.)
  ----------------------------------------
      1 C                     0.286234
      2 O                    -0.221444
      3 C                     0.180091
      4 C                     0.180361
      5 C                    -0.330927
      6 C                    -0.230321
      7 C                    -0.105450
      8 C                    -0.078732
      9 C                    -0.146293
     10 H                     0.154250
     11 H                     0.143275
     12 H                     0.127302
     13 H                     0.126434
     14 H                     0.127718
     15 C                    -0.330744
     16 C                    -0.230114
     17 C                    -0.078946
     18 C                    -0.105593
     19 C                    -0.146097
     20 H                     0.154265
     21 H                     0.127297
     22 H                     0.143272
     23 H                     0.126432
     24 H                     0.127730
  ----------------------------------------
  Sum of atomic charges =     0.000000

  Do orbital-by-orbital Lowdin population analysis
 
 
 Partial Mulliken analysis unavailable for frozen orbitals
 
 -----------------------------------------------------------------
                    Cartesian Multipole Moments
 -----------------------------------------------------------------
    Charge (ESU x 10^10)
                 0.0000
    Dipole Moment (Debye)
         X       0.0000      Y       0.0000      Z      -1.2403
       Tot       1.2403
    Quadrupole Moments (Debye-Ang)
        XX     -70.5259     XY      -2.3255     YY     -86.4440
        XZ      -0.0000     YZ      -0.0000     ZZ     -78.6484
    Octopole Moments (Debye-Ang^2)
       XXX       0.0000    XXY       0.0000    XYY      -0.0000
       YYY       0.0000    XXZ      -1.6719    XYZ     -16.8560
       YYZ       3.7668    XZZ       0.0000    YZZ       0.0000
       ZZZ      -5.0451
    Hexadecapole Moments (Debye-Ang^3)
      XXXX   -3099.2427   XXXY     -65.8070   XXYY    -666.2262
      XYYY      -4.3101   YYYY    -208.5015   XXXZ      -0.0001
      XXYZ      -0.0000   XYYZ      -0.0000   YYYZ       0.0000
      XXZZ    -643.5833   XYZZ       8.0175   YYZZ    -151.0575
      XZZZ      -0.0000   YZZZ      -0.0000   ZZZZ    -736.3449
 -----------------------------------------------------------------
 Mayer SCF Bond Order, atomic valence on the diagonal:

            1           2           3           4           5           6
    1   1.7547322   0.1597129   0.2293561   0.0697691   0.0137770   0.0524818
    2   0.1597129   1.1032004  -0.0302247  -0.0302050   0.0072896   0.0197268
    3   0.2293561  -0.0302247   3.6750207  -0.0719751   0.0017499   0.0072078
    4   0.0697691  -0.0302050  -0.0719751   3.6750544   1.3576825   1.3822919
    5   0.0137770   0.0072896   0.0017499   1.3576825   4.0190813   0.0522992
    6   0.0524818   0.0197268   0.0072078   1.3822919   0.0522992   3.9783969
    7   0.0140114  -0.0000036  -0.0007995  -0.0273988   0.0634408   1.4661570
    8   0.0245196   0.0011518   0.0024988  -0.0472869   1.4845714   0.0610399
    9   0.0155069   0.0034278   0.0006780   0.0465061   0.0619042   0.0429067
   10   0.0054736   0.0001352  -0.0003649  -0.0112309   0.9761987   0.0058155
   11   0.0021392   0.0081445  -0.0000722  -0.0031697   0.0062084   0.9701662
   12   0.0016535   0.0001087   0.0000549   0.0056781  -0.0123491   0.0006222
   13  -0.0026128   0.0000569   0.0001783   0.0059075   0.0005238  -0.0121027
   14  -0.0002190   0.0000368   0.0000302   0.0006196   0.0051993   0.0053833
   15   0.0343801   0.0072920   1.3576519   0.0017826   0.0230842   0.0081512
   16   0.0339277   0.0197318   1.3822445   0.0072242   0.0081451   0.0030867
   17  -0.0460287   0.0011506  -0.0471808   0.0024798  -0.0025486  -0.0021342
   18  -0.0174215  -0.0000057  -0.0272935  -0.0008142  -0.0013149   0.0004558
   19   0.0100997   0.0034290   0.0464784   0.0006921   0.0027500   0.0021291
   20  -0.0076019   0.0001351  -0.0112141  -0.0003653  -0.0002651   0.0000089
   21   0.0060059   0.0001089   0.0056798   0.0000544   0.0000174   0.0000832
   22  -0.0041873   0.0081446  -0.0031791  -0.0000703   0.0002057   0.0000441
   23   0.0026654   0.0000569   0.0059091   0.0001788  -0.0000187   0.0000282
   24   0.0000247   0.0000368   0.0006164   0.0000312   0.0000947   0.0000635
            7           8           9          10          11          12
    1   0.0140114   0.0245196   0.0155069   0.0054736   0.0021392   0.0016535
    2  -0.0000036   0.0011518   0.0034278   0.0001352   0.0081445   0.0001087
    3  -0.0007995   0.0024988   0.0006780  -0.0003649  -0.0000722   0.0000549
    4  -0.0273988  -0.0472869   0.0465061  -0.0112309  -0.0031697   0.0056781
    5   0.0634408   1.4845714   0.0619042   0.9761987   0.0062084  -0.0123491
    6   1.4661570   0.0610399   0.0429067   0.0058155   0.9701662   0.0006222
    7   3.9286879   0.0200978   1.4344537   0.0006291  -0.0118716   0.0057307
    8   0.0200978   3.9007581   1.4073301  -0.0116554   0.0006091   0.9793611
    9   1.4344537   1.4073301   3.9821951   0.0065026   0.0061336  -0.0100988
   10   0.0006291  -0.0116554   0.0065026   0.9677970   0.0007044  -0.0001531
   11  -0.0118716   0.0006091   0.0061336   0.0007044   0.9755160   0.0000044
   12   0.0057307   0.9793611  -0.0100988  -0.0001531   0.0000044   0.9704728
   13   0.9804872   0.0060096  -0.0102763   0.0000099  -0.0001077   0.0006701
   14  -0.0101525  -0.0105820   0.9795625   0.0005336   0.0005739  -0.0001221
   15  -0.0013190  -0.0025483   0.0027524  -0.0002638   0.0002057   0.0000172
   16   0.0004589  -0.0021251   0.0021242   0.0000102   0.0000444   0.0000831
   17   0.0008190   0.0036559  -0.0010719   0.0002083  -0.0000583   0.0000098
   18  -0.0001275   0.0008153   0.0002256   0.0004132   0.0000199  -0.0000395
   19   0.0002236  -0.0010697   0.0015285   0.0004142   0.0000056   0.0000379
   20   0.0004131   0.0002104   0.0004146  -0.0035408   0.0000148   0.0000062
   21  -0.0000396   0.0000096   0.0000380   0.0000062   0.0000053   0.0000014
   22   0.0000200  -0.0000581   0.0000056   0.0000147   0.0000020   0.0000053
   23   0.0000087   0.0000339   0.0000041   0.0000029   0.0000025  -0.0000008
   24   0.0000058  -0.0000711   0.0000369   0.0000102   0.0000026  -0.0000004
           13          14          15          16          17          18
    1  -0.0026128  -0.0002190   0.0343801   0.0339277  -0.0460287  -0.0174215
    2   0.0000569   0.0000368   0.0072920   0.0197318   0.0011506  -0.0000057
    3   0.0001783   0.0000302   1.3576519   1.3822445  -0.0471808  -0.0272935
    4   0.0059075   0.0006196   0.0017826   0.0072242   0.0024798  -0.0008142
    5   0.0005238   0.0051993   0.0230842   0.0081451  -0.0025486  -0.0013149
    6  -0.0121027   0.0053833   0.0081512   0.0030867  -0.0021342   0.0004558
    7   0.9804872  -0.0101525  -0.0013190   0.0004589   0.0008190  -0.0001275
    8   0.0060096  -0.0105820  -0.0025483  -0.0021251   0.0036559   0.0008153
    9  -0.0102763   0.9795625   0.0027524   0.0021242  -0.0010719   0.0002256
   10   0.0000099   0.0005336  -0.0002638   0.0000102   0.0002083   0.0004132
   11  -0.0001077   0.0005739   0.0002057   0.0000444  -0.0000583   0.0000199
   12   0.0006701  -0.0001221   0.0000172   0.0000831   0.0000098  -0.0000395
   13   0.9719989  -0.0001334  -0.0000185   0.0000283   0.0000337   0.0000087
   14  -0.0001334   0.9715138   0.0000965   0.0000638  -0.0000722   0.0000057
   15  -0.0000185   0.0000965   4.0189015   0.0521831   1.4846376   0.0634515
   16   0.0000283   0.0000638   0.0521831   3.9783333   0.0610688   1.4662333
   17   0.0000337  -0.0000722   1.4846376   0.0610688   3.9010926   0.0201550
   18   0.0000087   0.0000057   0.0634515   1.4662333   0.0201550   3.9289643
   19   0.0000042   0.0000373   0.0617941   0.0428142   1.4074341   1.4345411
   20   0.0000029   0.0000103   0.9761646   0.0058094  -0.0116308   0.0006303
   21  -0.0000008  -0.0000005  -0.0123460   0.0006236   0.9793604   0.0057318
   22   0.0000025   0.0000026   0.0062085   0.9701667   0.0006092  -0.0118726
   23   0.0000010  -0.0000001   0.0005232  -0.0120952   0.0060100   0.9804752
   24  -0.0000001   0.0000013   0.0051994   0.0053822  -0.0105684  -0.0101391
           19          20          21          22          23          24
    1   0.0100997  -0.0076019   0.0060059  -0.0041873   0.0026654   0.0000247
    2   0.0034290   0.0001351   0.0001089   0.0081446   0.0000569   0.0000368
    3   0.0464784  -0.0112141   0.0056798  -0.0031791   0.0059091   0.0006164
    4   0.0006921  -0.0003653   0.0000544  -0.0000703   0.0001788   0.0000312
    5   0.0027500  -0.0002651   0.0000174   0.0002057  -0.0000187   0.0000947
    6   0.0021291   0.0000089   0.0000832   0.0000441   0.0000282   0.0000635
    7   0.0002236   0.0004131  -0.0000396   0.0000200   0.0000087   0.0000058
    8  -0.0010697   0.0002104   0.0000096  -0.0000581   0.0000339  -0.0000711
    9   0.0015285   0.0004146   0.0000380   0.0000056   0.0000041   0.0000369
   10   0.0004142  -0.0035408   0.0000062   0.0000147   0.0000029   0.0000102
   11   0.0000056   0.0000148   0.0000053   0.0000020   0.0000025   0.0000026
   12   0.0000379   0.0000062   0.0000014   0.0000053  -0.0000008  -0.0000004
   13   0.0000042   0.0000029  -0.0000008   0.0000025   0.0000010  -0.0000001
   14   0.0000373   0.0000103  -0.0000005   0.0000026  -0.0000001   0.0000013
   15   0.0617941   0.9761646  -0.0123460   0.0062085   0.0005232   0.0051994
   16   0.0428142   0.0058094   0.0006236   0.9701667  -0.0120952   0.0053822
   17   1.4074341  -0.0116308   0.9793604   0.0006092   0.0060100  -0.0105684
   18   1.4345411   0.0006303   0.0057318  -0.0118726   0.9804752  -0.0101391
   19   3.9821869   0.0064970  -0.0100983   0.0061331  -0.0102683   0.9795256
   20   0.0064970   0.9677880  -0.0001519   0.0007045   0.0000098   0.0005344
   21  -0.0100983  -0.0001519   0.9704792   0.0000045   0.0006702  -0.0001220
   22   0.0061331   0.0007045   0.0000045   0.9755137  -0.0001077   0.0005743
   23  -0.0102683   0.0000098   0.0006702  -0.0001077   0.9720043  -0.0001328
   24   0.9795256   0.0005344  -0.0001220   0.0005743  -0.0001328   0.9715020


 Total job time:  88324.70s(wall), 49184.61s(cpu) 
 Wed Oct 25 11:06:39 2023

        *************************************************************
        *                                                           *
        *  Thank you very much for using Q-Chem.  Have a nice day.  *
        *                                                           *
        *************************************************************


