                  Welcome to Q-Chem
     A Quantum Leap Into The Future Of Chemistry


 Q-Chem 6.0 (devel), Q-Chem, Inc., Pleasanton, CA (2022)

 E. Epifanovsky,  A. T. B. Gilbert,  Xintian Feng,  Joonho Lee,  Yuezhi Mao,  
 N. Mardirossian,  P. Pokhilko,  A. White,  M. Wormit,  M. P. Coons,  
 A. L. Dempwolff,  Zhengting Gan,  D. Hait,  P. R. Horn,  L. D. Jacobson,  
 I. Kaliman,  J. Kussmann,  A. W. Lange,  Ka Un Lao,  D. S. Levine,  Jie Liu,  
 S. C. McKenzie,  A. F. Morrison,  K. Nanda,  F. Plasser,  D. R. Rehn,  
 M. L. Vidal,  Zhi-Qiang You,  Ying Zhu,  B. Alam,  B. Albrecht,  
 A. Aldossary,  E. Alguire,  J. H. Andersen,  V. Athavale,  D. Barton,  
 K. Begam,  A. Behn,  N. Bellonzi,  Y. A. Bernard,  E. J. Berquist,  
 H. Burton,  A. Carreras,  K. Carter-Fenk,  Romit Chakraborty,  
 Chandrima Chakravarty,  Junhan Chen,  A. D. Chien,  K. D. Closser,  
 V. Cofer-Shabica,  L. Cunha,  S. Dasgupta,  Jia Deng,  M. de Wergifosse,  
 M. Diedenhofen,  Hainam Do,  S. Ehlert,  Po-Tung Fang,  S. Fatehi,  
 Qingguo Feng,  T. Friedhoff,  B. Ganoe,  J. Gayvert,  Qinghui Ge,  
 G. Gidofalvi,  M. Goldey,  J. Gomes,  C. Gonzalez-Espinoza,  S. Gulania,  
 A. Gunina,  J. A. Gyamfi,  M. W. D. Hanson-Heine,  P. H. P. Harbach,  
 A. W. Hauser,  M. F. Herbst,  M. Hernandez Vera,  M. Hodecker,  
 Z. C. Holden,  S. Houck,  Xunkun Huang,  Kerwin Hui,  B. C. Huynh,  
 K. Ikeda,  M. Ivanov,  Hyunjun Ji,  Zuxin Jin,  Hanjie Jiang,  B. Kaduk,  
 S. Kaehler,  R. Kang,  K. Khistyaev,  Jaehoon Kim,  Yongbin Kim,  
 P. Klunzinger,  Z. Koczor-Benda,  Joong Hoon Koh,  D. Kosenkov,  
 Saikiran Kotaru,  L. Koulias,  T. Kowalczyk,  C. M. Krauter,  K. Kue,  
 A. Kunitsa,  T. Kus,  A. Landau,  K. V. Lawler,  D. Lefrancois,  S. Lehtola,  
 Rain Li,  Shaozhi Li,  Yi-Pei Li,  Jiashu Liang,  M. Liebenthal,  
 Hung-Hsuan Lin,  You-Sheng Lin,  Fenglai Liu,  Kuan-Yu Liu,  
 M. Loipersberger,  A. Luenser,  C. Malbon,  A. Manjanath,  P. Manohar,  
 E. Mansoor,  S. F. Manzer,  Shan-Ping Mao,  A. V. Marenich,  T. Markovich,  
 S. Mason,  F. Matz,  S. A. Maurer,  P. F. McLaughlin,  M. F. S. J. Menger,  
 J.-M. Mewes,  S. A. Mewes,  P. Morgante,  Mohammad Mostafanejad,  
 J. W. Mullinax,  K. J. Oosterbaan,  G. Paran,  V. Parravicini,  
 Alexander C. Paul,  Suranjan K. Paul,  F. Pavosevic,  Zheng Pei,  S. Prager,  
 E. I. Proynov,  E. Ramos,  B. Rana,  A. E. Rask,  A. Rettig,  R. M. Richard,  
 F. Rob,  E. Rossomme,  T. Scheele,  M. Scheurer,  M. Schneider,  
 P. E. Schneider,  N. Sergueev,  S. M. Sharada,  Hengyuan Shen,  
 W. Skomorowski,  D. W. Small,  C. J. Stein,  Yingli Su,  Yu-Chuan Su,  
 E. J. Sundstrom,  Zhen Tao,  J. Thirman,  Hung-Yi Tsai,  T. Tsuchimochi,  
 N. M. Tubman,  C. Utku,  S. P. Veccham,  O. Vydrov,  J. Wenzel,  
 Jonathan Wong,  J. Witte,  A. Yamada,  Chou-Hsun Yang,  Kun Yao,  
 S. Yeganeh,  S. R. Yost,  A. Zech,  F. Zeller,  Igor Ying Zhang,  
 Xing Zhang,  Yu Zhang,  D. Zuev,  A. Aspuru-Guzik,  A. T. Bell,  
 N. A. Besley,  K. B. Bravaya,  B. R. Brooks,  D. Casanova,  Jeng-Da Chai,  
 Hsing-Ta Chen,  S. Coriani,  C. J. Cramer,  A. E. DePrince, III,  
 R. A. DiStasio Jr.,  A. Dreuw,  B. D. Dunietz,  T. R. Furlani,  
 W. A. Goddard III,  S. Grimme,  S. Hammes-Schiffer,  T. Head-Gordon,  
 W. J. Hehre,  Chao-Ping Hsu,  T.-C. Jagau,  Yousung Jung,  A. Klamt,  
 Jing Kong,  D. S. Lambrecht,  Xiangyuan Li,  WanZhen Liang,  N. J. Mayhall,  
 C. W. McCurdy,  J. B. Neaton,  T. Neudecker,  C. Ochsenfeld,  
 J. A. Parkhill,  R. Peverati,  V. A. Rassolov,  Haisheng Ren,  Yihan Shao,  
 L. V. Slipchenko,  R. P. Steele,  J. E. Subotnik,  A. J. W. Thom,  
 A. Tkatchenko,  D. G. Truhlar,  T. Van Voorhis,  Fan Wang,  
 T. A. Wesolowski,  K. B. Whaley,  H. L. Woodcock III,  P. M. Zimmerman,  
 S. Faraji,  P. M. W. Gill,  M. Head-Gordon,  J. M. Herbert,  A. I. Krylov

 Contributors to earlier versions of Q-Chem not listed above: 
 R. D. Adamson,  B. Austin,  R. Baer,  J. Baker,  G. J. O. Beran,  
 K. Brandhorst,  S. T. Brown,  E. F. C. Byrd,  Arup K. Chakraborty,  
 G. K. L. Chan,  Chun-Min Chang,  Yunqing Chen,  C.-L. Cheng,  
 Siu Hung Chien,  D. M. Chipman,  D. L. Crittenden,  H. Dachsel,  
 R. J. Doerksen,  A. D. Dutoi,  R. G. Edgar,  J. Fosso-Tande,  
 L. Fusti-Molnar,  D. Ghosh,  A. Ghysels,  A. Golubeva-Zadorozhnaya,  
 J. Gonthier,  M. S. Gordon,  S. R. Gwaltney,  G. Hawkins,  J. E. Herr,  
 A. Heyden,  S. Hirata,  E. G. Hohenstein,  G. Kedziora,  F. J. Keil,  
 C. Kelley,  Jihan Kim,  R. A. King,  R. Z. Khaliullin,  P. P. Korambath,  
 W. Kurlancheek,  A. Laurent,  A. M. Lee,  M. S. Lee,  S. V. Levchenko,  
 Ching Yeh Lin,  D. Liotard,  E. Livshits,  R. C. Lochan,  I. Lotan,  
 L. A. Martinez-Martinez,  P. E. Maslen,  N. Nair,  D. P. O'Neill,  
 D. Neuhauser,  E. Neuscamman,  C. M. Oana,  R. Olivares-Amaya,  R. Olson,  
 T. M. Perrine,  B. Peters,  P. A. Pieniazek,  A. Prociuk,  Y. M. Rhee,  
 J. Ritchie,  M. A. Rohrdanz,  E. Rosta,  N. J. Russ,  H. F. Schaefer III,  
 M. W. Schmidt,  N. E. Schultz,  S. Sharma,  N. Shenvi,  C. D. Sherrill,  
 A. C. Simmonett,  A. Sodt,  T. Stein,  D. Stuck,  K. S. Thanthiriwatte,  
 V. Vanovschi,  L. Vogt,  Tao Wang,  A. Warshel,  M. A. Watson,  
 C. F. Williams,  Q. Wu,  X. Xu,  Jun Yang,  W. Zhang,  Yan Zhao

   Please cite Q-Chem as follows:
  "Software for the frontiers of quantum chemistry:
   An overview of developments in the Q-Chem 5 package"
   J. Chem. Phys. 155, 084801 (2021)
   https://doi.org/10.1063/5.0055522 (open access)

 Q-Chem 6.0.1 for Intel X86 EM64T Linux

 Parts of Q-Chem use Armadillo 9.900.5 (Nocturnal Misbehaviour).
 http://arma.sourceforge.net/

 Q-Chem begins on Thu Sep  7 12:37:37 2023  

 Host: atlas-122
0

     Scratch files written to ./qchem36319//
 Processing $rem in /scratch/abel/SOFTWARE/qchem/config/preferences:
 Processing $rem in /dipc/acebg/.qchemrc:

 Checking the input file for inconsistencies... 	...done.

--------------------------------------------------------------
User input:
--------------------------------------------------------------
$comment
 RAS-SF CALCULATION
$end

$molecule
 READ benzophenone.molecule
$end

$rem
!**CALCULATION TYPE***     
JOBTYPE            sp    
EXCHANGE           HF
CORRELATION        RASCI    !RASCI=Casanova; RASCI2=Zimmerman
BASIS              def2-TZVP
BASIS2             STO-3G

!***SCF REFERENCE***
INPUT_BOHR          TRUE
!SKIP_SCFMAN        FALSE
UNRESTRICTED       FALSE
!SCF_GUESS          core
!SCF_GUESS_MIX      FALSE
!SCF_GUESS_ALWAYS   FALSE
MAX_SCF_CYCLES     999
!SCF_CONVERGENCE    8
SCF_ALGORITHM      DIIS_GDM !DIIS,DM,DIIS_DM,GDM,DIIS_GDM,GD

!SYMMETRY           TRUE   !use of symmetry for calculating integrals
!SYM_IGNORE         FALSE  !turn off using symmetry
!SYM_TOL            5      !tolerance for determining point group
!USE_ABELIAN_SUBGROUP      !define to use abelian group

!THRESH             14
SCF_FINAL_PRINT     1 !0,1,2,3

!****RAS-SF****
RAS_ROOTS          10       !number of RAS-CI roots to be computed
SET_ITER           100     !number of iterations in RASCI
RAS_ELEC           14       !number of electrons in RAS2
RAS_ELEC_ALPHA     8       !spin-α electrons in RAS2 
RAS_ELEC_BETA      6       !spin-β electrons in RAS2

RAS_ACT            11       !number of orbitals in RAS2 
RAS_ACT_ORB [40,41,44,45,46,47,48,49,50,51,52]  !user-selected RAS2 orbitals
RAS_OCC            41       !number of orbitals in RAS1
N_FROZEN_CORE      21     !Number of frozen core orbitals
N_FROZEN_VIRTUAL   422      !Number of frozen virtual orbitals

RAS_DO_HOLE        TRUE   !presence of hole excitations in RAS-CI wave function
RAS_DO_PART        TRUE   !presence of particle excitations
!RAS_AMPL_PRINT     10     !threshold (×10 2 ) for the CI amplitudes

!RAS_GUESS_CS       0      !number of closed shell guess conﬁgurations
!RAS_SPIN_MULT      0      !spin multiplicity. Only for Ms = 0 
!RAS_SRDFT          FALSE  !short-range density functional RAS-CI
!RAS_NFRAG          0     !fragments of excitation analysis in RASCI

RAS_PRINT          2      !level of information
RAS_NATORB         TRUE   !computation of the natural orbital occupancies
!RAS_NATORB_STATE  0      !Saves NO of i RAS computed state in .fchk ﬁle
!RAS_FOD            TRUE

!****RAS-SOC****
CALC_SOC           TRUE   !calculate SOC for EOM-CC, RAS-CI, ADC, TDDFT/TDA and TDDFT
!RAS_SOC_2E        TRUE   !two-electron mean-ﬁeld contribution, default=true
RAS_SOC_SYM_DENS   TRUE   !averaging of α and β densities

!****MEMORY****
MEM_TOTAL          12000 !Default 2000 MB
MEM_STATIC         3000  !Default 64 MB

!**Molecular Properties and Analysis **                                                                                          
POP_MULLIKEN       TRUE   !Run Mulliken population analysis
LOWDIN_POPULATION  TRUE   !Run Löwdin population analysis
GUI                2       !Checkpoints generation
STATE_ANALYSIS     TRUE

!**Wave function analysis of RAS-CI states: MOLDEN**
!PLOTS = 0     ! Note: This can be omitted, default is 0
!NTO_PAIRS = 2 ! Note: This can be omitted, default is 2
!GUI 0
!MOLDEN_FORMAT      TRUE
!PRINT_ORBITALS     15

!**Wave function analysis of RAS-CI state: CUBE**
!NTO_PAIRS = 2 ! Note: This can be omitted, default is 2
!PLOTS = 1
!GUI 0

!**SR-DFT**
!RAS_SRDFT           TRUE !Perform short-range density functional RAS-CI
!RAS_SRDFT_EXC       0 !EX functional. 0=HF. 
!RAS_SRDFT_ONLY_COR  TRUE !No use of EXC functional
!RAS_SRDFT_COR       srPBE !short-range correlation functional
!ras_srdft_0         TRUE !true: no iteration (one-shot); false: iteration
!RAS_OMEGA           400 !Coulomb range-separation parameter. def=400
!RAS_SRDFT_DAMP     0.5 !dumping factor. def=0.5
$end

!$plots
!   grid_points 100 100 100
!   grid_range  (-10,10) (-10,10) (-10,10)
!$end

--------------------------------------------------------------
 ----------------------------------------------------------------
             Standard Nuclear Orientation (Bohr)
    I     Atom           X                Y                Z
 ----------------------------------------------------------------
    1      C       0.0000000000    -0.0000000000     1.7616000772
    2      O       0.0000000000    -0.0000000000     4.2626453788
    3      C      -2.4515146503    -0.0331342717     0.5854026033
    4      C       2.4515146503     0.0331342717     0.5854026033
    5      C       2.8430013288     1.0880866231    -1.8463666677
    6      C       4.5970400963    -0.8671930082     1.9264083375
    7      C       6.9748613791    -0.7928839619     0.8403562343
    8      C       5.2262074578     1.1225172668    -2.9109015756
    9      C       7.3157580598     0.1834271136    -1.5850434514
   10      H       1.2649900922     1.9042492020    -2.8578536668
   11      H       4.3392930822    -1.6659511958     3.7896568207
   12      H       5.4817259580     1.9198549006    -4.7799236178
   13      H       8.5807201718    -1.5192143035     1.8831820792
   14      H       9.1788078092     0.2325165625    -2.4295762444
   15      C      -2.8430013288    -1.0880866231    -1.8463666677
   16      C      -4.5970400963     0.8671930082     1.9264083375
   17      C      -5.2262074578    -1.1225172668    -2.9109015756
   18      C      -6.9748613791     0.7928839619     0.8403562343
   19      C      -7.3157580598    -0.1834271136    -1.5850434514
   20      H      -1.2649900922    -1.9042492020    -2.8578536668
   21      H      -5.4817259580    -1.9198549006    -4.7799236178
   22      H      -4.3392930822     1.6659511958     3.7896568207
   23      H      -8.5807201718     1.5192143035     1.8831820792
   24      H      -9.1788078092    -0.2325165625    -2.4295762444
 ----------------------------------------------------------------
 Molecular Point Group                 C2    NOp =  2
 Largest Abelian Subgroup              C2    NOp =  2
 Nuclear Repulsion Energy =         772.43069410 hartrees
 There are       49 alpha and       47 beta electrons
 Requested basis set is def2-TZVP
 There are 194 shells and 494 basis functions

 Total QAlloc Memory Limit  12000 MB
 Mega-Array Size      2933 MB
 MEM_STATIC part      3000 MB

 A cutoff of  1.0D-09 yielded  13678 shell pairs
 There are     87354 function pairs (    112510 Cartesian)
 Smallest overlap matrix eigenvalue = 8.18E-06

 Q-Chem warning in module stvman/mkSTV.C, line 313:

 Overlap eigenvalue is smaller than square root of threshold
 Use THRESH >= 12 to get rid of this warning


 Scale SEOQF with 1.000000e-01/1.000000e+00/1.000000e-01

 Standard Electronic Orientation quadrupole field applied
 Nucleus-field energy     =     0.0000000231 hartrees
 Requested basis set is STO-3G
 There are 38 shells and 80 basis functions
 A cutoff of  1.0D-09 yielded    531 shell pairs
 There are      2742 function pairs
 Smallest overlap matrix eigenvalue = 1.73E-01
 Constructing guess Fock matrix from core Hamiltonian
 Applying Wolfsberg-Helmholtz approximation
 A restricted Hartree-Fock SCF calculation will be
 performed using Geometric Direct Minimization
 SCF converges when RMS gradient is below 1.0E-04
 ---------------------------------------
  Cycle       Energy        RMS Gradient
 ---------------------------------------
    1    -563.5189813627      3.78E-01 Descent step
    2    -564.1073352384      2.94E-01 Descent step
    3    -564.5762614188      2.35E-01 Descent step
    4    -564.9424222796      3.10E-01 Descent step
    5    -565.2385720744      4.42E-01 Descent step
    6    -565.5186594576      2.72E-01 Descent step
    7    -565.7068111177      1.77E-01 Descent step
    8    -565.8063347325      7.75E-02 Dog-leg BFGS step
    9    -565.8197166914      7.27E-02 Normal BFGS step
   10    -565.8079560722      8.11E-02 Line search: overstep
   11    -565.8300208096      4.05E-02 Descent step
   12    -565.8348600491      3.54E-02 Normal BFGS step
   13    -565.8355378695      1.28E-02 Normal BFGS step
   14    -565.8358576558      4.09E-03 Normal BFGS step
   15    -565.8359171123      2.92E-03 Normal BFGS step
   16    -565.8359561849      1.86E-03 Normal BFGS step
   17    -565.8359781573      1.30E-03 Normal BFGS step
   18    -565.8359889881      1.08E-03 Normal BFGS step
   19    -565.8359931603      7.13E-04 Normal BFGS step
   20    -565.8359947151      3.36E-04 Normal BFGS step
   21    -565.8359951645      1.96E-04 Normal BFGS step
   22    -565.8359952311      9.64E-05 Convergence criterion met
 ---------------------------------------
 One-Electron    Energy = -2305.4763240232
 Total Coulomb   Energy =  1046.6215714433
 Alpha Exchange  Energy =   -40.3563193634
 Beta  Exchange  Energy =   -39.0556174122
 DFT   Exchange  Energy =     0.0000000000
 DFT Correlation Energy =     0.0000000000
 Nuclear Repu.   Energy =   772.4306941244
 Nuclear Attr.   Energy = -2866.5234544087
 Kinetic         Energy =   561.0471303854
 SCF time:  CPU 3.05 s  wall 4.52 s
 SCF   energy in the small basis set = -565.83599523
 Total energy in the small basis set = -565.83599523
 ----------------------------------------------------
  Cycle       Energy    
 ----------------------------------------------------
    1     -71.5185056489     -7.15E+01
 A restricted Hartree-Fock SCF calculation will be
 performed using Geometric Direct Minimization
 SCF converges when RMS gradient is below 1.0E-05
 ---------------------------------------
  Cycle       Energy        RMS Gradient
 ---------------------------------------
    1    -572.8384162148      4.89E-01 Descent step
    2    -572.8764802812      3.47E-01 Descent step
    3    -573.0028633520      9.82E-02 Descent step
    4    -573.0646717880      1.32E-01 Normal BFGS step
    5    -573.0781860123      1.34E-01 Normal BFGS step
    6    -573.0794718724      1.07E-01 Normal BFGS step
    7    -573.0875361402      3.49E-02 Normal BFGS step
    8    -573.0895883328      2.03E-02 Normal BFGS step
    9    -573.0904120621      1.26E-02 Normal BFGS step
   10    -573.0913895967      1.03E-02 Normal BFGS step
   11    -573.0918054956      7.53E-03 Normal BFGS step
   12    -573.0920914255      3.74E-03 Normal BFGS step
   13    -573.0921412321      1.92E-03 Normal BFGS step
   14    -573.0921486914      9.60E-04 Normal BFGS step
   15    -573.0921498064      3.98E-04 Normal BFGS step
   16    -573.0921492016      3.61E-05 Line search: overstep
   17    -573.0921499934      2.66E-04 Normal BFGS step
   18    -573.0921493321      2.49E-05 Line search: overstep
   19    -573.0921501081      1.94E-04 Normal BFGS step
   20    -573.0921493493      1.95E-05 Line search: overstep
   21    -573.0921501020      6.35E-05 Line search: overstep
   22    -573.0921511756      6.75E-05 Line search: understep
   23    -573.0921501963      1.64E-04 Normal BFGS step
   24    -573.0921495614      6.61E-05 Line search: overstep
   25    -573.0921502007      1.34E-04 Normal BFGS step
   26    -573.0921496268      1.61E-05 Line search: overstep
   27    -573.0921502144      1.17E-04 Normal BFGS step
   28    -573.0921495319      1.78E-05 Line search: overstep
   29    -573.0921502554      1.04E-04 Normal BFGS step
   30    -573.0921502299      5.78E-05 Line search: overstep
   31    -573.0921507408      5.88E-05 Normal BFGS step
   32    -573.0921509999      1.64E-05 Normal BFGS step
   33    -573.0921495139      6.51E-06 Convergence criterion met
 ---------------------------------------
 One-Electron    Energy = -2309.5737999987
 Total Coulomb   Energy =  1043.3490984323
 Alpha Exchange  Energy =   -40.2366623579
 Beta  Exchange  Energy =   -39.0614797141
 DFT   Exchange  Energy =     0.0000000000
 DFT Correlation Energy =     0.0000000000
 Nuclear Repu.   Energy =   772.4306941244
 Nuclear Attr.   Energy = -2882.1129269061
 Kinetic         Energy =   572.5391269075
 SCF time:  CPU 2322.77 s  wall 2334.20 s
 SCF   energy in the final basis set = -573.09214951
 Total energy in the final basis set = -573.09214951
  
     ##========================================##
     ||                                        ||
     ||              R A S M A N 2             ||
     ||________________________________________||
     ||                                        ||
     ||  Author:                               ||
     ||                                        ||
     ||        David Casanova (2010)           ||
     ||                                        ||
     ##========================================##
  
Setting single-point xc-functionals (if necessary)

  ***************************************************
  *  RAS-CI Dimensions:                             *
  *                                                 *
  *  Active Elec.:  14 ( 8, 6)   Active Orb.:  11   *
  *  Doubly Occ. :  41           Doubly Vir.: 442   *
  *  Frozen Occ. :  21           Frozen Vir.: 422   *
  *                                                 *
  *  Total CI configurations:   6247230             * 
  *    Active configurations:     76230             * 
  *      Hole configurations:   1597200             * 
  *  Particle configurations:   4573800             * 
  *                                                 *
  *   Requested states:       10                    *
  *  Spin multiplicity: Any multiplicity            *
  *                                                 *
  ***************************************************
-----------------------------------------
    Memory requirements of RASCI

 Each CI-vector requires     47.66 MiB 
 Max. subspace vectors           1000      

 Reduced Lists                0.01 MiB 
 Excitation Lists             0.03 MiB 
 Excitation Lists Sign        0.03 MiB 
 CI-space (Max)           48146.85 MiB 
 Integrals                  433.85 MiB 
 Memory required (Max)    48146.91 MiB 
 Memory available          2861.02 MiB 

 Q-Chem warning in module rasman2/ras_mem_check.C, line 162:

 Static memory may be insufficient to store the subspace vectors


    Disk requirements of RASCI

 Fock matrix                  3.72 MiB 
 2-electron integrals         4.73 MiB 
 CI-space                 95325.16 MiB 
 Disk required            95333.62 MiB 
-----------------------------------------
  
RAS1 HF-like energy:           -551.0877594036
 Computing integrals
 Computing J and K matrices
 Computing addressing
 Making amplitude guesses
 
Direct CI diagonalization
 ---------------------------------------------------
 Iter    Rts Conv    Rts Left    Ttl Dev     Max Dev
 ---------------------------------------------------
   1         0          10      0.001300    0.000144
   2         0          10      0.000976    0.000122
   3         0          10      0.000771    0.000100
   4         0          10      0.000623    0.000116
   5         0          10      0.000536    0.000084
   6         0          10      0.000619    0.000098
   7         0          10      0.000603    0.000089
   8         0          10      0.000546    0.000096
   9         0          10      0.000497    0.000084
  10         0          10      0.000463    0.000094
  11         0          10      0.000422    0.000099
  12         0          10      0.000413    0.000083
  13         0          10      0.000364    0.000070
  14         0          10      0.000323    0.000054
  15         0          10      0.000295    0.000044
  16         0          10      0.000242    0.000040
  17         0          10      0.000194    0.000033
  18         0          10      0.000159    0.000026
  19         0          10      0.000133    0.000021
  20         0          10      0.000113    0.000018
  21         1           9      0.000121    0.000035
  22         1           9      0.000106    0.000032
  23         1           9      0.000090    0.000025
  24         1           9      0.000076    0.000019
  25         2           8      0.000082    0.000032
  26         2           8      0.000071    0.000025
  27         2           8      0.000063    0.000017
  28         2           8      0.000055    0.000014
  29         3           7      0.000051    0.000012
  30         3           7      0.000053    0.000017
  31         4           6      0.000048    0.000018
  32         5           5      0.000040    0.000014
  33         5           5      0.000033    0.000011
  34         5           5      0.000028    0.000009
  35         5           5      0.000024    0.000007
  36         6           4      0.000021    0.000006
  37         6           4      0.000018    0.000005
  38         7           3      0.000015    0.000005
  39         7           3      0.000013    0.000004
  40         7           3      0.000011    0.000003
  41         7           3      0.000009    0.000003
  42         7           3      0.000008    0.000002
  43         9           1      0.000007    0.000002
  44         9           1      0.000006    0.000001
  45         9           1      0.000006    0.000001
  46        10           0      0.000005    0.000001    Roots Converged
 ---------------------------------------------------
   
**************************************************
 RAS-CI total energy for state   1:   -573.164984182634
  Excitation energy (eV) =  0.000000000000
 Warning : Irrep of orbital( 140) could not be determined
 Warning : Irrep of orbital( 141) could not be determined
 Warning : Irrep of orbital( 140) could not be determined
 Warning : Irrep of orbital( 141) could not be determined
  State symmetry: A     (C2       )
  <S^2>      :  2.0000
  Dipole Moment:   -0.0000 X    -0.0000 Y     0.5085 Z
 NATURAL OCCUPATION NUMBERS (higher than 1.0E-05)
            1           2           3           4           5           6
    1   2.0000000   2.0000000   2.0000000   2.0000000   2.0000000   2.0000000
            7           8           9          10          11          12
    1   2.0000000   2.0000000   2.0000000   2.0000000   2.0000000   2.0000000
           13          14          15          16          17          18
    1   2.0000000   2.0000000   2.0000000   2.0000000   2.0000000   2.0000000
           19          20          21          22          23          24
    1   2.0000000   2.0000000   2.0000000   1.9999991   1.9999972   1.9999963
           25          26          27          28          29          30
    1   1.9999951   1.9999936   1.9999925   1.9999906   1.9999898   1.9999830
           31          32          33          34          35          36
    1   1.9999819   1.9999816   1.9999553   1.9999492   1.9999410   1.9999389
           37          38          39          40          41          42
    1   1.9999288   1.9999190   1.9997499   1.9997269   1.9990204   1.9919319
           43          44          45          46          47          48
    1   1.9902940   1.9573435   1.9507561   1.9505657   1.9483966   1.0044392
           49          50          51          52          53          54
    1   0.9990167   0.0616874   0.0535320   0.0526427   0.0310046   0.0066454
           55          56          57          58          59          60
    1   0.0018764   0.0005637   0.0005114   0.0002989   0.0001240   0.0000970
           61          62          63          64          65
    1   0.0000935   0.0000386   0.0000346   0.0000200   0.0000190
Natural Orbitals stored in FCHK

  Amplitudes : 
  
 | HOLE  | ALPHA       | BETA        | PART  |    AMPLITUDE 
--------------------------------------------------
 |       | 11111111000 | 11111100000 |       |    -9.3663195496139E-01
--------------------------------------------------
*** Contributions RASCI wfn    Active:  95.14
                                 Hole:   0.25
                                 Part:   4.61

      Mulliken population analysis 
 ---------------------------------------------------
   Atom    Charge (a.u.)   Spin (a.u.)  
 ---------------------------------------------------
   1  C    0.280882        0.572172 
   2  O   -0.226124        1.016184 
   3  C    0.181092       -0.012927 
   4  C    0.181362       -0.012927 
   5  C   -0.325012        0.088175 
   6  C   -0.224047        0.094634 
   7  C   -0.109744       -0.045610 
   8  C   -0.082980       -0.042378 
   9  C   -0.143254        0.124731 
  10  H    0.152658       -0.001934 
  11  H    0.142465        0.000806 
  12  H    0.127234       -0.000119 
  13  H    0.126367       -0.000258 
  14  H    0.127584        0.000701 
  15  C   -0.324830        0.088175 
  16  C   -0.223840        0.094633 
  17  C   -0.083194       -0.042378 
  18  C   -0.109887       -0.045610 
  19  C   -0.143058        0.124731 
  20  H    0.152673       -0.001934 
  21  H    0.127229       -0.000119 
  22  H    0.142463        0.000807 
  23  H    0.126365       -0.000258 
  24  H    0.127596        0.000701 
 ---------------------------------------------------
   Sum:    0.000000        2.000000 
 ---------------------------------------------------
 
  
 NATURAL OCCUPATION NUMBERS (higher than 1.0E-05)
            1           2           3           4           5           6
    1   2.0000000   2.0000000   2.0000000   2.0000000   2.0000000   2.0000000
            7           8           9          10          11          12
    1   2.0000000   2.0000000   2.0000000   2.0000000   2.0000000   2.0000000
           13          14          15          16          17          18
    1   2.0000000   2.0000000   2.0000000   2.0000000   2.0000000   2.0000000
           19          20          21          22          23          24
    1   2.0000000   2.0000000   2.0000000   1.9999991   1.9999972   1.9999963
           25          26          27          28          29          30
    1   1.9999951   1.9999936   1.9999925   1.9999906   1.9999898   1.9999830
           31          32          33          34          35          36
    1   1.9999819   1.9999816   1.9999553   1.9999492   1.9999410   1.9999389
           37          38          39          40          41          42
    1   1.9999288   1.9999190   1.9997499   1.9997269   1.9990204   1.9919319
           43          44          45          46          47          48
    1   1.9902940   1.9573435   1.9507561   1.9505657   1.9483966   1.0044392
           49          50          51          52          53          54
    1   0.9990167   0.0616874   0.0535320   0.0526427   0.0310046   0.0066454
           55          56          57          58          59          60
    1   0.0018764   0.0005637   0.0005114   0.0002989   0.0001240   0.0000970
           61          62          63          64          65
    1   0.0000935   0.0000386   0.0000346   0.0000200   0.0000190
  
*** Unpaired Electrons
 Yamaguchi Nd:         2.82
 Head-Gordon Nu:       2.42
 Head-Gordon Nu_nl:    2.08
  
**************************************************
 RAS-CI total energy for state   2:   -573.100767470303
  Excitation energy (eV) =  1.747425648769
  State symmetry: A     (C2       )
  <S^2>      :  2.0000
  Dipole Moment:   -0.0000 X    -0.0000 Y     0.8938 Z
  Trans. Moment:    0.0000 X    -0.0000 Y     0.1016 Z
  Strength   :  0.000442
  Natural transition orbitals ( 1 -> 2 ):
   e-/hole pair  1 alpha:  ampl =  0.021973 (  0.0%)   [11 : 12]
   e-/hole pair  2 alpha:  ampl =  0.009561 (  0.0%)   [10 : 13]
   e-/hole pair  1 beta :  ampl =  0.964007 ( 92.9%)   [11 : 12]
   e-/hole pair  2 beta :  ampl =  0.034201 (  0.1%)   [10 : 13]
   Sum of square amplitudes: 0.93

 NATURAL OCCUPATION NUMBERS (higher than 1.0E-05)
            1           2           3           4           5           6
    1   2.0000000   2.0000000   2.0000000   2.0000000   2.0000000   2.0000000
            7           8           9          10          11          12
    1   2.0000000   2.0000000   2.0000000   2.0000000   2.0000000   2.0000000
           13          14          15          16          17          18
    1   2.0000000   2.0000000   2.0000000   2.0000000   2.0000000   2.0000000
           19          20          21          22          23          24
    1   2.0000000   2.0000000   2.0000000   1.9999996   1.9999990   1.9999987
           25          26          27          28          29          30
    1   1.9999982   1.9999982   1.9999966   1.9999964   1.9999953   1.9999949
           31          32          33          34          35          36
    1   1.9999887   1.9999853   1.9999807   1.9999799   1.9999790   1.9999766
           37          38          39          40          41          42
    1   1.9999739   1.9999705   1.9998703   1.9997596   1.9969584   1.9938932
           43          44          45          46          47          48
    1   1.9934000   1.9734975   1.9596367   1.9586077   1.9486578   1.0353791
           49          50          51          52          53          54
    1   0.9775208   0.0568426   0.0464952   0.0461849   0.0093196   0.0019405
           55          56          57          58          59          60
    1   0.0009381   0.0005663   0.0002126   0.0001706   0.0001478   0.0000500
           61          62          63
    1   0.0000438   0.0000316   0.0000274
Natural Orbitals stored in FCHK

  Amplitudes : 
  
 | HOLE  | ALPHA       | BETA        | PART  |    AMPLITUDE 
--------------------------------------------------
 |       | 11111111000 | 11011110000 |       |     4.3567431287927E-01
 |       | 11111111000 | 10111110000 |       |     3.3414948886892E-01
 |       | 11111110100 | 11111010000 |       |    -1.0024609502449E-01
 |  31   | 11111111000 | 11111110000 |       |    -2.7946639083304E-01
 |  34   | 11111111000 | 11111110000 |       |     4.2294007293804E-01
 |  37   | 11111111000 | 11111110000 |       |     5.4887208335382E-01
--------------------------------------------------
*** Contributions RASCI wfn    Active:  34.58
                                 Hole:  63.86
                                 Part:   1.56

      Mulliken population analysis 
 ---------------------------------------------------
   Atom    Charge (a.u.)   Spin (a.u.)  
 ---------------------------------------------------
   1  C    0.296823        0.534672 
   2  O   -0.325613        0.894828 
   3  C    0.183525        0.049878 
   4  C    0.183805        0.049879 
   5  C   -0.315032        0.081728 
   6  C   -0.196070        0.100133 
   7  C   -0.113077       -0.024853 
   8  C   -0.085732       -0.018906 
   9  C   -0.129322        0.094946 
  10  H    0.153843        0.000690 
  11  H    0.134927        0.001101 
  12  H    0.127021        0.000015 
  13  H    0.126429       -0.000179 
  14  H    0.127617        0.000695 
  15  C   -0.314847        0.081729 
  16  C   -0.195857        0.100135 
  17  C   -0.085949       -0.018906 
  18  C   -0.113223       -0.024854 
  19  C   -0.129123        0.094946 
  20  H    0.153858        0.000691 
  21  H    0.127016        0.000015 
  22  H    0.134926        0.001101 
  23  H    0.126427       -0.000179 
  24  H    0.127629        0.000695 
 ---------------------------------------------------
   Sum:    0.000000        2.000000 
 ---------------------------------------------------
 
  
 NATURAL OCCUPATION NUMBERS (higher than 1.0E-05)
            1           2           3           4           5           6
    1   2.0000000   2.0000000   2.0000000   2.0000000   2.0000000   2.0000000
            7           8           9          10          11          12
    1   2.0000000   2.0000000   2.0000000   2.0000000   2.0000000   2.0000000
           13          14          15          16          17          18
    1   2.0000000   2.0000000   2.0000000   2.0000000   2.0000000   2.0000000
           19          20          21          22          23          24
    1   2.0000000   2.0000000   2.0000000   1.9999996   1.9999990   1.9999987
           25          26          27          28          29          30
    1   1.9999982   1.9999982   1.9999966   1.9999964   1.9999953   1.9999949
           31          32          33          34          35          36
    1   1.9999887   1.9999853   1.9999807   1.9999799   1.9999790   1.9999766
           37          38          39          40          41          42
    1   1.9999739   1.9999705   1.9998703   1.9997596   1.9969584   1.9938932
           43          44          45          46          47          48
    1   1.9934000   1.9734975   1.9596367   1.9586077   1.9486578   1.0353791
           49          50          51          52          53          54
    1   0.9775208   0.0568426   0.0464952   0.0461849   0.0093196   0.0019405
           55          56          57          58          59          60
    1   0.0009381   0.0005663   0.0002126   0.0001706   0.0001478   0.0000500
           61          62          63
    1   0.0000438   0.0000316   0.0000274
  
*** Unpaired Electrons
 Yamaguchi Nd:         2.66
 Head-Gordon Nu:       2.28
 Head-Gordon Nu_nl:    2.05
  
**************************************************
 RAS-CI total energy for state   3:   -573.055619973350
  Excitation energy (eV) =  2.975951546298
  State symmetry: B     (C2       )
  <S^2>      :  2.0000
  Dipole Moment:   -0.0000 X    -0.0000 Y     0.5096 Z
  Trans. Moment:    0.7412 X     0.0277 Y    -0.0000 Z
  Strength   :  0.040109
  Natural transition orbitals ( 1 -> 3 ):
   e-/hole pair  1 alpha:  ampl =  0.700835 ( 49.1%)   [11 : 12]
   e-/hole pair  2 alpha:  ampl =  0.111109 (  1.2%)   [10 : 13]
   e-/hole pair  1 beta :  ampl =  0.419068 ( 17.6%)   [11 : 12]
   e-/hole pair  2 beta :  ampl =  0.113587 (  1.3%)   [10 : 13]
   Sum of square amplitudes: 0.71

 NATURAL OCCUPATION NUMBERS (higher than 1.0E-05)
            1           2           3           4           5           6
    1   2.0000000   2.0000000   2.0000000   2.0000000   2.0000000   2.0000000
            7           8           9          10          11          12
    1   2.0000000   2.0000000   2.0000000   2.0000000   2.0000000   2.0000000
           13          14          15          16          17          18
    1   2.0000000   2.0000000   2.0000000   2.0000000   2.0000000   2.0000000
           19          20          21          22          23          24
    1   2.0000000   2.0000000   2.0000000   1.9999986   1.9999972   1.9999970
           25          26          27          28          29          30
    1   1.9999959   1.9999942   1.9999901   1.9999882   1.9999871   1.9999808
           31          32          33          34          35          36
    1   1.9999705   1.9999693   1.9999481   1.9999425   1.9999211   1.9999189
           37          38          39          40          41          42
    1   1.9998658   1.9996651   1.9993642   1.9984127   1.9878229   1.9833635
           43          44          45          46          47          48
    1   1.9806178   1.9376091   1.9346528   1.9080692   1.7064599   1.1002652
           49          50          51          52          53          54
    1   0.7073142   0.5452255   0.0700149   0.0678463   0.0548127   0.0130318
           55          56          57          58          59          60
    1   0.0034610   0.0008388   0.0004749   0.0003911   0.0003547   0.0001379
           61          62          63          64          65          66
    1   0.0001318   0.0000527   0.0000493   0.0000255   0.0000247   0.0000119
           67
    1   0.0000101
Natural Orbitals stored in FCHK

  Amplitudes : 
  
 | HOLE  | ALPHA       | BETA        | PART  |    AMPLITUDE 
--------------------------------------------------
 |       | 11111111000 | 11111010000 |       |     2.0305358198692E-01
 |       | 11111111000 | 11111001000 |       |     3.2877398929141E-01
 |       | 11111111000 | 11011100100 |       |    -1.0176855481308E-01
 |       | 11111110100 | 11111100000 |       |     6.3222903894568E-01
 |       | 11111110100 | 11011110000 |       |    -2.1093287445140E-01
 |       | 11111110100 | 11011101000 |       |    -2.8516683707361E-01
 |       | 11011111100 | 11111100000 |       |     2.0005464118724E-01
 |       | 11111011000 | 11111100000 |  55   |     1.0282625137510E-01
 |       | 11111110000 | 11111010000 |  55   |    -1.0062602130294E-01
 |       | 11111110000 | 11111001000 |  55   |    -1.9950669709827E-01
 |       | 11111111000 | 11111000000 |  55   |    -1.0799455376985E-01
--------------------------------------------------
*** Contributions RASCI wfn    Active:  83.50
                                 Hole:   4.48
                                 Part:  12.01

      Mulliken population analysis 
 ---------------------------------------------------
   Atom    Charge (a.u.)   Spin (a.u.)  
 ---------------------------------------------------
   1  C    0.394201       -0.083425 
   2  O   -0.264453        0.840268 
   3  C    0.127648        0.237012 
   4  C    0.127919        0.237016 
   5  C   -0.314283        0.048003 
   6  C   -0.195662        0.059667 
   7  C   -0.129752        0.035071 
   8  C   -0.090096        0.045313 
   9  C   -0.133704        0.192707 
  10  H    0.152744        0.000240 
  11  H    0.137630        0.000987 
  12  H    0.127090        0.000504 
  13  H    0.126148        0.000547 
  14  H    0.127104        0.001525 
  15  C   -0.314101        0.048005 
  16  C   -0.195455        0.059667 
  17  C   -0.090310        0.045312 
  18  C   -0.129895        0.035070 
  19  C   -0.133507        0.192707 
  20  H    0.152759        0.000241 
  21  H    0.127085        0.000504 
  22  H    0.137630        0.000987 
  23  H    0.126145        0.000547 
  24  H    0.127116        0.001525 
 ---------------------------------------------------
   Sum:    0.000000        2.000000 
 ---------------------------------------------------
 
  
 NATURAL OCCUPATION NUMBERS (higher than 1.0E-05)
            1           2           3           4           5           6
    1   2.0000000   2.0000000   2.0000000   2.0000000   2.0000000   2.0000000
            7           8           9          10          11          12
    1   2.0000000   2.0000000   2.0000000   2.0000000   2.0000000   2.0000000
           13          14          15          16          17          18
    1   2.0000000   2.0000000   2.0000000   2.0000000   2.0000000   2.0000000
           19          20          21          22          23          24
    1   2.0000000   2.0000000   2.0000000   1.9999986   1.9999972   1.9999970
           25          26          27          28          29          30
    1   1.9999959   1.9999942   1.9999901   1.9999882   1.9999871   1.9999808
           31          32          33          34          35          36
    1   1.9999705   1.9999693   1.9999481   1.9999425   1.9999211   1.9999189
           37          38          39          40          41          42
    1   1.9998658   1.9996651   1.9993642   1.9984127   1.9878229   1.9833635
           43          44          45          46          47          48
    1   1.9806178   1.9376091   1.9346528   1.9080692   1.7064599   1.1002652
           49          50          51          52          53          54
    1   0.7073142   0.5452255   0.0700149   0.0678463   0.0548127   0.0130318
           55          56          57          58          59          60
    1   0.0034610   0.0008388   0.0004749   0.0003911   0.0003547   0.0001379
           61          62          63          64          65          66
    1   0.0001318   0.0000527   0.0000493   0.0000255   0.0000247   0.0000119
           67
    1   0.0000101
  
*** Unpaired Electrons
 Yamaguchi Nd:         4.13
 Head-Gordon Nu:       2.93
 Head-Gordon Nu_nl:    2.81
  
**************************************************
 RAS-CI total energy for state   4:   -573.036111450932
  Excitation energy (eV) =  3.506805450298
  State symmetry: B     (C2       )
  <S^2>      :  2.0000
  Dipole Moment:   -0.0000 X    -0.0000 Y     0.7969 Z
  Trans. Moment:    0.2518 X     0.0637 Y    -0.0000 Z
  Strength   :  0.005794
  Natural transition orbitals ( 1 -> 4 ):
   e-/hole pair  1 alpha:  ampl =  0.523503 ( 27.4%)   [11 : 12]
   e-/hole pair  2 alpha:  ampl =  0.109869 (  1.2%)   [10 : 13]
   e-/hole pair  1 beta :  ampl =  0.262053 (  6.9%)   [11 : 12]
   e-/hole pair  2 beta :  ampl =  0.173043 (  3.0%)   [10 : 13]
   Sum of square amplitudes: 0.40

 NATURAL OCCUPATION NUMBERS (higher than 1.0E-05)
            1           2           3           4           5           6
    1   2.0000000   2.0000000   2.0000000   2.0000000   2.0000000   2.0000000
            7           8           9          10          11          12
    1   2.0000000   2.0000000   2.0000000   2.0000000   2.0000000   2.0000000
           13          14          15          16          17          18
    1   2.0000000   2.0000000   2.0000000   2.0000000   2.0000000   2.0000000
           19          20          21          22          23          24
    1   2.0000000   2.0000000   2.0000000   1.9999986   1.9999968   1.9999967
           25          26          27          28          29          30
    1   1.9999943   1.9999942   1.9999906   1.9999870   1.9999850   1.9999831
           31          32          33          34          35          36
    1   1.9999724   1.9999604   1.9999454   1.9999395   1.9999166   1.9998753
           37          38          39          40          41          42
    1   1.9998547   1.9997827   1.9992451   1.9982422   1.9848902   1.9812000
           43          44          45          46          47          48
    1   1.9580134   1.8988254   1.8598463   1.7816886   1.6819115   1.4515805
           49          50          51          52          53          54
    1   0.5235884   0.4466412   0.2023228   0.1858960   0.0302977   0.0098094
           55          56          57          58          59          60
    1   0.0027802   0.0015248   0.0008601   0.0005813   0.0005075   0.0001893
           61          62          63          64          65          66
    1   0.0001320   0.0000681   0.0000671   0.0000337   0.0000284   0.0000140
           67          68
    1   0.0000112   0.0000102
Natural Orbitals stored in FCHK

  Amplitudes : 
  
 | HOLE  | ALPHA       | BETA        | PART  |    AMPLITUDE 
--------------------------------------------------
 |       | 11111111000 | 11111010000 |       |    -2.0063391021406E-01
 |       | 11111111000 | 11101110000 |       |     1.3185697197199E-01
 |       | 11111111000 | 11101101000 |       |     1.5507960199540E-01
 |       | 11111110100 | 11111100000 |       |     2.4376155344288E-01
 |       | 11111110100 | 11011110000 |       |     1.5241019678993E-01
 |       | 11111110100 | 11011101000 |       |    -1.1059187506492E-01
 |       | 11111110010 | 11111100000 |       |    -4.1298659193601E-01
 |       | 11111110010 | 11110110000 |       |     3.1513502621463E-01
 |       | 11111110010 | 11011110000 |       |     2.0992833212745E-01
 |       | 11111110010 | 11011101000 |       |     1.2972872176241E-01
 |       | 11111110001 | 11111010000 |       |    -1.9215192280108E-01
 |       | 11111110001 | 11111001000 |       |    -1.0775374522704E-01
 |       | 11111110001 | 11101110000 |       |     2.6138706246632E-01
 |       | 11011111010 | 11111100000 |       |    -1.2613783134652E-01
 |  37   | 11111111010 | 11110110000 |       |    -1.0592188106825E-01
 |  37   | 11111110010 | 11110111000 |       |     1.0101429428642E-01
--------------------------------------------------
*** Contributions RASCI wfn    Active:  77.83
                                 Hole:  16.16
                                 Part:   6.01

      Mulliken population analysis 
 ---------------------------------------------------
   Atom    Charge (a.u.)   Spin (a.u.)  
 ---------------------------------------------------
   1  C    0.396622        0.025805 
   2  O   -0.346652        0.474280 
   3  C    0.169035        0.069294 
   4  C    0.169317        0.069293 
   5  C   -0.335745        0.084601 
   6  C   -0.169424        0.206754 
   7  C   -0.151679        0.130158 
   8  C   -0.086648        0.207407 
   9  C   -0.110795        0.043329 
  10  H    0.150394        0.001953 
  11  H    0.129458        0.003066 
  12  H    0.126641        0.001532 
  13  H    0.126134        0.001073 
  14  H    0.127374        0.000796 
  15  C   -0.335555        0.084596 
  16  C   -0.169208        0.206750 
  17  C   -0.086868        0.207409 
  18  C   -0.151828        0.130159 
  19  C   -0.110593        0.043327 
  20  H    0.150407        0.001954 
  21  H    0.126635        0.001532 
  22  H    0.129460        0.003065 
  23  H    0.126132        0.001073 
  24  H    0.127386        0.000796 
 ---------------------------------------------------
   Sum:    0.000000        2.000000 
 ---------------------------------------------------
 
  
 NATURAL OCCUPATION NUMBERS (higher than 1.0E-05)
            1           2           3           4           5           6
    1   2.0000000   2.0000000   2.0000000   2.0000000   2.0000000   2.0000000
            7           8           9          10          11          12
    1   2.0000000   2.0000000   2.0000000   2.0000000   2.0000000   2.0000000
           13          14          15          16          17          18
    1   2.0000000   2.0000000   2.0000000   2.0000000   2.0000000   2.0000000
           19          20          21          22          23          24
    1   2.0000000   2.0000000   2.0000000   1.9999986   1.9999968   1.9999967
           25          26          27          28          29          30
    1   1.9999943   1.9999942   1.9999906   1.9999870   1.9999850   1.9999831
           31          32          33          34          35          36
    1   1.9999724   1.9999604   1.9999454   1.9999395   1.9999166   1.9998753
           37          38          39          40          41          42
    1   1.9998547   1.9997827   1.9992451   1.9982422   1.9848902   1.9812000
           43          44          45          46          47          48
    1   1.9580134   1.8988254   1.8598463   1.7816886   1.6819115   1.4515805
           49          50          51          52          53          54
    1   0.5235884   0.4466412   0.2023228   0.1858960   0.0302977   0.0098094
           55          56          57          58          59          60
    1   0.0027802   0.0015248   0.0008601   0.0005813   0.0005075   0.0001893
           61          62          63          64          65          66
    1   0.0001320   0.0000681   0.0000671   0.0000337   0.0000284   0.0000140
           67          68
    1   0.0000112   0.0000102
  
*** Unpaired Electrons
 Yamaguchi Nd:         4.59
 Head-Gordon Nu:       2.81
 Head-Gordon Nu_nl:    2.51
  
**************************************************
 RAS-CI total energy for state   5:   -573.031083476544
  Excitation energy (eV) =  3.643623594494
  State symmetry: A     (C2       )
  <S^2>      :  2.0000
  Dipole Moment:   -0.0000 X    -0.0000 Y     0.8349 Z
  Trans. Moment:    0.0000 X    -0.0000 Y     0.1160 Z
  Strength   :  0.001202
  Natural transition orbitals ( 1 -> 5 ):
   e-/hole pair  1 alpha:  ampl =  0.445662 ( 19.9%)   [11 : 12]
   e-/hole pair  2 alpha:  ampl =  0.101630 (  1.0%)   [10 : 13]
   e-/hole pair  1 beta :  ampl =  0.294041 (  8.6%)   [11 : 12]
   e-/hole pair  2 beta :  ampl =  0.089105 (  0.8%)   [10 : 13]
   Sum of square amplitudes: 0.31

 NATURAL OCCUPATION NUMBERS (higher than 1.0E-05)
            1           2           3           4           5           6
    1   2.0000000   2.0000000   2.0000000   2.0000000   2.0000000   2.0000000
            7           8           9          10          11          12
    1   2.0000000   2.0000000   2.0000000   2.0000000   2.0000000   2.0000000
           13          14          15          16          17          18
    1   2.0000000   2.0000000   2.0000000   2.0000000   2.0000000   2.0000000
           19          20          21          22          23          24
    1   2.0000000   2.0000000   2.0000000   1.9999989   1.9999981   1.9999976
           25          26          27          28          29          30
    1   1.9999957   1.9999949   1.9999918   1.9999890   1.9999884   1.9999855
           31          32          33          34          35          36
    1   1.9999754   1.9999717   1.9999583   1.9999499   1.9999325   1.9999080
           37          38          39          40          41          42
    1   1.9998697   1.9998045   1.9993908   1.9993182   1.9840979   1.9806081
           43          44          45          46          47          48
    1   1.9625052   1.9338828   1.9238613   1.7707028   1.6488180   1.4271683
           49          50          51          52          53          54
    1   0.5778865   0.3646761   0.3161231   0.0706482   0.0254825   0.0091163
           55          56          57          58          59          60
    1   0.0026720   0.0015063   0.0007245   0.0005388   0.0004175   0.0001750
           61          62          63          64          65          66
    1   0.0001188   0.0000664   0.0000646   0.0000392   0.0000244   0.0000166
           67
    1   0.0000106
Natural Orbitals stored in FCHK

  Amplitudes : 
  
 | HOLE  | ALPHA       | BETA        | PART  |    AMPLITUDE 
--------------------------------------------------
 |       | 11111111000 | 11110110000 |       |     1.8899027339151E-01
 |       | 11111111000 | 11110101000 |       |     1.6669115548426E-01
 |       | 11111110100 | 11111010000 |       |    -1.0116561148851E-01
 |       | 11111110010 | 11111010000 |       |    -2.3519531786049E-01
 |       | 11111110010 | 11111001000 |       |    -1.2527217989103E-01
 |       | 11111110010 | 11101110000 |       |     3.3679409670177E-01
 |       | 11111110001 | 11111100000 |       |    -4.0335231662838E-01
 |       | 11111110001 | 11110110000 |       |     3.5013109506117E-01
 |       | 11111110001 | 11011110000 |       |     1.9539209374787E-01
 |       | 11111110001 | 11011101000 |       |     1.3529755654680E-01
 |       | 11011111001 | 11111100000 |       |    -1.2480055420744E-01
 |  37   | 11111111001 | 11110110000 |       |    -1.2530865219641E-01
 |  37   | 11111111010 | 11101110000 |       |    -1.1769927058857E-01
 |  37   | 11111110010 | 11101111000 |       |     1.0109681297799E-01
 |  37   | 11111110001 | 11110111000 |       |     1.0486389871199E-01
--------------------------------------------------
*** Contributions RASCI wfn    Active:  75.06
                                 Hole:  19.23
                                 Part:   5.71

      Mulliken population analysis 
 ---------------------------------------------------
   Atom    Charge (a.u.)   Spin (a.u.)  
 ---------------------------------------------------
   1  C    0.403843        0.045415 
   2  O   -0.360255        0.326586 
   3  C    0.166502        0.039545 
   4  C    0.166782        0.039545 
   5  C   -0.323983        0.070584 
   6  C   -0.171932        0.277521 
   7  C   -0.137417        0.118312 
   8  C   -0.083321        0.273859 
   9  C   -0.122732        0.017447 
  10  H    0.143480        0.008760 
  11  H    0.127648        0.003982 
  12  H    0.126546        0.001988 
  13  H    0.126411        0.000827 
  14  H    0.126737        0.001172 
  15  C   -0.323796        0.070584 
  16  C   -0.171718        0.277522 
  17  C   -0.083540        0.273864 
  18  C   -0.137567        0.118315 
  19  C   -0.122529        0.017445 
  20  H    0.143495        0.008760 
  21  H    0.126540        0.001989 
  22  H    0.127650        0.003981 
  23  H    0.126409        0.000827 
  24  H    0.126749        0.001171 
 ---------------------------------------------------
   Sum:    0.000000        2.000000 
 ---------------------------------------------------
 
  
 NATURAL OCCUPATION NUMBERS (higher than 1.0E-05)
            1           2           3           4           5           6
    1   2.0000000   2.0000000   2.0000000   2.0000000   2.0000000   2.0000000
            7           8           9          10          11          12
    1   2.0000000   2.0000000   2.0000000   2.0000000   2.0000000   2.0000000
           13          14          15          16          17          18
    1   2.0000000   2.0000000   2.0000000   2.0000000   2.0000000   2.0000000
           19          20          21          22          23          24
    1   2.0000000   2.0000000   2.0000000   1.9999989   1.9999981   1.9999976
           25          26          27          28          29          30
    1   1.9999957   1.9999949   1.9999918   1.9999890   1.9999884   1.9999855
           31          32          33          34          35          36
    1   1.9999754   1.9999717   1.9999583   1.9999499   1.9999325   1.9999080
           37          38          39          40          41          42
    1   1.9998697   1.9998045   1.9993908   1.9993182   1.9840979   1.9806081
           43          44          45          46          47          48
    1   1.9625052   1.9338828   1.9238613   1.7707028   1.6488180   1.4271683
           49          50          51          52          53          54
    1   0.5778865   0.3646761   0.3161231   0.0706482   0.0254825   0.0091163
           55          56          57          58          59          60
    1   0.0026720   0.0015063   0.0007245   0.0005388   0.0004175   0.0001750
           61          62          63          64          65          66
    1   0.0001188   0.0000664   0.0000646   0.0000392   0.0000244   0.0000166
           67
    1   0.0000106
  
*** Unpaired Electrons
 Yamaguchi Nd:         4.39
 Head-Gordon Nu:       2.74
 Head-Gordon Nu_nl:    2.55
  
**************************************************
 RAS-CI total energy for state   6:   -573.026931099327
  Excitation energy (eV) =  3.756615527419
  State symmetry: B     (C2       )
  <S^2>      :  2.0000
  Dipole Moment:   -0.0000 X    -0.0000 Y     0.6664 Z
  Trans. Moment:   -0.3913 X     0.0190 Y    -0.0000 Z
  Strength   :  0.014127
  Natural transition orbitals ( 1 -> 6 ):
   e-/hole pair  1 alpha:  ampl =  0.551369 ( 30.4%)   [11 : 12]
   e-/hole pair  2 alpha:  ampl =  0.136684 (  1.9%)   [10 : 13]
   e-/hole pair  1 beta :  ampl =  0.292636 (  8.6%)   [11 : 12]
   e-/hole pair  2 beta :  ampl =  0.187443 (  3.5%)   [10 : 13]
   Sum of square amplitudes: 0.46

 NATURAL OCCUPATION NUMBERS (higher than 1.0E-05)
            1           2           3           4           5           6
    1   2.0000000   2.0000000   2.0000000   2.0000000   2.0000000   2.0000000
            7           8           9          10          11          12
    1   2.0000000   2.0000000   2.0000000   2.0000000   2.0000000   2.0000000
           13          14          15          16          17          18
    1   2.0000000   2.0000000   2.0000000   2.0000000   2.0000000   2.0000000
           19          20          21          22          23          24
    1   2.0000000   2.0000000   2.0000000   1.9999985   1.9999961   1.9999960
           25          26          27          28          29          30
    1   1.9999943   1.9999941   1.9999901   1.9999865   1.9999844   1.9999791
           31          32          33          34          35          36
    1   1.9999682   1.9999449   1.9999382   1.9999302   1.9999181   1.9998653
           37          38          39          40          41          42
    1   1.9998148   1.9997561   1.9990925   1.9967481   1.9843271   1.9811879
           43          44          45          46          47          48
    1   1.9508031   1.8815746   1.8356155   1.7841891   1.6850677   1.4357804
           49          50          51          52          53          54
    1   0.4927277   0.4844166   0.2648871   0.1716556   0.0355746   0.0100514
           55          56          57          58          59          60
    1   0.0030677   0.0015290   0.0009920   0.0005644   0.0005162   0.0001625
           61          62          63          64          65          66
    1   0.0001444   0.0000880   0.0000602   0.0000363   0.0000291   0.0000133
           67          68
    1   0.0000110   0.0000100
Natural Orbitals stored in FCHK

  Amplitudes : 
  
 | HOLE  | ALPHA       | BETA        | PART  |    AMPLITUDE 
--------------------------------------------------
 |       | 11111111000 | 11111010000 |       |     2.1670459170725E-01
 |       | 11111111000 | 11111001000 |       |    -1.5019367819757E-01
 |       | 11111111000 | 11101101000 |       |     1.6515188137359E-01
 |       | 11111110100 | 11011110000 |       |    -2.9907183137764E-01
 |       | 11111110010 | 11111100000 |       |    -4.9594643546632E-01
 |       | 11111110010 | 11110110000 |       |    -2.1178076591682E-01
 |       | 11111110010 | 11011101000 |       |     1.9054757696973E-01
 |       | 11111110001 | 11111001000 |       |    -1.3927356012374E-01
 |       | 11111110001 | 11101110000 |       |    -2.1533877172738E-01
 |       | 11111011001 | 11111100000 |       |     1.2286784082903E-01
 |       | 11011111010 | 11111100000 |       |    -1.8614343290112E-01
 |  37   | 11111111000 | 11111011000 |       |     1.0266256066441E-01
 |  37   | 11111110100 | 11111110000 |       |    -1.1418162047837E-01
 |  37   | 11111110100 | 11011111000 |       |    -1.0140469454578E-01
--------------------------------------------------
*** Contributions RASCI wfn    Active:  78.38
                                 Hole:  14.59
                                 Part:   7.03

      Mulliken population analysis 
 ---------------------------------------------------
   Atom    Charge (a.u.)   Spin (a.u.)  
 ---------------------------------------------------
   1  C    0.377458        0.012736 
   2  O   -0.314296        0.653496 
   3  C    0.168679        0.101758 
   4  C    0.168962        0.101755 
   5  C   -0.302562        0.130076 
   6  C   -0.202790        0.102234 
   7  C   -0.130425        0.122324 
   8  C   -0.129676        0.137531 
   9  C   -0.100549        0.068134 
  10  H    0.152906        0.000464 
  11  H    0.132499        0.001495 
  12  H    0.126462        0.001085 
  13  H    0.126098        0.001075 
  14  H    0.127505        0.000717 
  15  C   -0.302373        0.130069 
  16  C   -0.202572        0.102228 
  17  C   -0.129895        0.137532 
  18  C   -0.130574        0.122325 
  19  C   -0.100347        0.068132 
  20  H    0.152920        0.000465 
  21  H    0.126456        0.001085 
  22  H    0.132500        0.001494 
  23  H    0.126096        0.001075 
  24  H    0.127517        0.000717 
 ---------------------------------------------------
   Sum:    0.000000        2.000000 
 ---------------------------------------------------
 
  
 NATURAL OCCUPATION NUMBERS (higher than 1.0E-05)
            1           2           3           4           5           6
    1   2.0000000   2.0000000   2.0000000   2.0000000   2.0000000   2.0000000
            7           8           9          10          11          12
    1   2.0000000   2.0000000   2.0000000   2.0000000   2.0000000   2.0000000
           13          14          15          16          17          18
    1   2.0000000   2.0000000   2.0000000   2.0000000   2.0000000   2.0000000
           19          20          21          22          23          24
    1   2.0000000   2.0000000   2.0000000   1.9999985   1.9999961   1.9999960
           25          26          27          28          29          30
    1   1.9999943   1.9999941   1.9999901   1.9999865   1.9999844   1.9999791
           31          32          33          34          35          36
    1   1.9999682   1.9999449   1.9999382   1.9999302   1.9999181   1.9998653
           37          38          39          40          41          42
    1   1.9998148   1.9997561   1.9990925   1.9967481   1.9843271   1.9811879
           43          44          45          46          47          48
    1   1.9508031   1.8815746   1.8356155   1.7841891   1.6850677   1.4357804
           49          50          51          52          53          54
    1   0.4927277   0.4844166   0.2648871   0.1716556   0.0355746   0.0100514
           55          56          57          58          59          60
    1   0.0030677   0.0015290   0.0009920   0.0005644   0.0005162   0.0001625
           61          62          63          64          65          66
    1   0.0001444   0.0000880   0.0000602   0.0000363   0.0000291   0.0000133
           67          68
    1   0.0000110   0.0000100
  
*** Unpaired Electrons
 Yamaguchi Nd:         4.78
 Head-Gordon Nu:       2.93
 Head-Gordon Nu_nl:    2.64
  
**************************************************
 RAS-CI total energy for state   7:   -573.020971314694
  Excitation energy (eV) =  3.918789518428
  State symmetry: A     (C2       )
  <S^2>      :  2.0000
  Dipole Moment:   -0.0000 X    -0.0000 Y     0.7048 Z
  Trans. Moment:    0.0000 X    -0.0000 Y    -0.0621 Z
  Strength   :  0.000370
  Natural transition orbitals ( 1 -> 7 ):
   e-/hole pair  1 alpha:  ampl =  0.475519 ( 22.6%)   [11 : 12]
   e-/hole pair  2 alpha:  ampl =  0.134888 (  1.8%)   [10 : 13]
   e-/hole pair  1 beta :  ampl =  0.250272 (  6.3%)   [11 : 12]
   e-/hole pair  2 beta :  ampl =  0.115089 (  1.3%)   [10 : 13]
   Sum of square amplitudes: 0.33

 NATURAL OCCUPATION NUMBERS (higher than 1.0E-05)
            1           2           3           4           5           6
    1   2.0000000   2.0000000   2.0000000   2.0000000   2.0000000   2.0000000
            7           8           9          10          11          12
    1   2.0000000   2.0000000   2.0000000   2.0000000   2.0000000   2.0000000
           13          14          15          16          17          18
    1   2.0000000   2.0000000   2.0000000   2.0000000   2.0000000   2.0000000
           19          20          21          22          23          24
    1   2.0000000   2.0000000   2.0000000   1.9999986   1.9999973   1.9999971
           25          26          27          28          29          30
    1   1.9999955   1.9999944   1.9999921   1.9999893   1.9999887   1.9999838
           31          32          33          34          35          36
    1   1.9999714   1.9999704   1.9999448   1.9999445   1.9999218   1.9998791
           37          38          39          40          41          42
    1   1.9998707   1.9997726   1.9993993   1.9993176   1.9836320   1.9800547
           43          44          45          46          47          48
    1   1.9512226   1.9018309   1.8812527   1.7769474   1.6461287   1.4111375
           49          50          51          52          53          54
    1   0.5480078   0.4027009   0.3743230   0.0972676   0.0311822   0.0098434
           55          56          57          58          59          60
    1   0.0029604   0.0013726   0.0006277   0.0005213   0.0004807   0.0001784
           61          62          63          64          65          66
    1   0.0001269   0.0000786   0.0000571   0.0000504   0.0000252   0.0000173
           67
    1   0.0000101
Natural Orbitals stored in FCHK

  Amplitudes : 
  
 | HOLE  | ALPHA       | BETA        | PART  |    AMPLITUDE 
--------------------------------------------------
 |       | 11111111000 | 11110101000 |       |    -2.1755214770238E-01
 |       | 11111111000 | 11101100100 |       |    -1.0839103409944E-01
 |       | 11111110100 | 11111010000 |       |    -1.5963727176467E-01
 |       | 11111110100 | 11101110000 |       |    -1.6962824949306E-01
 |       | 11111110100 | 11101101000 |       |    -1.2297834711363E-01
 |       | 11111110010 | 11111001000 |       |     1.3175141166656E-01
 |       | 11111110010 | 11101110000 |       |     3.5198610599721E-01
 |       | 11111110001 | 11111100000 |       |     4.2744650522216E-01
 |       | 11111110001 | 11110110000 |       |     3.3426562054921E-01
 |       | 11111110001 | 11011110000 |       |    -1.4226362800930E-01
 |       | 11111110001 | 11011101000 |       |    -1.6709291565320E-01
 |       | 11111011010 | 11111100000 |       |    -1.2554754839766E-01
 |       | 11011111001 | 11111100000 |       |     1.6532597370506E-01
 |  37   | 11111111001 | 11110110000 |       |    -1.1957321581628E-01
 |  37   | 11111111010 | 11101110000 |       |    -1.2635094052818E-01
 |  37   | 11111110010 | 11101111000 |       |     1.1030729238701E-01
 |  37   | 11111110001 | 11110111000 |       |     1.0553448474418E-01
--------------------------------------------------
*** Contributions RASCI wfn    Active:  76.82
                                 Hole:  16.78
                                 Part:   6.40

      Mulliken population analysis 
 ---------------------------------------------------
   Atom    Charge (a.u.)   Spin (a.u.)  
 ---------------------------------------------------
   1  C    0.398276        0.030680 
   2  O   -0.324977        0.408841 
   3  C    0.160785        0.029623 
   4  C    0.161066        0.029624 
   5  C   -0.296947        0.249084 
   6  C   -0.201626        0.101329 
   7  C   -0.122589        0.245976 
   8  C   -0.116324        0.133687 
   9  C   -0.115804        0.006733 
  10  H    0.145218        0.008095 
  11  H    0.130829        0.001750 
  12  H    0.126607        0.001064 
  13  H    0.126110        0.001839 
  14  H    0.126823        0.001051 
  15  C   -0.296760        0.249089 
  16  C   -0.201412        0.101330 
  17  C   -0.116544        0.133692 
  18  C   -0.122738        0.245982 
  19  C   -0.115602        0.006732 
  20  H    0.145233        0.008096 
  21  H    0.126601        0.001065 
  22  H    0.130830        0.001750 
  23  H    0.126108        0.001839 
  24  H    0.126836        0.001050 
 ---------------------------------------------------
   Sum:    0.000000        2.000000 
 ---------------------------------------------------
 
  
 NATURAL OCCUPATION NUMBERS (higher than 1.0E-05)
            1           2           3           4           5           6
    1   2.0000000   2.0000000   2.0000000   2.0000000   2.0000000   2.0000000
            7           8           9          10          11          12
    1   2.0000000   2.0000000   2.0000000   2.0000000   2.0000000   2.0000000
           13          14          15          16          17          18
    1   2.0000000   2.0000000   2.0000000   2.0000000   2.0000000   2.0000000
           19          20          21          22          23          24
    1   2.0000000   2.0000000   2.0000000   1.9999986   1.9999973   1.9999971
           25          26          27          28          29          30
    1   1.9999955   1.9999944   1.9999921   1.9999893   1.9999887   1.9999838
           31          32          33          34          35          36
    1   1.9999714   1.9999704   1.9999448   1.9999445   1.9999218   1.9998791
           37          38          39          40          41          42
    1   1.9998707   1.9997726   1.9993993   1.9993176   1.9836320   1.9800547
           43          44          45          46          47          48
    1   1.9512226   1.9018309   1.8812527   1.7769474   1.6461287   1.4111375
           49          50          51          52          53          54
    1   0.5480078   0.4027009   0.3743230   0.0972676   0.0311822   0.0098434
           55          56          57          58          59          60
    1   0.0029604   0.0013726   0.0006277   0.0005213   0.0004807   0.0001784
           61          62          63          64          65          66
    1   0.0001269   0.0000786   0.0000571   0.0000504   0.0000252   0.0000173
           67
    1   0.0000101
  
*** Unpaired Electrons
 Yamaguchi Nd:         4.72
 Head-Gordon Nu:       2.94
 Head-Gordon Nu_nl:    2.74
  
**************************************************
 RAS-CI total energy for state   8:   -573.014354727074
  Excitation energy (eV) =  4.098836028058
  State symmetry: B     (C2       )
  <S^2>      :  2.0000
  Dipole Moment:    0.0000 X    -0.0000 Y     1.1555 Z
  Trans. Moment:   -0.2932 X    -0.0382 Y    -0.0000 Z
  Strength   :  0.008782
  Natural transition orbitals ( 1 -> 8 ):
   e-/hole pair  1 alpha:  ampl =  0.151092 (  2.3%)   [11 : 12]
   e-/hole pair  2 alpha:  ampl =  0.039546 (  0.2%)   [10 : 13]
   e-/hole pair  1 beta :  ampl =  0.347210 ( 12.1%)   [11 : 12]
   e-/hole pair  2 beta :  ampl =  0.057832 (  0.3%)   [10 : 13]
   Sum of square amplitudes: 0.15

 NATURAL OCCUPATION NUMBERS (higher than 1.0E-05)
            1           2           3           4           5           6
    1   2.0000000   2.0000000   2.0000000   2.0000000   2.0000000   2.0000000
            7           8           9          10          11          12
    1   2.0000000   2.0000000   2.0000000   2.0000000   2.0000000   2.0000000
           13          14          15          16          17          18
    1   2.0000000   2.0000000   2.0000000   2.0000000   2.0000000   2.0000000
           19          20          21          22          23          24
    1   2.0000000   2.0000000   2.0000000   1.9999989   1.9999977   1.9999971
           25          26          27          28          29          30
    1   1.9999964   1.9999956   1.9999944   1.9999902   1.9999896   1.9999878
           31          32          33          34          35          36
    1   1.9999803   1.9999777   1.9999567   1.9999498   1.9999399   1.9999261
           37          38          39          40          41          42
    1   1.9998933   1.9998863   1.9995025   1.9952086   1.9810315   1.9780464
           43          44          45          46          47          48
    1   1.9472661   1.9182434   1.7985536   1.6934528   1.6926578   1.6741051
           49          50          51          52          53          54
    1   0.4090418   0.3329870   0.2805941   0.2609123   0.0253436   0.0073445
           55          56          57          58          59          60
    1   0.0024965   0.0018685   0.0005168   0.0004669   0.0003767   0.0001464
           61          62          63          64          65          66
    1   0.0001126   0.0000784   0.0000776   0.0000275   0.0000270   0.0000150
           67
    1   0.0000133
Natural Orbitals stored in FCHK

  Amplitudes : 
  
 | HOLE  | ALPHA       | BETA        | PART  |    AMPLITUDE 
--------------------------------------------------
 |       | 11111111000 | 11111010000 |       |     3.1618301025139E-01
 |       | 11111110100 | 11111100000 |       |    -1.2325587873622E-01
 |       | 11111110100 | 11011110000 |       |    -3.3241867204874E-01
 |       | 11111110010 | 11110110000 |       |     3.7548347553153E-01
 |       | 11111110001 | 11101110000 |       |     3.5439816503247E-01
 |  34   | 11111111010 | 11110110000 |       |    -1.0812746658527E-01
 |  37   | 11111111010 | 11110110000 |       |    -1.3958671867800E-01
 |  34   | 11111111001 | 11101110000 |       |    -1.0377262373693E-01
 |  37   | 11111111001 | 11101110000 |       |    -1.3355685259158E-01
 |  34   | 11111111000 | 11111011000 |       |     1.1090389874473E-01
 |  37   | 11111111000 | 11111011000 |       |     1.4314633617502E-01
 |  34   | 11111110100 | 11111110000 |       |    -1.0207134990807E-01
 |  37   | 11111110100 | 11111110000 |       |    -1.3652783399190E-01
 |  37   | 11111110100 | 11011111000 |       |    -1.1626333188264E-01
 |  37   | 11111110010 | 11110111000 |       |     1.1108417436988E-01
 |  37   | 11111110001 | 11101111000 |       |     1.0421004091455E-01
 |       | 11111110000 | 11111010000 |  55   |    -1.2544678852679E-01
--------------------------------------------------
*** Contributions RASCI wfn    Active:  67.54
                                 Hole:  27.04
                                 Part:   5.42

      Mulliken population analysis 
 ---------------------------------------------------
   Atom    Charge (a.u.)   Spin (a.u.)  
 ---------------------------------------------------
   1  C    0.387087        0.045829 
   2  O   -0.421895        0.221369 
   3  C    0.165797        0.091908 
   4  C    0.166084        0.091908 
   5  C   -0.303648        0.199386 
   6  C   -0.177041        0.174714 
   7  C   -0.104234        0.156748 
   8  C   -0.096384        0.126981 
   9  C   -0.118847        0.107152 
  10  H    0.149764        0.003522 
  11  H    0.121925        0.002586 
  12  H    0.126383        0.000934 
  13  H    0.126495        0.001097 
  14  H    0.126919        0.001367 
  15  C   -0.303459        0.199385 
  16  C   -0.176821        0.174719 
  17  C   -0.096605        0.126987 
  18  C   -0.104385        0.156749 
  19  C   -0.118642        0.107153 
  20  H    0.149778        0.003522 
  21  H    0.126376        0.000935 
  22  H    0.121928        0.002586 
  23  H    0.126493        0.001097 
  24  H    0.126932        0.001367 
 ---------------------------------------------------
   Sum:    0.000000        2.000000 
 ---------------------------------------------------
 
  
 NATURAL OCCUPATION NUMBERS (higher than 1.0E-05)
            1           2           3           4           5           6
    1   2.0000000   2.0000000   2.0000000   2.0000000   2.0000000   2.0000000
            7           8           9          10          11          12
    1   2.0000000   2.0000000   2.0000000   2.0000000   2.0000000   2.0000000
           13          14          15          16          17          18
    1   2.0000000   2.0000000   2.0000000   2.0000000   2.0000000   2.0000000
           19          20          21          22          23          24
    1   2.0000000   2.0000000   2.0000000   1.9999989   1.9999977   1.9999971
           25          26          27          28          29          30
    1   1.9999964   1.9999956   1.9999944   1.9999902   1.9999896   1.9999878
           31          32          33          34          35          36
    1   1.9999803   1.9999777   1.9999567   1.9999498   1.9999399   1.9999261
           37          38          39          40          41          42
    1   1.9998933   1.9998863   1.9995025   1.9952086   1.9810315   1.9780464
           43          44          45          46          47          48
    1   1.9472661   1.9182434   1.7985536   1.6934528   1.6926578   1.6741051
           49          50          51          52          53          54
    1   0.4090418   0.3329870   0.2805941   0.2609123   0.0253436   0.0073445
           55          56          57          58          59          60
    1   0.0024965   0.0018685   0.0005168   0.0004669   0.0003767   0.0001464
           61          62          63          64          65          66
    1   0.0001126   0.0000784   0.0000776   0.0000275   0.0000270   0.0000150
           67
    1   0.0000133
  
*** Unpaired Electrons
 Yamaguchi Nd:         4.52
 Head-Gordon Nu:       2.64
 Head-Gordon Nu_nl:    2.18
  
**************************************************
 RAS-CI total energy for state   9:   -573.013822000943
  Excitation energy (eV) =  4.113332243637
  State symmetry: A     (C2       )
  <S^2>      :  2.0000
  Dipole Moment:   -0.0000 X    -0.0000 Y     0.5463 Z
  Trans. Moment:   -0.0000 X    -0.0000 Y     0.0969 Z
  Strength   :  0.000947
  Natural transition orbitals ( 1 -> 9 ):
   e-/hole pair  1 alpha:  ampl =  0.462135 ( 21.4%)   [11 : 12]
   e-/hole pair  2 alpha:  ampl =  0.189532 (  3.6%)   [10 : 13]
   e-/hole pair  1 beta :  ampl =  0.560562 ( 31.4%)   [11 : 12]
   e-/hole pair  2 beta :  ampl =  0.201248 (  4.1%)   [10 : 13]
   Sum of square amplitudes: 0.64

 NATURAL OCCUPATION NUMBERS (higher than 1.0E-05)
            1           2           3           4           5           6
    1   2.0000000   2.0000000   2.0000000   2.0000000   2.0000000   2.0000000
            7           8           9          10          11          12
    1   2.0000000   2.0000000   2.0000000   2.0000000   2.0000000   2.0000000
           13          14          15          16          17          18
    1   2.0000000   2.0000000   2.0000000   2.0000000   2.0000000   2.0000000
           19          20          21          22          23          24
    1   2.0000000   2.0000000   2.0000000   1.9999986   1.9999978   1.9999973
           25          26          27          28          29          30
    1   1.9999967   1.9999961   1.9999954   1.9999926   1.9999912   1.9999889
           31          32          33          34          35          36
    1   1.9999844   1.9999841   1.9999678   1.9999609   1.9999435   1.9999425
           37          38          39          40          41          42
    1   1.9999291   1.9999234   1.9996209   1.9995730   1.9831915   1.9796982
           43          44          45          46          47          48
    1   1.9676064   1.9307991   1.9220110   1.7053584   1.5771604   1.2036546
           49          50          51          52          53          54
    1   0.9594047   0.3046315   0.2977245   0.0772635   0.0760893   0.0111012
           55          56          57          58          59          60
    1   0.0035235   0.0006874   0.0003828   0.0002990   0.0002419   0.0001153
           61          62          63          64          65          66
    1   0.0001084   0.0000499   0.0000300   0.0000220   0.0000167   0.0000141
Natural Orbitals stored in FCHK

  Amplitudes : 
  
 | HOLE  | ALPHA       | BETA        | PART  |    AMPLITUDE 
--------------------------------------------------
 |       | 11111111000 | 11111100000 |       |     1.2995872204387E-01
 |       | 11111111000 | 11111000100 |       |    -1.8515358920293E-01
 |       | 11111111000 | 11011110000 |       |     1.1017882037957E-01
 |       | 11111111000 | 11011101000 |       |     4.9884665953610E-01
 |       | 11111110100 | 11111010000 |       |    -1.8337134811691E-01
 |       | 11111110100 | 11111001000 |       |    -3.3951503831689E-01
 |       | 11111011100 | 11111100000 |       |     1.7631844614448E-01
 |       | 11111110000 | 11111100000 |  55   |     4.0854468808849E-01
 |       | 11011111000 | 11111100000 |  55   |     1.4143029726576E-01
 |       | 11111110000 | 11011101000 |  55   |    -2.7176932047362E-01
 |       | 11111111000 | 11011100000 |  55   |    -1.5536651585578E-01
--------------------------------------------------
*** Contributions RASCI wfn    Active:  60.20
                                 Hole:   3.73
                                 Part:  36.07

      Mulliken population analysis 
[...]
246 A   247 A   243 B   248 A   249 A                                          
 
 Beta MOs, Restricted
 -- Doubly Occupied --           
-20.658 -11.299 -11.261 -11.261 -11.240 -11.240 -11.240 -11.240
  1 A     2 A     1 B     3 A     2 B     4 A     3 B     5 A                  
-11.239 -11.239 -11.239 -11.239 -11.237 -11.237  -1.459  -1.167
  4 B     6 A     7 A     5 B     8 A     6 B     9 A    10 A                  
 -1.156  -1.068  -1.027  -1.025  -1.020  -0.923  -0.848  -0.836
  7 B    11 A     8 B    12 A     9 B    13 A    10 B    14 A                  
 -0.825  -0.784  -0.722  -0.710  -0.674  -0.662  -0.645  -0.628
 11 B    15 A    12 B    16 A    17 A    13 B    14 B    18 A                  
 -0.608  -0.616  -0.596  -0.600  -0.611  -0.526  -0.514  -0.496
 19 A    15 B    20 A    16 B    17 B    21 A    18 B    22 A                  
 -0.495  -0.512  -0.516  -0.387  -0.352  -0.350  -0.348
 19 B    23 A    20 B    21 B    24 A    22 B    25 A                          
 -- Singly Occupied (Vacant) --  
 -0.644  -0.271
 23 B    24 B                                                                  
 -- Virtual --                   
  0.095   0.112   0.122   0.154   0.159   0.162   0.173   0.182
 26 A    27 A    25 B    28 A    26 B    27 B    29 A    28 B                  
  0.185   0.198   0.206   0.208   0.213   0.219   0.247   0.263
 30 A    29 B    31 A    30 B    32 A    31 B    33 A    32 B                  
  0.285   0.290   0.297   0.316   0.319   0.329   0.332   0.339
 34 A    33 B    35 A    36 A    34 B    37 A    35 B    36 B                  
  0.340   0.344   0.346   0.362   0.363   0.371   0.373   0.391
 38 A    37 B    39 A    38 B    40 A    39 B    41 A    40 B                  
  0.399   0.402   0.413   0.423   0.437   0.440   0.454   0.457
 42 A    43 A    44 A    41 B    42 B    45 A    46 A    43 B                  
  0.462   0.466   0.473   0.479   0.489   0.500   0.506   0.511
 47 A    44 B    48 A    45 B    46 B    49 A    50 A    47 B                  
  0.527   0.534   0.538   0.543   0.545   0.550   0.563   0.567
 48 B    51 A    49 B    52 A    50 B    53 A    51 B    54 A                  
  0.568   0.572   0.581   0.590   0.591   0.599   0.612   0.614
 52 B    55 A    56 A    57 A    53 B    54 B    58 A    55 B                  
  0.627   0.629   0.633   0.648   0.661   0.662   0.668   0.678
 56 B    59 A    60 A    57 B    58 B    61 A    59 B    62 A                  
  0.687   0.689   0.708   0.744   0.753   0.757   0.770   0.782
 60 B    63 A    64 A    61 B    62 B    63 B    65 A    66 A                  
  0.803   0.818   0.836   0.842   0.843   0.852   0.857   0.878
 67 A    64 B    65 B    68 A    66 B    67 B    69 A    68 B                  
  0.880   0.898   0.910   0.910   0.910   0.919   0.924   0.931
 70 A    71 A     0 xxx   0 xxx  69 B    72 A    70 B    73 A                  
  0.936   0.956   0.973   0.978   0.977   1.000   1.008   1.016
 71 B    74 A    72 B    75 A    73 B    74 B    76 A    75 B                  
  1.034   1.058   1.060   1.072   1.072   1.078   1.088   1.090
 77 A    78 A    76 B    79 A    77 B    80 A    81 A    78 B                  
  1.107   1.116   1.155   1.183   1.183   1.194   1.199   1.214
 79 B    82 A    80 B    83 A    81 B    84 A    82 B    85 A                  
  1.223   1.236   1.252   1.271   1.298   1.312   1.327   1.342
 83 B    84 B    86 A    87 A    85 B    86 B    88 A    89 A                  
  1.345   1.355   1.403   1.407   1.424   1.424   1.431   1.436
 87 B    90 A    88 B    91 A    89 B    92 A    90 B    93 A                  
  1.451   1.451   1.477   1.483   1.494   1.508   1.509   1.515
 91 B    94 A    95 A    92 B    93 B    94 B    96 A    97 A                  
  1.527   1.538   1.568   1.575   1.588   1.622   1.622   1.640
 95 B    98 A    96 B    99 A    97 B    98 B   100 A   101 A                  
  1.670   1.683   1.698   1.701   1.723   1.730   1.731   1.734
102 A    99 B   103 A   100 B   104 A   101 B   102 B   105 A                  
  1.785   1.785   1.790   1.804   1.809   1.806   1.821   1.834
106 A   103 B   107 A   104 B   105 B   108 A   109 A   106 B                  
  1.836   1.859   1.867   1.894   1.899   1.907   1.928   1.935
110 A   107 B   111 A   108 B   112 A   109 B   113 A   110 B                  
  1.963   1.974   1.988   1.988   1.991   2.000   2.001   2.016
114 A   115 A   111 B   116 A   112 B   113 B   117 A   114 B                  
  2.020   2.045   2.072   2.077   2.122   2.133   2.141   2.156
118 A   119 A   115 B   116 B   120 A   117 B   121 A   122 A                  
  2.155   2.175   2.195   2.199   2.228   2.269   2.290   2.303
118 B   119 B   120 B   123 A   124 A   121 B   125 A   126 A                  
  2.307   2.313   2.337   2.349   2.368   2.384   2.403   2.418
122 B   123 B   127 A   124 B   128 A   125 B   129 A   126 B                  
  2.422   2.436   2.455   2.477   2.478   2.489   2.501   2.511
130 A   131 A   127 B   128 B   132 A   133 A   129 B   134 A                  
  2.516   2.550   2.556   2.578   2.587   2.625   2.644   2.683
130 B   135 A   131 B   132 B   136 A   133 B   137 A   134 B                  
  2.693   2.706   2.742   2.759   2.771   2.784   2.787   2.812
138 A   135 B   139 A   136 B   140 A   141 A   137 B   138 B                  
  2.841   2.869   2.875   2.878   2.902   2.908   2.923   2.926
142 A   139 B   143 A   140 B   144 A   141 B   145 A   142 B                  
  2.943   2.957   2.960   2.961   2.979   2.977   2.992   2.994
143 B   146 A   144 B   147 A   148 A   145 B   146 B   149 A                  
  3.003   3.005   3.011   3.025   3.032   3.045   3.053   3.058
147 B   150 A   151 A   148 B   149 B   152 A   150 B   153 A                  
  3.083   3.084   3.090   3.098   3.108   3.114   3.126   3.130
151 B   154 A   155 A   152 B   156 A   153 B   157 A   154 B                  
  3.139   3.153   3.160   3.165   3.170   3.171   3.192   3.202
158 A   155 B   159 A   156 B   160 A   157 B   161 A   158 B                  
  3.208   3.228   3.232   3.238   3.292   3.292   3.307   3.326
159 B   162 A   163 A   160 B   164 A   161 B   165 A   162 B                  
  3.337   3.348   3.361   3.370   3.385   3.402   3.413   3.415
166 A   163 B   167 A   164 B   168 A   165 B   166 B   169 A                  
  3.432   3.438   3.456   3.460   3.463   3.473   3.483   3.483
170 A   167 B   171 A   168 B   169 B   172 A   173 A   174 A                  
  3.491   3.512   3.517   3.521   3.530   3.541   3.545   3.567
170 B   171 B   172 B   175 A   176 A   177 A   173 B   178 A                  
  3.582   3.598   3.607   3.619   3.623   3.635   3.638   3.654
174 B   179 A   175 B   176 B   180 A   181 A   177 B   182 A                  
  3.669   3.686   3.692   3.694   3.703   3.707   3.716   3.724
178 B   179 B   183 A   180 B   181 B   184 A   182 B   185 A                  
  3.736   3.748   3.760   3.786   3.788   3.796   3.799   3.805
183 B   186 A   184 B   187 A   185 B   188 A   186 B   189 A                  
  3.813   3.817   3.830   3.847   3.859   3.871   3.879   3.886
190 A   187 B   191 A   188 B   192 A   193 A   189 B   190 B                  
  3.900   3.908   3.909   3.947   3.991   3.998   4.020   4.026
194 A   191 B   195 A   192 B   196 A   197 A   198 A   193 B                  
  4.041   4.070   4.075   4.092   4.118   4.149   4.173   4.199
194 B   195 B   199 A   196 B   200 A   201 A   197 B   198 B                  
  4.238   4.259   4.285   4.300   4.309   4.312   4.338   4.347
202 A   199 B   200 B   203 A   201 B   204 A   202 B   205 A                  
  4.376   4.395   4.425   4.457   4.472   4.475   4.506   4.508
203 B   206 A   204 B   207 A   205 B   208 A   206 B   209 A                  
  4.536   4.540   4.557   4.575   4.576   4.581   4.588   4.595
207 B   210 A   208 B   211 A   209 B   212 A   213 A   210 B                  
  4.603   4.629   4.636   4.653   4.671   4.688   4.701   4.740
214 A   215 A   211 B   212 B   213 B   216 A   217 A   214 B                  
  4.784   4.790   4.868   4.895   4.902   4.991   5.008   5.010
215 B   218 A   219 A   220 A   216 B   217 B   221 A   218 B                  
  5.018   5.044   5.058   5.071   5.111   5.136   5.172   5.247
222 A   223 A   219 B   220 B   224 A   221 B   225 A   222 B                  
  5.262   5.276   5.295   5.311   5.395   5.454   5.470   5.532
226 A   227 A   223 B   228 A   224 B   225 B   229 A   226 B                  
  5.562   5.585   5.586   5.618   5.634   5.721   5.764   5.768
227 B   230 A   228 B   231 A   229 B   232 A   230 B   233 A                  
  5.834   5.832   5.862   5.864   6.002   6.055   6.055   6.329
231 B   234 A   232 B   235 A   236 A   237 A   233 B   234 B                  
  6.594   6.800   6.790   6.966   7.243   7.426   7.461  23.100
238 A   235 B   239 A   240 A   236 B   241 A   237 B   242 A                  
 23.323  23.676  23.684  23.700  23.706  23.818  23.847  23.885
238 B   243 A   239 B   244 A   240 B   241 B   245 A   242 B                  
 23.939  24.181  24.248  24.494  45.382
246 A   247 A   243 B   248 A   249 A                                          
 --------------------------------------------------------------
 
          Ground-State Mulliken Net Atomic Charges

     Atom                 Charge (a.u.)
  ----------------------------------------
      1 C                     0.286234
      2 O                    -0.221444
      3 C                     0.180091
      4 C                     0.180361
      5 C                    -0.330927
      6 C                    -0.230321
      7 C                    -0.105450
      8 C                    -0.078732
      9 C                    -0.146293
     10 H                     0.154250
     11 H                     0.143275
     12 H                     0.127302
     13 H                     0.126434
     14 H                     0.127718
     15 C                    -0.330744
     16 C                    -0.230114
     17 C                    -0.078946
     18 C                    -0.105593
     19 C                    -0.146097
     20 H                     0.154265
     21 H                     0.127297
     22 H                     0.143272
     23 H                     0.126432
     24 H                     0.127730
  ----------------------------------------
  Sum of atomic charges =     0.000000

  Do orbital-by-orbital Lowdin population analysis
 
 
 Partial Mulliken analysis unavailable for frozen orbitals
 
 -----------------------------------------------------------------
                    Cartesian Multipole Moments
 -----------------------------------------------------------------
    Charge (ESU x 10^10)
                 0.0000
    Dipole Moment (Debye)
         X       0.0000      Y       0.0000      Z      -1.2403
       Tot       1.2403
    Quadrupole Moments (Debye-Ang)
        XX     -70.5259     XY      -2.3255     YY     -86.4440
        XZ      -0.0000     YZ      -0.0000     ZZ     -78.6484
    Octopole Moments (Debye-Ang^2)
       XXX       0.0000    XXY       0.0000    XYY      -0.0000
       YYY       0.0000    XXZ      -1.6719    XYZ     -16.8560
       YYZ       3.7668    XZZ       0.0000    YZZ       0.0000
       ZZZ      -5.0451
    Hexadecapole Moments (Debye-Ang^3)
      XXXX   -3099.2427   XXXY     -65.8070   XXYY    -666.2262
      XYYY      -4.3101   YYYY    -208.5015   XXXZ      -0.0001
      XXYZ      -0.0000   XYYZ      -0.0000   YYYZ       0.0000
      XXZZ    -643.5833   XYZZ       8.0175   YYZZ    -151.0575
      XZZZ      -0.0000   YZZZ      -0.0000   ZZZZ    -736.3449
 -----------------------------------------------------------------
 Mayer SCF Bond Order, atomic valence on the diagonal:

            1           2           3           4           5           6
    1   1.7547322   0.1597129   0.2293561   0.0697691   0.0137770   0.0524818
    2   0.1597129   1.1032004  -0.0302247  -0.0302050   0.0072896   0.0197268
    3   0.2293561  -0.0302247   3.6750207  -0.0719751   0.0017499   0.0072078
    4   0.0697691  -0.0302050  -0.0719751   3.6750544   1.3576825   1.3822919
    5   0.0137770   0.0072896   0.0017499   1.3576825   4.0190813   0.0522992
    6   0.0524818   0.0197268   0.0072078   1.3822919   0.0522992   3.9783969
    7   0.0140114  -0.0000036  -0.0007995  -0.0273988   0.0634408   1.4661570
    8   0.0245196   0.0011518   0.0024988  -0.0472869   1.4845714   0.0610399
    9   0.0155069   0.0034278   0.0006780   0.0465061   0.0619042   0.0429067
   10   0.0054736   0.0001352  -0.0003649  -0.0112309   0.9761987   0.0058155
   11   0.0021392   0.0081445  -0.0000722  -0.0031697   0.0062084   0.9701662
   12   0.0016535   0.0001087   0.0000549   0.0056781  -0.0123491   0.0006222
   13  -0.0026128   0.0000569   0.0001783   0.0059075   0.0005238  -0.0121027
   14  -0.0002190   0.0000368   0.0000302   0.0006196   0.0051993   0.0053833
   15   0.0343801   0.0072920   1.3576519   0.0017826   0.0230842   0.0081512
   16   0.0339277   0.0197318   1.3822445   0.0072242   0.0081451   0.0030867
   17  -0.0460287   0.0011506  -0.0471808   0.0024798  -0.0025486  -0.0021342
   18  -0.0174215  -0.0000057  -0.0272935  -0.0008142  -0.0013149   0.0004558
   19   0.0100997   0.0034290   0.0464784   0.0006921   0.0027500   0.0021291
   20  -0.0076019   0.0001351  -0.0112141  -0.0003653  -0.0002651   0.0000089
   21   0.0060059   0.0001089   0.0056798   0.0000544   0.0000174   0.0000832
   22  -0.0041873   0.0081446  -0.0031791  -0.0000703   0.0002057   0.0000441
   23   0.0026654   0.0000569   0.0059091   0.0001788  -0.0000187   0.0000282
   24   0.0000247   0.0000368   0.0006164   0.0000312   0.0000947   0.0000635
            7           8           9          10          11          12
    1   0.0140114   0.0245196   0.0155069   0.0054736   0.0021392   0.0016535
    2  -0.0000036   0.0011518   0.0034278   0.0001352   0.0081445   0.0001087
    3  -0.0007995   0.0024988   0.0006780  -0.0003649  -0.0000722   0.0000549
    4  -0.0273988  -0.0472869   0.0465061  -0.0112309  -0.0031697   0.0056781
    5   0.0634408   1.4845714   0.0619042   0.9761987   0.0062084  -0.0123491
    6   1.4661570   0.0610399   0.0429067   0.0058155   0.9701662   0.0006222
    7   3.9286879   0.0200978   1.4344537   0.0006291  -0.0118716   0.0057307
    8   0.0200978   3.9007581   1.4073301  -0.0116554   0.0006091   0.9793611
    9   1.4344537   1.4073301   3.9821951   0.0065026   0.0061336  -0.0100988
   10   0.0006291  -0.0116554   0.0065026   0.9677970   0.0007044  -0.0001531
   11  -0.0118716   0.0006091   0.0061336   0.0007044   0.9755160   0.0000044
   12   0.0057307   0.9793611  -0.0100988  -0.0001531   0.0000044   0.9704728
   13   0.9804872   0.0060096  -0.0102763   0.0000099  -0.0001077   0.0006701
   14  -0.0101525  -0.0105820   0.9795625   0.0005336   0.0005739  -0.0001221
   15  -0.0013190  -0.0025483   0.0027524  -0.0002638   0.0002057   0.0000172
   16   0.0004589  -0.0021251   0.0021242   0.0000102   0.0000444   0.0000831
   17   0.0008190   0.0036559  -0.0010719   0.0002083  -0.0000583   0.0000098
   18  -0.0001275   0.0008153   0.0002256   0.0004132   0.0000199  -0.0000395
   19   0.0002236  -0.0010697   0.0015285   0.0004142   0.0000056   0.0000379
   20   0.0004131   0.0002104   0.0004146  -0.0035408   0.0000148   0.0000062
   21  -0.0000396   0.0000096   0.0000380   0.0000062   0.0000053   0.0000014
   22   0.0000200  -0.0000581   0.0000056   0.0000147   0.0000020   0.0000053
   23   0.0000087   0.0000339   0.0000041   0.0000029   0.0000025  -0.0000008
   24   0.0000058  -0.0000711   0.0000369   0.0000102   0.0000026  -0.0000004
           13          14          15          16          17          18
    1  -0.0026128  -0.0002190   0.0343801   0.0339277  -0.0460287  -0.0174215
    2   0.0000569   0.0000368   0.0072920   0.0197318   0.0011506  -0.0000057
    3   0.0001783   0.0000302   1.3576519   1.3822445  -0.0471808  -0.0272935
    4   0.0059075   0.0006196   0.0017826   0.0072242   0.0024798  -0.0008142
    5   0.0005238   0.0051993   0.0230842   0.0081451  -0.0025486  -0.0013149
    6  -0.0121027   0.0053833   0.0081512   0.0030867  -0.0021342   0.0004558
    7   0.9804872  -0.0101525  -0.0013190   0.0004589   0.0008190  -0.0001275
    8   0.0060096  -0.0105820  -0.0025483  -0.0021251   0.0036559   0.0008153
    9  -0.0102763   0.9795625   0.0027524   0.0021242  -0.0010719   0.0002256
   10   0.0000099   0.0005336  -0.0002638   0.0000102   0.0002083   0.0004132
   11  -0.0001077   0.0005739   0.0002057   0.0000444  -0.0000583   0.0000199
   12   0.0006701  -0.0001221   0.0000172   0.0000831   0.0000098  -0.0000395
   13   0.9719989  -0.0001334  -0.0000185   0.0000283   0.0000337   0.0000087
   14  -0.0001334   0.9715138   0.0000965   0.0000638  -0.0000722   0.0000057
   15  -0.0000185   0.0000965   4.0189015   0.0521831   1.4846376   0.0634515
   16   0.0000283   0.0000638   0.0521831   3.9783333   0.0610688   1.4662333
   17   0.0000337  -0.0000722   1.4846376   0.0610688   3.9010926   0.0201550
   18   0.0000087   0.0000057   0.0634515   1.4662333   0.0201550   3.9289643
   19   0.0000042   0.0000373   0.0617941   0.0428142   1.4074341   1.4345411
   20   0.0000029   0.0000103   0.9761646   0.0058094  -0.0116308   0.0006303
   21  -0.0000008  -0.0000005  -0.0123460   0.0006236   0.9793604   0.0057318
   22   0.0000025   0.0000026   0.0062085   0.9701667   0.0006092  -0.0118726
   23   0.0000010  -0.0000001   0.0005232  -0.0120952   0.0060100   0.9804752
   24  -0.0000001   0.0000013   0.0051994   0.0053822  -0.0105684  -0.0101391
           19          20          21          22          23          24
    1   0.0100997  -0.0076019   0.0060059  -0.0041873   0.0026654   0.0000247
    2   0.0034290   0.0001351   0.0001089   0.0081446   0.0000569   0.0000368
    3   0.0464784  -0.0112141   0.0056798  -0.0031791   0.0059091   0.0006164
    4   0.0006921  -0.0003653   0.0000544  -0.0000703   0.0001788   0.0000312
    5   0.0027500  -0.0002651   0.0000174   0.0002057  -0.0000187   0.0000947
    6   0.0021291   0.0000089   0.0000832   0.0000441   0.0000282   0.0000635
    7   0.0002236   0.0004131  -0.0000396   0.0000200   0.0000087   0.0000058
    8  -0.0010697   0.0002104   0.0000096  -0.0000581   0.0000339  -0.0000711
    9   0.0015285   0.0004146   0.0000380   0.0000056   0.0000041   0.0000369
   10   0.0004142  -0.0035408   0.0000062   0.0000147   0.0000029   0.0000102
   11   0.0000056   0.0000148   0.0000053   0.0000020   0.0000025   0.0000026
   12   0.0000379   0.0000062   0.0000014   0.0000053  -0.0000008  -0.0000004
   13   0.0000042   0.0000029  -0.0000008   0.0000025   0.0000010  -0.0000001
   14   0.0000373   0.0000103  -0.0000005   0.0000026  -0.0000001   0.0000013
   15   0.0617941   0.9761646  -0.0123460   0.0062085   0.0005232   0.0051994
   16   0.0428142   0.0058094   0.0006236   0.9701667  -0.0120952   0.0053822
   17   1.4074341  -0.0116308   0.9793604   0.0006092   0.0060100  -0.0105684
   18   1.4345411   0.0006303   0.0057318  -0.0118726   0.9804752  -0.0101391
   19   3.9821869   0.0064970  -0.0100983   0.0061331  -0.0102683   0.9795256
   20   0.0064970   0.9677880  -0.0001519   0.0007045   0.0000098   0.0005344
   21  -0.0100983  -0.0001519   0.9704792   0.0000045   0.0006702  -0.0001220
   22   0.0061331   0.0007045   0.0000045   0.9755137  -0.0001077   0.0005743
   23  -0.0102683   0.0000098   0.0006702  -0.0001077   0.9720043  -0.0001328
   24   0.9795256   0.0005344  -0.0001220   0.0005743  -0.0001328   0.9715020


 Total job time:  148804.89s(wall), 134592.86s(cpu) 
 Sat Sep  9 05:57:42 2023

        *************************************************************
        *                                                           *
        *  Thank you very much for using Q-Chem.  Have a nice day.  *
        *                                                           *
        *************************************************************


