                  Welcome to Q-Chem
     A Quantum Leap Into The Future Of Chemistry


 Q-Chem 6.0 (devel), Q-Chem, Inc., Pleasanton, CA (2022)

 E. Epifanovsky,  A. T. B. Gilbert,  Xintian Feng,  Joonho Lee,  Yuezhi Mao,  
 N. Mardirossian,  P. Pokhilko,  A. White,  M. Wormit,  M. P. Coons,  
 A. L. Dempwolff,  Zhengting Gan,  D. Hait,  P. R. Horn,  L. D. Jacobson,  
 I. Kaliman,  J. Kussmann,  A. W. Lange,  Ka Un Lao,  D. S. Levine,  Jie Liu,  
 S. C. McKenzie,  A. F. Morrison,  K. Nanda,  F. Plasser,  D. R. Rehn,  
 M. L. Vidal,  Zhi-Qiang You,  Ying Zhu,  B. Alam,  B. Albrecht,  
 A. Aldossary,  E. Alguire,  J. H. Andersen,  V. Athavale,  D. Barton,  
 K. Begam,  A. Behn,  N. Bellonzi,  Y. A. Bernard,  E. J. Berquist,  
 H. Burton,  A. Carreras,  K. Carter-Fenk,  Romit Chakraborty,  
 Chandrima Chakravarty,  Junhan Chen,  A. D. Chien,  K. D. Closser,  
 V. Cofer-Shabica,  L. Cunha,  S. Dasgupta,  Jia Deng,  M. de Wergifosse,  
 M. Diedenhofen,  Hainam Do,  S. Ehlert,  Po-Tung Fang,  S. Fatehi,  
 Qingguo Feng,  T. Friedhoff,  B. Ganoe,  J. Gayvert,  Qinghui Ge,  
 G. Gidofalvi,  M. Goldey,  J. Gomes,  C. Gonzalez-Espinoza,  S. Gulania,  
 A. Gunina,  J. A. Gyamfi,  M. W. D. Hanson-Heine,  P. H. P. Harbach,  
 A. W. Hauser,  M. F. Herbst,  M. Hernandez Vera,  M. Hodecker,  
 Z. C. Holden,  S. Houck,  Xunkun Huang,  Kerwin Hui,  B. C. Huynh,  
 K. Ikeda,  M. Ivanov,  Hyunjun Ji,  Zuxin Jin,  Hanjie Jiang,  B. Kaduk,  
 S. Kaehler,  R. Kang,  K. Khistyaev,  Jaehoon Kim,  Yongbin Kim,  
 P. Klunzinger,  Z. Koczor-Benda,  Joong Hoon Koh,  D. Kosenkov,  
 Saikiran Kotaru,  L. Koulias,  T. Kowalczyk,  C. M. Krauter,  K. Kue,  
 A. Kunitsa,  T. Kus,  A. Landau,  K. V. Lawler,  D. Lefrancois,  S. Lehtola,  
 Rain Li,  Shaozhi Li,  Yi-Pei Li,  Jiashu Liang,  M. Liebenthal,  
 Hung-Hsuan Lin,  You-Sheng Lin,  Fenglai Liu,  Kuan-Yu Liu,  
 M. Loipersberger,  A. Luenser,  C. Malbon,  A. Manjanath,  P. Manohar,  
 E. Mansoor,  S. F. Manzer,  Shan-Ping Mao,  A. V. Marenich,  T. Markovich,  
 S. Mason,  F. Matz,  S. A. Maurer,  P. F. McLaughlin,  M. F. S. J. Menger,  
 J.-M. Mewes,  S. A. Mewes,  P. Morgante,  Mohammad Mostafanejad,  
 J. W. Mullinax,  K. J. Oosterbaan,  G. Paran,  V. Parravicini,  
 Alexander C. Paul,  Suranjan K. Paul,  F. Pavosevic,  Zheng Pei,  S. Prager,  
 E. I. Proynov,  E. Ramos,  B. Rana,  A. E. Rask,  A. Rettig,  R. M. Richard,  
 F. Rob,  E. Rossomme,  T. Scheele,  M. Scheurer,  M. Schneider,  
 P. E. Schneider,  N. Sergueev,  S. M. Sharada,  Hengyuan Shen,  
 W. Skomorowski,  D. W. Small,  C. J. Stein,  Yingli Su,  Yu-Chuan Su,  
 E. J. Sundstrom,  Zhen Tao,  J. Thirman,  Hung-Yi Tsai,  T. Tsuchimochi,  
 N. M. Tubman,  C. Utku,  S. P. Veccham,  O. Vydrov,  J. Wenzel,  
 Jonathan Wong,  J. Witte,  A. Yamada,  Chou-Hsun Yang,  Kun Yao,  
 S. Yeganeh,  S. R. Yost,  A. Zech,  F. Zeller,  Igor Ying Zhang,  
 Xing Zhang,  Yu Zhang,  D. Zuev,  A. Aspuru-Guzik,  A. T. Bell,  
 N. A. Besley,  K. B. Bravaya,  B. R. Brooks,  D. Casanova,  Jeng-Da Chai,  
 Hsing-Ta Chen,  S. Coriani,  C. J. Cramer,  A. E. DePrince, III,  
 R. A. DiStasio Jr.,  A. Dreuw,  B. D. Dunietz,  T. R. Furlani,  
 W. A. Goddard III,  S. Grimme,  S. Hammes-Schiffer,  T. Head-Gordon,  
 W. J. Hehre,  Chao-Ping Hsu,  T.-C. Jagau,  Yousung Jung,  A. Klamt,  
 Jing Kong,  D. S. Lambrecht,  Xiangyuan Li,  WanZhen Liang,  N. J. Mayhall,  
 C. W. McCurdy,  J. B. Neaton,  T. Neudecker,  C. Ochsenfeld,  
 J. A. Parkhill,  R. Peverati,  V. A. Rassolov,  Haisheng Ren,  Yihan Shao,  
 L. V. Slipchenko,  R. P. Steele,  J. E. Subotnik,  A. J. W. Thom,  
 A. Tkatchenko,  D. G. Truhlar,  T. Van Voorhis,  Fan Wang,  
 T. A. Wesolowski,  K. B. Whaley,  H. L. Woodcock III,  P. M. Zimmerman,  
 S. Faraji,  P. M. W. Gill,  M. Head-Gordon,  J. M. Herbert,  A. I. Krylov

 Contributors to earlier versions of Q-Chem not listed above: 
 R. D. Adamson,  B. Austin,  R. Baer,  J. Baker,  G. J. O. Beran,  
 K. Brandhorst,  S. T. Brown,  E. F. C. Byrd,  Arup K. Chakraborty,  
 G. K. L. Chan,  Chun-Min Chang,  Yunqing Chen,  C.-L. Cheng,  
 Siu Hung Chien,  D. M. Chipman,  D. L. Crittenden,  H. Dachsel,  
 R. J. Doerksen,  A. D. Dutoi,  R. G. Edgar,  J. Fosso-Tande,  
 L. Fusti-Molnar,  D. Ghosh,  A. Ghysels,  A. Golubeva-Zadorozhnaya,  
 J. Gonthier,  M. S. Gordon,  S. R. Gwaltney,  G. Hawkins,  J. E. Herr,  
 A. Heyden,  S. Hirata,  E. G. Hohenstein,  G. Kedziora,  F. J. Keil,  
 C. Kelley,  Jihan Kim,  R. A. King,  R. Z. Khaliullin,  P. P. Korambath,  
 W. Kurlancheek,  A. Laurent,  A. M. Lee,  M. S. Lee,  S. V. Levchenko,  
 Ching Yeh Lin,  D. Liotard,  E. Livshits,  R. C. Lochan,  I. Lotan,  
 L. A. Martinez-Martinez,  P. E. Maslen,  N. Nair,  D. P. O'Neill,  
 D. Neuhauser,  E. Neuscamman,  C. M. Oana,  R. Olivares-Amaya,  R. Olson,  
 T. M. Perrine,  B. Peters,  P. A. Pieniazek,  A. Prociuk,  Y. M. Rhee,  
 J. Ritchie,  M. A. Rohrdanz,  E. Rosta,  N. J. Russ,  H. F. Schaefer III,  
 M. W. Schmidt,  N. E. Schultz,  S. Sharma,  N. Shenvi,  C. D. Sherrill,  
 A. C. Simmonett,  A. Sodt,  T. Stein,  D. Stuck,  K. S. Thanthiriwatte,  
 V. Vanovschi,  L. Vogt,  Tao Wang,  A. Warshel,  M. A. Watson,  
 C. F. Williams,  Q. Wu,  X. Xu,  Jun Yang,  W. Zhang,  Yan Zhao

   Please cite Q-Chem as follows:
  "Software for the frontiers of quantum chemistry:
   An overview of developments in the Q-Chem 5 package"
   J. Chem. Phys. 155, 084801 (2021)
   https://doi.org/10.1063/5.0055522 (open access)

 Q-Chem 6.0.1 for Intel X86 EM64T Linux

 Parts of Q-Chem use Armadillo 9.900.5 (Nocturnal Misbehaviour).
 http://arma.sourceforge.net/

 Q-Chem begins on Tue Sep 12 05:20:08 2023  

 Host: atlas-091
0

     Scratch files written to ./qchem6532//
 Processing $rem in /scratch/abel/SOFTWARE/qchem/config/preferences:
 Processing $rem in /dipc/acebg/.qchemrc:

 Checking the input file for inconsistencies... 	...done.

--------------------------------------------------------------
User input:
--------------------------------------------------------------
$comment
 RAS-SF CALCULATION
$end

$molecule
 READ fluorenone.molecule
$end

$rem
!**CALCULATION TYPE***     
JOBTYPE            sp    
EXCHANGE           HF
CORRELATION        RASCI    !RASCI=Casanova; RASCI2=Zimmerman
BASIS              def2-TZVP
BASIS2             STO-3G

!***SCF REFERENCE***
INPUT_BOHR          TRUE
!SKIP_SCFMAN        FALSE
UNRESTRICTED       FALSE
!SCF_GUESS          core
!SCF_GUESS_MIX      FALSE
!SCF_GUESS_ALWAYS   FALSE
MAX_SCF_CYCLES     999
!SCF_CONVERGENCE    8
SCF_ALGORITHM      DIIS_GDM !DIIS,DM,DIIS_DM,GDM,DIIS_GDM,GD

!SYMMETRY           TRUE   !use of symmetry for calculating integrals
!SYM_IGNORE         FALSE  !turn off using symmetry
!SYM_TOL            5      !tolerance for determining point group
!USE_ABELIAN_SUBGROUP      !define to use abelian group

!THRESH             14
SCF_FINAL_PRINT     1 !0,1,2,3

!****RAS-SF****
RAS_ROOTS          10       !number of RAS-CI roots to be computed
SET_ITER           150     !number of iterations in RASCI
RAS_ELEC           14       !number of electrons in RAS2
RAS_ELEC_ALPHA     8       !spin-α electrons in RAS2 
RAS_ELEC_BETA      6       !spin-β electrons in RAS2

RAS_ACT            12       !number of orbitals in RAS2 
RAS_ACT_ORB  [36,41,42,44,45,46,47,48,49,50,53,57]  !user-selected RAS2 orbitals
RAS_OCC            40       !number of orbitals in RAS1
N_FROZEN_CORE      20     !Number of frozen core orbitals
N_FROZEN_VIRTUAL   410    !Number of frozen virtual orbitals

RAS_DO_HOLE        TRUE   !presence of hole excitations in RAS-CI wave function
RAS_DO_PART        TRUE   !presence of particle excitations
!RAS_AMPL_PRINT     10     !threshold (×10 2 ) for the CI amplitudes

!RAS_GUESS_CS       0      !number of closed shell guess conﬁgurations
!RAS_SPIN_MULT      0      !spin multiplicity. Only for Ms = 0 
!RAS_SRDFT          FALSE  !short-range density functional RAS-CI
!RAS_NFRAG          0     !fragments of excitation analysis in RASCI

RAS_PRINT          2      !level of information
RAS_NATORB         TRUE   !computation of the natural orbital occupancies
!RAS_NATORB_STATE  0      !Saves NO of i RAS computed state in .fchk ﬁle
!RAS_FOD            TRUE

!****RAS-SOC****
CALC_SOC           TRUE   !calculate SOC for EOM-CC, RAS-CI, ADC, TDDFT/TDA and TDDFT
!RAS_SOC_2E        TRUE   !two-electron mean-ﬁeld contribution, default=true
RAS_SOC_SYM_DENS   TRUE   !averaging of α and β densities

!****MEMORY****
MEM_TOTAL          60000 !Default 2000 MB
MEM_STATIC         10000  !Default 64 MB

!**Molecular Properties and Analysis **                                                                                          
POP_MULLIKEN       TRUE   !Run Mulliken population analysis
LOWDIN_POPULATION  TRUE   !Run Löwdin population analysis
GUI                2       !Checkpoints generation
STATE_ANALYSIS     TRUE

!**Wave function analysis of RAS-CI states: MOLDEN**
!PLOTS = 0     ! Note: This can be omitted, default is 0
!NTO_PAIRS = 2 ! Note: This can be omitted, default is 2
!GUI 0
!MOLDEN_FORMAT      TRUE
!PRINT_ORBITALS     15

!**Wave function analysis of RAS-CI state: CUBE**
!NTO_PAIRS = 2 ! Note: This can be omitted, default is 2
!PLOTS = 1
!GUI 0

!**SR-DFT**
!RAS_SRDFT           TRUE !Perform short-range density functional RAS-CI
!RAS_SRDFT_EXC       0 !EX functional. 0=HF. 
!RAS_SRDFT_ONLY_COR  TRUE !No use of EXC functional
!RAS_SRDFT_COR       srPBE !short-range correlation functional
!ras_srdft_0         TRUE !true: no iteration (one-shot); false: iteration
!RAS_OMEGA           400 !Coulomb range-separation parameter. def=400
!RAS_SRDFT_DAMP     0.5 !dumping factor. def=0.5
$end

!$plots
!   grid_points 100 100 100
!   grid_range  (-10,10) (-10,10) (-10,10)
!$end

--------------------------------------------------------------
 ----------------------------------------------------------------
             Standard Nuclear Orientation (Bohr)
    I     Atom           X                Y                Z
 ----------------------------------------------------------------
    1      C      -0.0000000000    -0.0000000000     3.0318066276
    2      O      -0.0000000000    -0.0000000000     5.3638644743
    3      C      -2.1864624130    -0.0000000000     1.3211263669
    4      C       2.1864624130     0.0000000000     1.3211263669
    5      C       1.3222785792     0.0000000000    -1.3152461482
    6      C       4.7555386627     0.0000000000     1.8776505802
    7      C       6.4695983050     0.0000000000    -0.0972082822
    8      C       3.1392439890     0.0000000000    -3.3016694193
    9      C       5.6496513315     0.0000000000    -2.6924387954
   10      H       5.3730975132     0.0000000000     3.8295121100
   11      H       2.5395104465     0.0000000000    -5.2593503586
   12      H       8.4790954600     0.0000000000     0.2945733557
   13      H       7.0667355415     0.0000000000    -4.1688986988
   14      C      -1.3222785792    -0.0000000000    -1.3152461482
   15      C      -4.7555386627    -0.0000000000     1.8776505802
   16      C      -3.1392439890    -0.0000000000    -3.3016694193
   17      C      -6.4695983050    -0.0000000000    -0.0972082822
   18      C      -5.6496513315    -0.0000000000    -2.6924387954
   19      H      -2.5395104465    -0.0000000000    -5.2593503586
   20      H      -5.3730975132    -0.0000000000     3.8295121100
   21      H      -8.4790954600    -0.0000000000     0.2945733557
   22      H      -7.0667355415    -0.0000000000    -4.1688986988
 ----------------------------------------------------------------
 Molecular Point Group                 C2v   NOp =  4
 Largest Abelian Subgroup              C2v   NOp =  4
 Nuclear Repulsion Energy =         775.12034816 hartrees
 There are       48 alpha and       46 beta electrons
 Requested basis set is def2-TZVP
 There are 186 shells and 482 basis functions

 Q-Chem warning in module libmdc/get_mega.C, line 167:

 Allowed MEM_STATIC has been capped at MEM_STATIC=8191.
 Reduce the value of MEM_STATIC to silence this warning.


 Total QAlloc Memory Limit  60000 MB
 Mega-Array Size      8007 MB
 MEM_STATIC part      8191 MB

 A cutoff of  1.0D-09 yielded  13341 shell pairs
 There are     89641 function pairs (    116642 Cartesian)
 Smallest overlap matrix eigenvalue = 7.88E-06

 Q-Chem warning in module stvman/mkSTV.C, line 313:

 Overlap eigenvalue is smaller than square root of threshold
 Use THRESH >= 12 to get rid of this warning


 Scale SEOQF with 1.000000e-01/1.000000e+00/1.000000e-01

 Standard Electronic Orientation quadrupole field applied
 Nucleus-field energy     =    -0.0000000045 hartrees
 Requested basis set is STO-3G
 There are 36 shells and 78 basis functions
 A cutoff of  1.0D-09 yielded    508 shell pairs
 There are      2824 function pairs
 Smallest overlap matrix eigenvalue = 1.76E-01
 Constructing guess Fock matrix from core Hamiltonian
 Applying Wolfsberg-Helmholtz approximation
 A restricted Hartree-Fock SCF calculation will be
 performed using Geometric Direct Minimization
 SCF converges when RMS gradient is below 1.0E-04
 ---------------------------------------
  Cycle       Energy        RMS Gradient
 ---------------------------------------
    1    -562.9071884020      5.40E-01 Descent step
    2    -563.4687844878      3.98E-01 Descent step
    3    -563.9065938671      2.32E-01 Descent step
    4    -564.2366040034      1.45E-01 Descent step
    5    -564.4695535386      8.16E-02 Descent step
    6    -564.6116778141      5.24E-02 Dog-leg BFGS step
    7    -564.6679870182      2.32E-02 Normal BFGS step
    8    -564.6702340444      9.19E-03 Normal BFGS step
    9    -564.6705084635      3.00E-03 Normal BFGS step
   10    -564.6705718159      1.54E-03 Normal BFGS step
   11    -564.6705774858      5.91E-04 Normal BFGS step
   12    -564.6705785197      2.39E-04 Normal BFGS step
   13    -564.6705787715      1.08E-04 Normal BFGS step
   14    -564.6705788166      3.43E-05 Convergence criterion met
 ---------------------------------------
 One-Electron    Energy = -2309.3889407721
 Total Coulomb   Energy =  1048.2627072027
 Alpha Exchange  Energy =   -39.9845107568
 Beta  Exchange  Energy =   -38.6801826422
 DFT   Exchange  Energy =     0.0000000000
 DFT Correlation Energy =     0.0000000000
 Nuclear Repu.   Energy =   775.1203481517
 Nuclear Attr.   Energy = -2869.0559405023
 Kinetic         Energy =   559.6669997302
 SCF time:  CPU 1.61 s  wall 2.40 s
 SCF   energy in the small basis set = -564.67057882
 Total energy in the small basis set = -564.67057882
 ----------------------------------------------------
  Cycle       Energy    
 ----------------------------------------------------
    1     -70.8912839774     -7.09E+01
 A restricted Hartree-Fock SCF calculation will be
 performed using Geometric Direct Minimization
 SCF converges when RMS gradient is below 1.0E-05
 ---------------------------------------
  Cycle       Energy        RMS Gradient
 ---------------------------------------
    1    -571.6538726055      3.32E-01 Descent step
    2    -571.8116593413      9.92E-02 Descent step
    3    -571.9032318624      4.53E-02 Normal BFGS step
    4    -571.9223098008      2.25E-02 Normal BFGS step
    5    -571.9247201919      1.27E-02 Normal BFGS step
    6    -571.9252359201      8.63E-03 Normal BFGS step
    7    -571.9255113145      4.10E-03 Normal BFGS step
    8    -571.9255879012      1.83E-03 Normal BFGS step
    9    -571.9256014489      1.28E-03 Normal BFGS step
   10    -571.9256069452      4.08E-04 Normal BFGS step
   11    -571.9256078801      1.77E-04 Normal BFGS step
   12    -571.9256081325      4.46E-05 Normal BFGS step
   13    -571.9256076297      7.19E-06 Convergence criterion met
 ---------------------------------------
 One-Electron    Energy = -2313.5360403654
 Total Coulomb   Energy =  1045.0564390602
 Alpha Exchange  Energy =   -39.7460934076
 Beta  Exchange  Energy =   -38.8202610687
 DFT   Exchange  Energy =     0.0000000000
 DFT Correlation Energy =     0.0000000000
 Nuclear Repu.   Energy =   775.1203481517
 Nuclear Attr.   Energy = -2884.7512949044
 Kinetic         Energy =   571.2152545390
 SCF time:  CPU 1066.70 s  wall 1068.97 s
 SCF   energy in the final basis set = -571.92560763
 Total energy in the final basis set = -571.92560763
  
     ##========================================##
     ||                                        ||
     ||              R A S M A N 2             ||
     ||________________________________________||
     ||                                        ||
     ||  Author:                               ||
     ||                                        ||
     ||        David Casanova (2010)           ||
     ||                                        ||
     ##========================================##
  
Setting single-point xc-functionals (if necessary)

  ***************************************************
  *  RAS-CI Dimensions:                             *
  *                                                 *
  *  Active Elec.:  14 ( 8, 6)   Active Orb.:  12   *
  *  Doubly Occ. :  40           Doubly Vir.: 430   *
  *  Frozen Occ. :  20           Frozen Vir.: 410   *
  *                                                 *
  *  Total CI configurations:  34840740             * 
  *    Active configurations:    457380             * 
  *      Hole configurations:  11906400             * 
  *  Particle configurations:  22476960             * 
  *                                                 *
  *   Requested states:       10                    *
  *  Spin multiplicity: Any multiplicity            *
  *                                                 *
  ***************************************************
-----------------------------------------
    Memory requirements of RASCI

 Each CI-vector requires    265.81 MiB 
 Max. subspace vectors           1500      

 Reduced Lists                0.03 MiB 
 Excitation Lists             0.06 MiB 
 Excitation Lists Sign        0.06 MiB 
 CI-space (Max)          401395.94 MiB 
 Integrals                  501.67 MiB 
 Memory required (Max)   401396.09 MiB 
 Memory available          7811.55 MiB 

 Q-Chem warning in module rasman2/ras_mem_check.C, line 162:

 Static memory may be insufficient to store the subspace vectors


    Disk requirements of RASCI

 Fock matrix                  3.54 MiB 
 2-electron integrals         5.77 MiB 
 CI-space                797441.25 MiB 
 Disk required           797450.56 MiB 
-----------------------------------------
  
RAS1 HF-like energy:           -549.0452964734
 Computing integrals
 Computing J and K matrices
 Computing addressing
 Making amplitude guesses
 
Direct CI diagonalization
 ---------------------------------------------------
 Iter    Rts Conv    Rts Left    Ttl Dev     Max Dev
 ---------------------------------------------------
   1         0          10      0.000469    0.000050
   2         0          10      0.000256    0.000030
   3         0          10      0.000159    0.000018
   4         0          10      0.000124    0.000015
   5         0          10      0.000104    0.000014
   6         0          10      0.000088    0.000013
   7         0          10      0.000077    0.000014
   8         0          10      0.000120    0.000031
   9         0          10      0.000111    0.000027
  10         0          10      0.000096    0.000020
  11         0          10      0.000093    0.000020
  12         1           9      0.000079    0.000016
  13         1           9      0.000071    0.000016
  14         2           8      0.000071    0.000015
  15         3           7      0.000062    0.000014
  16         3           7      0.000055    0.000012
  17         3           7      0.000048    0.000011
  18         3           7      0.000043    0.000010
  19         4           6      0.000039    0.000010
  20         5           5      0.000035    0.000009
  21         5           5      0.000030    0.000008
  22         5           5      0.000027    0.000007
  23         5           5      0.000023    0.000006
  24         5           5      0.000020    0.000005
  25         5           5      0.000017    0.000005
  26         5           5      0.000015    0.000004
  27         6           4      0.000013    0.000004
  28         6           4      0.000011    0.000003
  29         6           4      0.000010    0.000003
  30         6           4      0.000009    0.000002
  31         7           3      0.000008    0.000002
  32         7           3      0.000007    0.000002
  33         8           2      0.000007    0.000002
  34         8           2      0.000010    0.000006
  35         8           2      0.000009    0.000005
  36         9           1      0.000008    0.000004
  37         9           1      0.000006    0.000003
  38         9           1      0.000006    0.000002
  39         9           1      0.000005    0.000002
  40         9           1      0.000004    0.000001
  41         9           1      0.000004    0.000001
  42        10           0      0.000004    0.000001    Roots Converged
 ---------------------------------------------------
   
**************************************************
 RAS-CI total energy for state   1:   -572.030902330666
  Excitation energy (eV) =  0.000000000000
  State symmetry: B1    (C2v      )
  <S^2>      :  2.0000
  Dipole Moment:    0.0000 X     0.0000 Y     1.8605 Z
 NATURAL OCCUPATION NUMBERS (higher than 1.0E-05)
            1           2           3           4           5           6
    1   2.0000000   2.0000000   2.0000000   2.0000000   2.0000000   2.0000000
            7           8           9          10          11          12
    1   2.0000000   2.0000000   2.0000000   2.0000000   2.0000000   2.0000000
           13          14          15          16          17          18
    1   2.0000000   2.0000000   2.0000000   2.0000000   2.0000000   2.0000000
           19          20          21          22          23          24
    1   2.0000000   2.0000000   2.0000000   2.0000000   2.0000000   2.0000000
           25          26          27          28          29          30
    1   2.0000000   2.0000000   2.0000000   2.0000000   2.0000000   2.0000000
           31          32          33          34          35          36
    1   2.0000000   2.0000000   2.0000000   2.0000000   2.0000000   2.0000000
           37          38          39          40          41          42
    1   2.0000000   2.0000000   2.0000000   2.0000000   1.9822234   1.9748204
           43          44          45          46          47          48
    1   1.9670770   1.9393585   1.9331648   1.9164366   1.0399108   0.9674513
           49          50          51          52          53          54
    1   0.0839099   0.0779730   0.0538557   0.0355750   0.0141931   0.0109202
           55          56
    1   0.0018072   0.0013231
Natural Orbitals stored in FCHK

  Amplitudes : 
  
 | HOLE  | ALPHA        | BETA         | PART  |    AMPLITUDE 
--------------------------------------------------
 |       | 111111110000 | 111111000000 |       |     8.9564212839081E-01
 |       | 111111100100 | 111110100000 |       |    -1.1602402211954E-01
--------------------------------------------------
*** Contributions RASCI wfn    Active:  97.06
                                 Hole:   0.00
                                 Part:   2.94

      Mulliken population analysis 
 ---------------------------------------------------
   Atom    Charge (a.u.)   Spin (a.u.)  
 ---------------------------------------------------
   1  C    0.036193        0.048197 
   2  O   -0.462575        0.196767 
   3  C    0.165497        0.365226 
   4  C    0.165497        0.365226 
   5  C    0.170432        0.207316 
   6  C   -0.236730       -0.106638 
   7  C   -0.062215        0.299030 
   8  C   -0.314789        0.043439 
   9  C   -0.082196        0.067130 
  10  H    0.162343       -0.000537 
  11  H    0.132319        0.000252 
  12  H    0.142399        0.001799 
  13  H    0.136129        0.000501 
  14  C    0.170432        0.207316 
  15  C   -0.236730       -0.106638 
  16  C   -0.314789        0.043439 
  17  C   -0.062215        0.299030 
  18  C   -0.082196        0.067130 
  19  H    0.132319        0.000252 
  20  H    0.162343       -0.000537 
  21  H    0.142399        0.001799 
  22  H    0.136129        0.000501 
 ---------------------------------------------------
   Sum:    0.000000        2.000000 
 ---------------------------------------------------
 
  
 NATURAL OCCUPATION NUMBERS (higher than 1.0E-05)
            1           2           3           4           5           6
    1   2.0000000   2.0000000   2.0000000   2.0000000   2.0000000   2.0000000
            7           8           9          10          11          12
    1   2.0000000   2.0000000   2.0000000   2.0000000   2.0000000   2.0000000
           13          14          15          16          17          18
    1   2.0000000   2.0000000   2.0000000   2.0000000   2.0000000   2.0000000
           19          20          21          22          23          24
    1   2.0000000   2.0000000   2.0000000   2.0000000   2.0000000   2.0000000
           25          26          27          28          29          30
    1   2.0000000   2.0000000   2.0000000   2.0000000   2.0000000   2.0000000
           31          32          33          34          35          36
    1   2.0000000   2.0000000   2.0000000   2.0000000   2.0000000   2.0000000
           37          38          39          40          41          42
    1   2.0000000   2.0000000   2.0000000   2.0000000   1.9822234   1.9748204
           43          44          45          46          47          48
    1   1.9670770   1.9393585   1.9331648   1.9164366   1.0399108   0.9674513
           49          50          51          52          53          54
    1   0.0839099   0.0779730   0.0538557   0.0355750   0.0141931   0.0109202
           55          56
    1   0.0018072   0.0013231
  
*** Unpaired Electrons
 Yamaguchi Nd:         3.10
 Head-Gordon Nu:       2.49
 Head-Gordon Nu_nl:    2.12
  
**************************************************
 RAS-CI total energy for state   2:   -571.969211844799
  Excitation energy (eV) =  1.678683529181
  State symmetry: A1    (C2v      )
  <S^2>      :  2.0000
  Dipole Moment:    0.0000 X     0.0000 Y     1.5040 Z
  Trans. Moment:   -0.2972 X    -0.0000 Y     0.0000 Z
  Strength   :  0.003632
  Natural transition orbitals ( 1 -> 2 ):
   e-/hole pair  1 alpha:  ampl =  0.395405 ( 15.6%)   [12 : 13]
   e-/hole pair  2 alpha:  ampl =  0.126256 (  1.6%)   [11 : 14]
   e-/hole pair  1 beta :  ampl =  0.731223 ( 53.5%)   [12 : 13]
   e-/hole pair  2 beta :  ampl =  0.105127 (  1.1%)   [11 : 14]
   Sum of square amplitudes: 0.74

 NATURAL OCCUPATION NUMBERS (higher than 1.0E-05)
            1           2           3           4           5           6
    1   2.0000000   2.0000000   2.0000000   2.0000000   2.0000000   2.0000000
            7           8           9          10          11          12
    1   2.0000000   2.0000000   2.0000000   2.0000000   2.0000000   2.0000000
           13          14          15          16          17          18
    1   2.0000000   2.0000000   2.0000000   2.0000000   2.0000000   2.0000000
           19          20          21          22          23          24
    1   2.0000000   2.0000000   2.0000000   2.0000000   2.0000000   2.0000000
           25          26          27          28          29          30
    1   2.0000000   2.0000000   2.0000000   2.0000000   2.0000000   2.0000000
           31          32          33          34          35          36
    1   2.0000000   2.0000000   2.0000000   2.0000000   2.0000000   2.0000000
           37          38          39          40          41          42
    1   2.0000000   2.0000000   2.0000000   2.0000000   1.9773397   1.9648596
           43          44          45          46          47          48
    1   1.9602760   1.9334466   1.9121244   1.6861371   1.2709245   0.7721628
           49          50          51          52          53          54
    1   0.2818922   0.1005821   0.0590626   0.0473162   0.0165856   0.0136736
           55          56
    1   0.0020126   0.0016044
Natural Orbitals stored in FCHK

  Amplitudes : 
  
 | HOLE  | ALPHA        | BETA         | PART  |    AMPLITUDE 
--------------------------------------------------
 |       | 111111110000 | 111110100000 |       |     7.2876340992732E-01
 |       | 111111110000 | 111110000100 |       |     1.0982981635566E-01
 |       | 111111110000 | 111011100000 |       |     1.2852223140903E-01
 |       | 111111101000 | 111110100000 |       |    -1.4617039850728E-01
 |       | 111111100100 | 111111000000 |       |    -3.7153537337686E-01
 |       | 111111100100 | 111101100000 |       |     1.5915683737386E-01
 |       | 111111010100 | 111110100000 |       |    -1.1180803832826E-01
--------------------------------------------------
*** Contributions RASCI wfn    Active:  96.25
                                 Hole:   0.00
                                 Part:   3.75

      Mulliken population analysis 
 ---------------------------------------------------
   Atom    Charge (a.u.)   Spin (a.u.)  
 ---------------------------------------------------
   1  C    0.015369        0.060564 
   2  O   -0.359978        0.312541 
   3  C    0.156535        0.266619 
   4  C    0.156535        0.266619 
   5  C    0.162798        0.141967 
   6  C   -0.242089        0.051655 
   7  C   -0.100816        0.043380 
   8  C   -0.318231        0.018993 
   9  C   -0.058540        0.288173 
  10  H    0.162230        0.000348 
  11  H    0.132304        0.000121 
  12  H    0.142229        0.000328 
  13  H    0.135884        0.001863 
  14  C    0.162798        0.141967 
  15  C   -0.242089        0.051655 
  16  C   -0.318231        0.018993 
  17  C   -0.100816        0.043380 
  18  C   -0.058540        0.288173 
  19  H    0.132304        0.000121 
  20  H    0.162230        0.000348 
  21  H    0.142229        0.000328 
  22  H    0.135884        0.001863 
 ---------------------------------------------------
   Sum:    0.000000        2.000000 
 ---------------------------------------------------
 
  
 NATURAL OCCUPATION NUMBERS (higher than 1.0E-05)
            1           2           3           4           5           6
    1   2.0000000   2.0000000   2.0000000   2.0000000   2.0000000   2.0000000
            7           8           9          10          11          12
    1   2.0000000   2.0000000   2.0000000   2.0000000   2.0000000   2.0000000
           13          14          15          16          17          18
    1   2.0000000   2.0000000   2.0000000   2.0000000   2.0000000   2.0000000
           19          20          21          22          23          24
    1   2.0000000   2.0000000   2.0000000   2.0000000   2.0000000   2.0000000
           25          26          27          28          29          30
    1   2.0000000   2.0000000   2.0000000   2.0000000   2.0000000   2.0000000
           31          32          33          34          35          36
    1   2.0000000   2.0000000   2.0000000   2.0000000   2.0000000   2.0000000
           37          38          39          40          41          42
    1   2.0000000   2.0000000   2.0000000   2.0000000   1.9773397   1.9648596
           43          44          45          46          47          48
    1   1.9602760   1.9334466   1.9121244   1.6861371   1.2709245   0.7721628
           49          50          51          52          53          54
    1   0.2818922   0.1005821   0.0590626   0.0473162   0.0165856   0.0136736
           55          56
    1   0.0020126   0.0016044
  
*** Unpaired Electrons
 Yamaguchi Nd:         3.84
 Head-Gordon Nu:       2.59
 Head-Gordon Nu_nl:    2.39
  
**************************************************
 RAS-CI total energy for state   3:   -571.964922101420
  Excitation energy (eV) =  1.795413385560
  State symmetry: B1    (C2v      )
  <S^2>      :  2.0000
  Dipole Moment:    0.0000 X     0.0000 Y     1.5933 Z
  Trans. Moment:   -0.0000 X    -0.0000 Y    -0.2735 Z
  Strength   :  0.003291
  Natural transition orbitals ( 1 -> 3 ):
   e-/hole pair  1 alpha:  ampl =  0.671923 ( 45.1%)   [12 : 13]
   e-/hole pair  2 alpha:  ampl =  0.117065 (  1.4%)   [11 : 14]
   e-/hole pair  1 beta :  ampl =  0.504924 ( 25.5%)   [12 : 13]
   e-/hole pair  2 beta :  ampl =  0.125789 (  1.6%)   [11 : 14]
   Sum of square amplitudes: 0.77

 NATURAL OCCUPATION NUMBERS (higher than 1.0E-05)
            1           2           3           4           5           6
    1   2.0000000   2.0000000   2.0000000   2.0000000   2.0000000   2.0000000
            7           8           9          10          11          12
    1   2.0000000   2.0000000   2.0000000   2.0000000   2.0000000   2.0000000
           13          14          15          16          17          18
    1   2.0000000   2.0000000   2.0000000   2.0000000   2.0000000   2.0000000
           19          20          21          22          23          24
    1   2.0000000   2.0000000   2.0000000   2.0000000   2.0000000   2.0000000
           25          26          27          28          29          30
    1   2.0000000   2.0000000   2.0000000   2.0000000   2.0000000   2.0000000
           31          32          33          34          35          36
    1   2.0000000   2.0000000   2.0000000   2.0000000   2.0000000   2.0000000
           37          38          39          40          41          42
    1   2.0000000   2.0000000   2.0000000   2.0000000   1.9765948   1.9660326
           43          44          45          46          47          48
    1   1.9564922   1.9133059   1.8909572   1.6381119   1.3336726   0.6337185
           49          50          51          52          53          54
    1   0.4388816   0.1001168   0.0797534   0.0411286   0.0155291   0.0116925
           55          56
    1   0.0023353   0.0016770
Natural Orbitals stored in FCHK

  Amplitudes : 
  
 | HOLE  | ALPHA        | BETA         | PART  |    AMPLITUDE 
--------------------------------------------------
 |       | 111111110000 | 111101100000 |       |     4.8753291065764E-01
 |       | 111111101000 | 111111000000 |       |     6.4603982672490E-01
 |       | 111111101000 | 111110010000 |       |    -1.3262299291515E-01
 |       | 111111101000 | 111101100000 |       |     1.3000592590911E-01
 |       | 111111100100 | 111110100000 |       |     1.2295038226594E-01
 |       | 111111100010 | 111011100000 |       |    -1.3817681350772E-01
 |       | 111110111000 | 111111000000 |       |     1.3943402878311E-01
--------------------------------------------------
*** Contributions RASCI wfn    Active:  96.78
                                 Hole:   0.00
                                 Part:   3.22

      Mulliken population analysis 
 ---------------------------------------------------
   Atom    Charge (a.u.)   Spin (a.u.)  
 ---------------------------------------------------
   1  C    0.076354        0.041398 
   2  O   -0.428698        0.064561 
   3  C    0.162090        0.159838 
   4  C    0.162090        0.159838 
   5  C    0.181265        0.122823 
   6  C   -0.254485        0.175183 
   7  C   -0.081434        0.211128 
   8  C   -0.344851        0.218215 
   9  C   -0.058239        0.055117 
  10  H    0.161825        0.001268 
  11  H    0.131667        0.001574 
  12  H    0.142109        0.001429 
  13  H    0.136225        0.000448 
  14  C    0.181265        0.122823 
  15  C   -0.254485        0.175183 
  16  C   -0.344851        0.218215 
  17  C   -0.081434        0.211128 
  18  C   -0.058239        0.055117 
  19  H    0.131667        0.001574 
  20  H    0.161825        0.001268 
  21  H    0.142109        0.001429 
  22  H    0.136225        0.000448 
 ---------------------------------------------------
   Sum:    0.000000        2.000000 
 ---------------------------------------------------
 
  
 NATURAL OCCUPATION NUMBERS (higher than 1.0E-05)
            1           2           3           4           5           6
    1   2.0000000   2.0000000   2.0000000   2.0000000   2.0000000   2.0000000
            7           8           9          10          11          12
    1   2.0000000   2.0000000   2.0000000   2.0000000   2.0000000   2.0000000
           13          14          15          16          17          18
    1   2.0000000   2.0000000   2.0000000   2.0000000   2.0000000   2.0000000
           19          20          21          22          23          24
    1   2.0000000   2.0000000   2.0000000   2.0000000   2.0000000   2.0000000
           25          26          27          28          29          30
    1   2.0000000   2.0000000   2.0000000   2.0000000   2.0000000   2.0000000
           31          32          33          34          35          36
    1   2.0000000   2.0000000   2.0000000   2.0000000   2.0000000   2.0000000
           37          38          39          40          41          42
    1   2.0000000   2.0000000   2.0000000   2.0000000   1.9765948   1.9660326
           43          44          45          46          47          48
    1   1.9564922   1.9133059   1.8909572   1.6381119   1.3336726   0.6337185
           49          50          51          52          53          54
    1   0.4388816   0.1001168   0.0797534   0.0411286   0.0155291   0.0116925
           55          56
    1   0.0023353   0.0016770
  
*** Unpaired Electrons
 Yamaguchi Nd:         4.09
 Head-Gordon Nu:       2.65
 Head-Gordon Nu_nl:    2.51
  
**************************************************
 RAS-CI total energy for state   4:   -571.944376117979
  Excitation energy (eV) =  2.354498040321
  State symmetry: B1    (C2v      )
  <S^2>      :  2.0000
  Dipole Moment:    0.0000 X    -0.0000 Y     1.9789 Z
  Trans. Moment:    0.0000 X    -0.0000 Y     0.3721 Z
  Strength   :  0.007988
  Natural transition orbitals ( 1 -> 4 ):
   e-/hole pair  1 alpha:  ampl =  0.384118 ( 14.8%)   [12 : 13]
   e-/hole pair  2 alpha:  ampl =  0.042611 (  0.2%)   [11 : 14]
   e-/hole pair  1 beta :  ampl =  0.521145 ( 27.2%)   [12 : 13]
   e-/hole pair  2 beta :  ampl =  0.100573 (  1.0%)   [11 : 14]
   Sum of square amplitudes: 0.44

 NATURAL OCCUPATION NUMBERS (higher than 1.0E-05)
            1           2           3           4           5           6
    1   2.0000000   2.0000000   2.0000000   2.0000000   2.0000000   2.0000000
            7           8           9          10          11          12
    1   2.0000000   2.0000000   2.0000000   2.0000000   2.0000000   2.0000000
           13          14          15          16          17          18
    1   2.0000000   2.0000000   2.0000000   2.0000000   2.0000000   2.0000000
           19          20          21          22          23          24
    1   2.0000000   2.0000000   2.0000000   2.0000000   2.0000000   2.0000000
           25          26          27          28          29          30
    1   2.0000000   2.0000000   2.0000000   2.0000000   2.0000000   2.0000000
           31          32          33          34          35          36
    1   2.0000000   2.0000000   2.0000000   2.0000000   2.0000000   2.0000000
           37          38          39          40          41          42
    1   2.0000000   2.0000000   2.0000000   2.0000000   1.9809679   1.9666865
           43          44          45          46          47          48
    1   1.9607818   1.9269033   1.8443769   1.8101049   1.1990682   0.8303369
           49          50          51          52          53          54
    1   0.1735698   0.1719310   0.0619378   0.0440297   0.0139358   0.0115337
           55          56
    1   0.0021661   0.0016696
Natural Orbitals stored in FCHK

  Amplitudes : 
  
 | HOLE  | ALPHA        | BETA         | PART  |    AMPLITUDE 
--------------------------------------------------
 |       | 111111110000 | 111101100000 |       |     5.5482832419561E-01
 |       | 111111101000 | 111111000000 |       |    -3.4345508556105E-01
 |       | 111111101000 | 111101100000 |       |    -4.5656028769912E-01
 |       | 111111100100 | 111110100000 |       |     2.3228629929342E-01
 |       | 111111100100 | 111011100000 |       |    -1.2730628100093E-01
 |       | 111111100010 | 111011100000 |       |     1.4513455911644E-01
--------------------------------------------------
*** Contributions RASCI wfn    Active:  96.77
                                 Hole:   0.00
                                 Part:   3.23

      Mulliken population analysis 
 ---------------------------------------------------
   Atom    Charge (a.u.)   Spin (a.u.)  
 ---------------------------------------------------
   1  C    0.043070        0.093401 
   2  O   -0.451326        0.123685 
   3  C    0.126160        0.074972 
   4  C    0.126160        0.074972 
   5  C    0.181479        0.018058 
   6  C   -0.228986        0.310553 
   7  C   -0.053432        0.089528 
   8  C   -0.273529        0.276099 
   9  C   -0.119703        0.117054 
  10  H    0.161845        0.002024 
  11  H    0.132186        0.001702 
  12  H    0.142486        0.000536 
  13  H    0.135623        0.000932 
  14  C    0.181479        0.018058 
  15  C   -0.228986        0.310553 
  16  C   -0.273529        0.276099 
  17  C   -0.053432        0.089528 
  18  C   -0.119703        0.117054 
  19  H    0.132186        0.001702 
  20  H    0.161845        0.002024 
  21  H    0.142486        0.000536 
  22  H    0.135623        0.000932 
 ---------------------------------------------------
   Sum:    0.000000        2.000000 
 ---------------------------------------------------
 
  
 NATURAL OCCUPATION NUMBERS (higher than 1.0E-05)
            1           2           3           4           5           6
    1   2.0000000   2.0000000   2.0000000   2.0000000   2.0000000   2.0000000
            7           8           9          10          11          12
    1   2.0000000   2.0000000   2.0000000   2.0000000   2.0000000   2.0000000
           13          14          15          16          17          18
    1   2.0000000   2.0000000   2.0000000   2.0000000   2.0000000   2.0000000
           19          20          21          22          23          24
    1   2.0000000   2.0000000   2.0000000   2.0000000   2.0000000   2.0000000
           25          26          27          28          29          30
    1   2.0000000   2.0000000   2.0000000   2.0000000   2.0000000   2.0000000
           31          32          33          34          35          36
    1   2.0000000   2.0000000   2.0000000   2.0000000   2.0000000   2.0000000
           37          38          39          40          41          42
    1   2.0000000   2.0000000   2.0000000   2.0000000   1.9809679   1.9666865
           43          44          45          46          47          48
    1   1.9607818   1.9269033   1.8443769   1.8101049   1.1990682   0.8303369
           49          50          51          52          53          54
    1   0.1735698   0.1719310   0.0619378   0.0440297   0.0139358   0.0115337
           55          56
    1   0.0021661   0.0016696
  
*** Unpaired Electrons
 Yamaguchi Nd:         3.78
 Head-Gordon Nu:       2.62
 Head-Gordon Nu_nl:    2.32
  
**************************************************
 RAS-CI total energy for state   5:   -571.941206020412
  Excitation energy (eV) =  2.440760784053
  State symmetry: A1    (C2v      )
  <S^2>      :  2.0000
  Dipole Moment:    0.0000 X    -0.0000 Y     1.5341 Z
  Trans. Moment:   -0.3013 X     0.0000 Y     0.0000 Z
  Strength   :  0.005430
  Natural transition orbitals ( 1 -> 5 ):
   e-/hole pair  1 alpha:  ampl =  0.415919 ( 17.3%)   [12 : 13]
   e-/hole pair  2 alpha:  ampl =  0.172968 (  3.0%)   [11 : 14]
   e-/hole pair  1 beta :  ampl =  0.716603 ( 51.4%)   [12 : 13]
   e-/hole pair  2 beta :  ampl =  0.137705 (  1.9%)   [11 : 14]
   Sum of square amplitudes: 0.76

 NATURAL OCCUPATION NUMBERS (higher than 1.0E-05)
            1           2           3           4           5           6
    1   2.0000000   2.0000000   2.0000000   2.0000000   2.0000000   2.0000000
            7           8           9          10          11          12
    1   2.0000000   2.0000000   2.0000000   2.0000000   2.0000000   2.0000000
           13          14          15          16          17          18
    1   2.0000000   2.0000000   2.0000000   2.0000000   2.0000000   2.0000000
           19          20          21          22          23          24
    1   2.0000000   2.0000000   2.0000000   2.0000000   2.0000000   2.0000000
           25          26          27          28          29          30
    1   2.0000000   2.0000000   2.0000000   2.0000000   2.0000000   2.0000000
           31          32          33          34          35          36
    1   2.0000000   2.0000000   2.0000000   2.0000000   2.0000000   2.0000000
           37          38          39          40          41          42
    1   2.0000000   2.0000000   2.0000000   2.0000000   1.9783062   1.9644071
           43          44          45          46          47          48
    1   1.9634297   1.8984249   1.8951395   1.6143346   1.3522887   0.7461007
           49          50          51          52          53          54
    1   0.2793889   0.1587825   0.0789539   0.0382960   0.0163134   0.0119293
           55          56
    1   0.0021304   0.0017742
Natural Orbitals stored in FCHK

  Amplitudes : 
  
 | HOLE  | ALPHA        | BETA         | PART  |    AMPLITUDE 
--------------------------------------------------
 |       | 111111110000 | 111110100000 |       |    -1.9237192174501E-01
 |       | 111111110000 | 111011100000 |       |     6.8020827699792E-01
 |       | 111111101000 | 111110100000 |       |     1.3501339361599E-01
 |       | 111111101000 | 111011100000 |       |     1.1379367565089E-01
 |       | 111111100100 | 111111000000 |       |    -1.8341516651650E-01
 |       | 111111100100 | 111101100000 |       |    -1.5707970019494E-01
 |       | 111111100010 | 111111000000 |       |    -3.5194128554997E-01
 |       | 111111011000 | 111111000000 |       |    -1.3854290070306E-01
--------------------------------------------------
*** Contributions RASCI wfn    Active:  96.39
                                 Hole:   0.00
                                 Part:   3.61

      Mulliken population analysis 
 ---------------------------------------------------
   Atom    Charge (a.u.)   Spin (a.u.)  
 ---------------------------------------------------
   1  C    0.064643        0.061475 
   2  O   -0.444722        0.143582 
   3  C    0.104531        0.116253 
   4  C    0.104531        0.116253 
   5  C    0.175912        0.241043 
   6  C   -0.172974        0.165087 
   7  C   -0.079385        0.248745 
   8  C   -0.307662        0.063820 
   9  C   -0.102929        0.059046 
  10  H    0.162432        0.000933 
  11  H    0.132357        0.000355 
  12  H    0.141900        0.001631 
  13  H    0.135857        0.000560 
  14  C    0.175912        0.241043 
  15  C   -0.172974        0.165087 
  16  C   -0.307662        0.063820 
  17  C   -0.079385        0.248745 
  18  C   -0.102929        0.059046 
  19  H    0.132357        0.000355 
  20  H    0.162432        0.000933 
  21  H    0.141900        0.001631 
  22  H    0.135857        0.000560 
 ---------------------------------------------------
   Sum:    0.000000        2.000000 
 ---------------------------------------------------
 
  
 NATURAL OCCUPATION NUMBERS (higher than 1.0E-05)
            1           2           3           4           5           6
    1   2.0000000   2.0000000   2.0000000   2.0000000   2.0000000   2.0000000
            7           8           9          10          11          12
    1   2.0000000   2.0000000   2.0000000   2.0000000   2.0000000   2.0000000
           13          14          15          16          17          18
    1   2.0000000   2.0000000   2.0000000   2.0000000   2.0000000   2.0000000
           19          20          21          22          23          24
    1   2.0000000   2.0000000   2.0000000   2.0000000   2.0000000   2.0000000
           25          26          27          28          29          30
    1   2.0000000   2.0000000   2.0000000   2.0000000   2.0000000   2.0000000
           31          32          33          34          35          36
    1   2.0000000   2.0000000   2.0000000   2.0000000   2.0000000   2.0000000
           37          38          39          40          41          42
    1   2.0000000   2.0000000   2.0000000   2.0000000   1.9783062   1.9644071
           43          44          45          46          47          48
    1   1.9634297   1.8984249   1.8951395   1.6143346   1.3522887   0.7461007
           49          50          51          52          53          54
    1   0.2793889   0.1587825   0.0789539   0.0382960   0.0163134   0.0119293
           55          56
    1   0.0021304   0.0017742
  
*** Unpaired Electrons
 Yamaguchi Nd:         4.07
 Head-Gordon Nu:       2.67
 Head-Gordon Nu_nl:    2.47
  
**************************************************
 RAS-CI total energy for state   6:   -571.924084255283
  Excitation energy (eV) =  2.906667717797
  State symmetry: A2    (C2v      )
  <S^2>      :  2.0000
  Dipole Moment:    0.0000 X    -0.0000 Y     0.0584 Z
  Trans. Moment:    0.0000 X    -0.0325 Y     0.0000 Z
  Strength   :  0.000075
  Natural transition orbitals ( 1 -> 6 ):
   e-/hole pair  1 alpha:  ampl =  0.008532 (  0.0%)   [12 : 13]
   e-/hole pair  2 alpha:  ampl =  0.006920 (  0.0%)   [11 : 14]
   e-/hole pair  1 beta :  ampl =  0.788702 ( 62.2%)   [12 : 13]
   e-/hole pair  2 beta :  ampl =  0.032028 (  0.1%)   [11 : 14]
   Sum of square amplitudes: 0.62

 NATURAL OCCUPATION NUMBERS (higher than 1.0E-05)
            1           2           3           4           5           6
    1   2.0000000   2.0000000   2.0000000   2.0000000   2.0000000   2.0000000
            7           8           9          10          11          12
    1   2.0000000   2.0000000   2.0000000   2.0000000   2.0000000   2.0000000
           13          14          15          16          17          18
    1   2.0000000   2.0000000   2.0000000   2.0000000   2.0000000   2.0000000
           19          20          21          22          23          24
    1   2.0000000   2.0000000   1.9999989   1.9999982   1.9999963   1.9999941
           25          26          27          28          29          30
    1   1.9999928   1.9999882   1.9999870   1.9999840   1.9999790   1.9999507
           31          32          33          34          35          36
    1   1.9999446   1.9999070   1.9998327   1.9995802   1.9993136   1.9989352
           37          38          39          40          41          42
    1   1.9967720   1.9944486   1.9932927   1.9882053   1.9879197   1.9859995
           43          44          45          46          47          48
    1   1.9606357   1.9540800   1.9525235   1.9241512   1.0255145   1.0173901
           49          50          51          52          53          54
    1   0.0789943   0.0620698   0.0457192   0.0347844   0.0000799   0.0000172
Natural Orbitals stored in FCHK

  Amplitudes : 
  
 | HOLE  | ALPHA        | BETA         | PART  |    AMPLITUDE 
--------------------------------------------------
 |  40   | 111111110000 | 111111100000 |       |     8.2664263381837E-01
 |  40   | 111111110000 | 111110110000 |       |     2.8402822758384E-01
 |  40   | 111111101000 | 111111100000 |       |    -1.8016904589457E-01
 |  40   | 111111100001 | 111111100000 |       |     1.6984380304715E-01
--------------------------------------------------
*** Contributions RASCI wfn    Active:   0.00
                                 Hole:  99.99
                                 Part:   0.01

      Mulliken population analysis 
 ---------------------------------------------------
   Atom    Charge (a.u.)   Spin (a.u.)  
 ---------------------------------------------------
   1  C    0.090147        0.388107 
   2  O   -0.137180        0.643104 
   3  C    0.052951        0.147894 
   4  C    0.052951        0.147894 
   5  C    0.168548        0.160876 
   6  C   -0.251549        0.120063 
   7  C   -0.112899       -0.030688 
   8  C   -0.330841       -0.017132 
   9  C   -0.081225        0.096757 
  10  H    0.164452        0.003099 
  11  H    0.134323        0.001875 
  12  H    0.143261        0.000776 
  13  H    0.136493        0.000874 
  14  C    0.168548        0.160876 
  15  C   -0.251549        0.120063 
  16  C   -0.330841       -0.017132 
  17  C   -0.112899       -0.030688 
  18  C   -0.081225        0.096757 
  19  H    0.134323        0.001875 
  20  H    0.164452        0.003099 
  21  H    0.143261        0.000776 
  22  H    0.136493        0.000874 
 ---------------------------------------------------
   Sum:    0.000000        2.000000 
 ---------------------------------------------------
 
  
 NATURAL OCCUPATION NUMBERS (higher than 1.0E-05)
            1           2           3           4           5           6
    1   2.0000000   2.0000000   2.0000000   2.0000000   2.0000000   2.0000000
            7           8           9          10          11          12
    1   2.0000000   2.0000000   2.0000000   2.0000000   2.0000000   2.0000000
           13          14          15          16          17          18
    1   2.0000000   2.0000000   2.0000000   2.0000000   2.0000000   2.0000000
           19          20          21          22          23          24
    1   2.0000000   2.0000000   1.9999989   1.9999982   1.9999963   1.9999941
           25          26          27          28          29          30
    1   1.9999928   1.9999882   1.9999870   1.9999840   1.9999790   1.9999507
           31          32          33          34          35          36
    1   1.9999446   1.9999070   1.9998327   1.9995802   1.9993136   1.9989352
           37          38          39          40          41          42
    1   1.9967720   1.9944486   1.9932927   1.9882053   1.9879197   1.9859995
           43          44          45          46          47          48
    1   1.9606357   1.9540800   1.9525235   1.9241512   1.0255145   1.0173901
           49          50          51          52          53          54
    1   0.0789943   0.0620698   0.0457192   0.0347844   0.0000799   0.0000172
  
*** Unpaired Electrons
 Yamaguchi Nd:         2.95
 Head-Gordon Nu:       2.44
 Head-Gordon Nu_nl:    2.09
  
**************************************************
 RAS-CI total energy for state   7:   -571.919868238515
  Excitation energy (eV) =  3.021391371026
  State symmetry: A1    (C2v      )
  <S^2>      :  2.0000
  Dipole Moment:    0.0000 X     0.0000 Y     1.2487 Z
  Trans. Moment:   -0.1334 X     0.0000 Y     0.0000 Z
  Strength   :  0.001318
  Natural transition orbitals ( 1 -> 7 ):
   e-/hole pair  1 alpha:  ampl =  0.450183 ( 20.3%)   [12 : 13]
   e-/hole pair  2 alpha:  ampl =  0.158214 (  2.5%)   [11 : 14]
   e-/hole pair  1 beta :  ampl =  0.123787 (  1.5%)   [12 : 13]
   e-/hole pair  2 beta :  ampl =  0.106509 (  1.1%)   [11 : 14]
   Sum of square amplitudes: 0.27

 NATURAL OCCUPATION NUMBERS (higher than 1.0E-05)
            1           2           3           4           5           6
    1   2.0000000   2.0000000   2.0000000   2.0000000   2.0000000   2.0000000
            7           8           9          10          11          12
    1   2.0000000   2.0000000   2.0000000   2.0000000   2.0000000   2.0000000
           13          14          15          16          17          18
    1   2.0000000   2.0000000   2.0000000   2.0000000   2.0000000   2.0000000
           19          20          21          22          23          24
    1   2.0000000   2.0000000   2.0000000   2.0000000   2.0000000   2.0000000
           25          26          27          28          29          30
    1   2.0000000   2.0000000   2.0000000   2.0000000   2.0000000   2.0000000
           31          32          33          34          35          36
    1   2.0000000   2.0000000   2.0000000   2.0000000   2.0000000   2.0000000
           37          38          39          40          41          42
    1   2.0000000   2.0000000   2.0000000   2.0000000   1.9721299   1.9558394
           43          44          45          46          47          48
    1   1.9482672   1.9224119   1.8615826   1.5198099   1.4483307   0.5372100
           49          50          51          52          53          54
    1   0.4806468   0.1982423   0.0737603   0.0449931   0.0200455   0.0131290
           55          56
    1   0.0020418   0.0015598
Natural Orbitals stored in FCHK

  Amplitudes : 
  
 | HOLE  | ALPHA        | BETA         | PART  |    AMPLITUDE 
--------------------------------------------------
 |       | 111111101000 | 111110100000 |       |    -3.8281522972976E-01
 |       | 111111101000 | 111011100000 |       |     4.4214658026029E-01
 |       | 111111100100 | 111111000000 |       |     3.5464008590968E-01
 |       | 111111100100 | 111101100000 |       |     2.7453381371323E-01
 |       | 111111100010 | 111111000000 |       |    -2.4754813760783E-01
 |       | 111111100010 | 111101100000 |       |    -3.1197143720315E-01
 |       | 111111011000 | 111111000000 |       |    -1.4534330292637E-01
--------------------------------------------------
*** Contributions RASCI wfn    Active:  96.01
                                 Hole:   0.00
                                 Part:   3.99

      Mulliken population analysis 
 ---------------------------------------------------
   Atom    Charge (a.u.)   Spin (a.u.)  
 ---------------------------------------------------
   1  C    0.130995        0.013159 
   2  O   -0.388587        0.043693 
   3  C    0.109406        0.091317 
   4  C    0.109406        0.091317 
   5  C    0.195369        0.077552 
   6  C   -0.247230        0.284196 
   7  C   -0.069945        0.179845 
   8  C   -0.334533        0.318298 
   9  C   -0.095234        0.014330 
  10  H    0.161416        0.002182 
  11  H    0.131361        0.002421 
  12  H    0.142263        0.001137 
  13  H    0.135922        0.000298 
  14  C    0.195369        0.077552 
  15  C   -0.247230        0.284196 
  16  C   -0.334533        0.318298 
  17  C   -0.069945        0.179845 
  18  C   -0.095234        0.014330 
  19  H    0.131361        0.002421 
  20  H    0.161416        0.002182 
  21  H    0.142263        0.001137 
  22  H    0.135922        0.000298 
 ---------------------------------------------------
   Sum:    0.000000        2.000000 
 ---------------------------------------------------
 
  
 NATURAL OCCUPATION NUMBERS (higher than 1.0E-05)
            1           2           3           4           5           6
    1   2.0000000   2.0000000   2.0000000   2.0000000   2.0000000   2.0000000
            7           8           9          10          11          12
    1   2.0000000   2.0000000   2.0000000   2.0000000   2.0000000   2.0000000
           13          14          15          16          17          18
    1   2.0000000   2.0000000   2.0000000   2.0000000   2.0000000   2.0000000
           19          20          21          22          23          24
    1   2.0000000   2.0000000   2.0000000   2.0000000   2.0000000   2.0000000
           25          26          27          28          29          30
    1   2.0000000   2.0000000   2.0000000   2.0000000   2.0000000   2.0000000
           31          32          33          34          35          36
    1   2.0000000   2.0000000   2.0000000   2.0000000   2.0000000   2.0000000
           37          38          39          40          41          42
    1   2.0000000   2.0000000   2.0000000   2.0000000   1.9721299   1.9558394
           43          44          45          46          47          48
    1   1.9482672   1.9224119   1.8615826   1.5198099   1.4483307   0.5372100
           49          50          51          52          53          54
    1   0.4806468   0.1982423   0.0737603   0.0449931   0.0200455   0.0131290
           55          56
    1   0.0020418   0.0015598
  
*** Unpaired Electrons
 Yamaguchi Nd:         4.35
 Head-Gordon Nu:       2.74
 Head-Gordon Nu_nl:    2.59
  
**************************************************
 RAS-CI total energy for state   8:   -571.905738297380
  Excitation energy (eV) =  3.405886631814
  State symmetry: B1    (C2v      )
  <S^2>      :  2.0000
  Dipole Moment:    0.0000 X     0.0000 Y     1.4188 Z
  Trans. Moment:    0.0000 X     0.0000 Y     0.3640 Z
  Strength   :  0.011054
  Natural transition orbitals ( 1 -> 8 ):
   e-/hole pair  1 alpha:  ampl =  0.409089 ( 16.7%)   [12 : 13]
   e-/hole pair  2 alpha:  ampl =  0.119656 (  1.4%)   [11 : 14]
   e-/hole pair  1 beta :  ampl =  0.454256 ( 20.6%)   [12 : 13]
   e-/hole pair  2 beta :  ampl =  0.107064 (  1.1%)   [11 : 14]
   Sum of square amplitudes: 0.41

 NATURAL OCCUPATION NUMBERS (higher than 1.0E-05)
            1           2           3           4           5           6
    1   2.0000000   2.0000000   2.0000000   2.0000000   2.0000000   2.0000000
            7           8           9          10          11          12
    1   2.0000000   2.0000000   2.0000000   2.0000000   2.0000000   2.0000000
           13          14          15          16          17          18
    1   2.0000000   2.0000000   2.0000000   2.0000000   2.0000000   2.0000000
           19          20          21          22          23          24
    1   2.0000000   2.0000000   2.0000000   2.0000000   2.0000000   2.0000000
           25          26          27          28          29          30
    1   2.0000000   2.0000000   2.0000000   2.0000000   2.0000000   2.0000000
           31          32          33          34          35          36
    1   2.0000000   2.0000000   2.0000000   2.0000000   2.0000000   2.0000000
           37          38          39          40          41          42
    1   2.0000000   2.0000000   2.0000000   2.0000000   1.9748174   1.9663574
           43          44          45          46          47          48
    1   1.9616576   1.9385790   1.8216454   1.8064377   1.2042614   0.8279527
           49          50          51          52          53          54
    1   0.1760882   0.1726681   0.0716760   0.0454905   0.0143623   0.0136943
           55          56
    1   0.0025217   0.0017902
Natural Orbitals stored in FCHK

  Amplitudes : 
  
 | HOLE  | ALPHA        | BETA         | PART  |    AMPLITUDE 
--------------------------------------------------
 |       | 111111110000 | 111101100000 |       |     3.9385380857891E-01
 |       | 111111101000 | 111111000000 |       |    -3.9862933928606E-01
 |       | 111111101000 | 111101100000 |       |     5.4720075674351E-01
 |       | 111111101000 | 111100110000 |       |     1.5741588378292E-01
 |       | 111111100100 | 111110100000 |       |    -1.4976530926378E-01
 |       | 111111100010 | 111110100000 |       |     2.3130768070953E-01
 |       | 111111010100 | 111111000000 |       |    -1.1714133041140E-01
 |       | 111110111000 | 111111000000 |       |    -1.0620452623873E-01
--------------------------------------------------
*** Contributions RASCI wfn    Active:  96.46
                                 Hole:   0.00
                                 Part:   3.54

      Mulliken population analysis 
 ---------------------------------------------------
   Atom    Charge (a.u.)   Spin (a.u.)  
 ---------------------------------------------------
   1  C    0.094886        0.007047 
   2  O   -0.408912        0.013973 
   3  C    0.168406        0.175824 
   4  C    0.168406        0.175824 
   5  C    0.153048        0.065195 
   6  C   -0.217189        0.187356 
   7  C   -0.162730        0.111298 
   8  C   -0.368260        0.277991 
   9  C    0.012268        0.166462 
  10  H    0.161986        0.001354 
  11  H    0.131226        0.002161 
  12  H    0.141554        0.000987 
  13  H    0.136704        0.000861 
  14  C    0.153048        0.065195 
  15  C   -0.217189        0.187356 
  16  C   -0.368260        0.277991 
  17  C   -0.162730        0.111298 
  18  C    0.012268        0.166462 
  19  H    0.131226        0.002161 
  20  H    0.161986        0.001354 
  21  H    0.141554        0.000987 
  22  H    0.136704        0.000861 
 ---------------------------------------------------
   Sum:    0.000000        2.000000 
 ---------------------------------------------------
 
  
 NATURAL OCCUPATION NUMBERS (higher than 1.0E-05)
            1           2           3           4           5           6
    1   2.0000000   2.0000000   2.0000000   2.0000000   2.0000000   2.0000000
            7           8           9          10          11          12
    1   2.0000000   2.0000000   2.0000000   2.0000000   2.0000000   2.0000000
           13          14          15          16          17          18
    1   2.0000000   2.0000000   2.0000000   2.0000000   2.0000000   2.0000000
           19          20          21          22          23          24
    1   2.0000000   2.0000000   2.0000000   2.0000000   2.0000000   2.0000000
           25          26          27          28          29          30
    1   2.0000000   2.0000000   2.0000000   2.0000000   2.0000000   2.0000000
           31          32          33          34          35          36
    1   2.0000000   2.0000000   2.0000000   2.0000000   2.0000000   2.0000000
           37          38          39          40          41          42
    1   2.0000000   2.0000000   2.0000000   2.0000000   1.9748174   1.9663574
           43          44          45          46          47          48
    1   1.9616576   1.9385790   1.8216454   1.8064377   1.2042614   0.8279527
           49          50          51          52          53          54
    1   0.1760882   0.1726681   0.0716760   0.0454905   0.0143623   0.0136943
           55          56
    1   0.0025217   0.0017902
  
*** Unpaired Electrons
 Yamaguchi Nd:         3.84
 Head-Gordon Nu:       2.65
 Head-Gordon Nu_nl:    2.35
  
**************************************************
 RAS-CI total energy for state   9:   -571.894739895469
  Excitation energy (eV) =  3.705168374802
  State symmetry: A1    (C2v      )
  <S^2>      :  2.0000
  Dipole Moment:   -0.0000 X    -0.0000 Y     0.9176 Z
  Trans. Moment:   -0.8720 X     0.0000 Y     0.0000 Z
  Strength   :  0.069019
  Natural transition orbitals ( 1 -> 9 ):
   e-/hole pair  1 alpha:  ampl =  0.542953 ( 29.5%)   [12 : 13]
   e-/hole pair  2 alpha:  ampl =  0.087686 (  0.8%)   [11 : 14]
   e-/hole pair  1 beta :  ampl =  0.472705 ( 22.3%)   [12 : 13]
   e-/hole pair  2 beta :  ampl =  0.154692 (  2.4%)   [11 : 14]
   Sum of square amplitudes: 0.56

 NATURAL OCCUPATION NUMBERS (higher than 1.0E-05)
            1           2           3           4           5           6
    1   2.0000000   2.0000000   2.0000000   2.0000000   2.0000000   2.0000000
            7           8           9          10          11          12
    1   2.0000000   2.0000000   2.0000000   2.0000000   2.0000000   2.0000000
           13          14          15          16          17          18
    1   2.0000000   2.0000000   2.0000000   2.0000000   2.0000000   2.0000000
           19          20          21          22          23          24
    1   2.0000000   2.0000000   2.0000000   2.0000000   2.0000000   2.0000000
           25          26          27          28          29          30
    1   2.0000000   2.0000000   2.0000000   2.0000000   2.0000000   2.0000000
           31          32          33          34          35          36
    1   2.0000000   2.0000000   2.0000000   2.0000000   2.0000000   2.0000000
           37          38          39          40          41          42
    1   2.0000000   2.0000000   2.0000000   2.0000000   1.9737428   1.9659851
           43          44          45          46          47          48
    1   1.9422884   1.8846008   1.8630792   1.5819002   1.4512000   0.4935918
           49          50          51          52          53          54
    1   0.4837690   0.2088492   0.0612713   0.0560635   0.0149960   0.0144847
           55          56
    1   0.0023586   0.0018195
Natural Orbitals stored in FCHK

  Amplitudes : 
  
 | HOLE  | ALPHA        | BETA         | PART  |    AMPLITUDE 
--------------------------------------------------
 |       | 111111110000 | 111110100000 |       |     3.7174631436545E-01
 |       | 111111110000 | 111101010000 |       |    -1.5199646612673E-01
 |       | 111111110000 | 110111100000 |       |    -2.7680497596153E-01
 |       | 111111101000 | 111110100000 |       |     3.1381465158281E-01
 |       | 111111101000 | 110111100000 |       |     1.4447596722698E-01
 |       | 111111100100 | 111111000000 |       |     4.8644191642080E-01
 |       | 111111100100 | 111110010000 |       |    -1.3247408132955E-01
 |       | 111111100100 | 111101100000 |       |    -2.0988619843287E-01
 |       | 111111100100 | 101111100000 |       |    -1.1428886907305E-01
 |       | 111111100010 | 111111000000 |       |    -1.9603701992450E-01
 |       | 111111100010 | 111101100000 |       |     1.2356506726394E-01
 |       | 111111100001 | 111110100000 |       |     1.8890591497842E-01
 |       | 111110110100 | 111111000000 |       |     1.3374095064393E-01
--------------------------------------------------
*** Contributions RASCI wfn    Active:  95.48
                                 Hole:   0.00
                                 Part:   4.52

      Mulliken population analysis 
 ---------------------------------------------------
   Atom    Charge (a.u.)   Spin (a.u.)  
 ---------------------------------------------------
   1  C    0.040585        0.118481 
   2  O   -0.304432        0.230227 
   3  C    0.145459        0.232783 
   4  C    0.145459        0.232783 
   5  C    0.196106        0.074873 
   6  C   -0.267168        0.079074 
   7  C   -0.082008        0.063349 
   8  C   -0.385815        0.164728 
   9  C   -0.046216        0.206761 
  10  H    0.161831        0.000736 
  11  H    0.131304        0.001519 
  12  H    0.142384        0.000377 
  13  H    0.136045        0.001447 
  14  C    0.196106        0.074873 
  15  C   -0.267168        0.079074 
  16  C   -0.385815        0.164728 
  17  C   -0.082008        0.063349 
  18  C   -0.046216        0.206761 
  19  H    0.131304        0.001519 
  20  H    0.161831        0.000736 
  21  H    0.142384        0.000377 
  22  H    0.136045        0.001447 
 ---------------------------------------------------
   Sum:    0.000000        2.000000 
 ---------------------------------------------------
 
  
 NATURAL OCCUPATION NUMBERS (higher than 1.0E-05)
            1           2           3           4           5           6
    1   2.0000000   2.0000000   2.0000000   2.0000000   2.0000000   2.0000000
            7           8           9          10          11          12
    1   2.0000000   2.0000000   2.0000000   2.0000000   2.0000000   2.0000000
           13          14          15          16          17          18
    1   2.0000000   2.0000000   2.0000000   2.0000000   2.0000000   2.0000000
           19          20          21          22          23          24
    1   2.0000000   2.0000000   2.0000000   2.0000000   2.0000000   2.0000000
           25          26          27          28          29          30
    1   2.0000000   2.0000000   2.0000000   2.0000000   2.0000000   2.0000000
           31          32          33          34          35          36
    1   2.0000000   2.0000000   2.0000000   2.0000000   2.0000000   2.0000000
           37          38          39          40          41          42
    1   2.0000000   2.0000000   2.0000000   2.0000000   1.9737428   1.9659851
           43          44          45          46          47          48
    1   1.9422884   1.8846008   1.8630792   1.5819002   1.4512000   0.4935918
           49          50          51          52          53          54
    1   0.4837690   0.2088492   0.0612713   0.0560635   0.0149960   0.0144847
           55          56
    1   0.0023586   0.0018195
  
*** Unpaired Electrons
 Yamaguchi Nd:         4.31
 Head-Gordon Nu:       2.67
 Head-Gordon Nu_nl:    2.46
  
**************************************************
 RAS-CI total energy for state  10:   -571.890124341221
  Excitation energy (eV) =  3.830763995983
  State symmetry: A1    (C2v      )
  <S^2>      :  2.0000
  Dipole Moment:    0.0000 X    -0.0000 Y     1.8556 Z
  Trans. Moment:   -0.7309 X    -0.0000 Y     0.0000 Z
  Strength   :  0.050138
  Natural transition orbitals ( 1 -> 10 ):
   e-/hole pair  1 alpha:  ampl =  0.443866 ( 19.7%)   [12 : 13]
   e-/hole pair  2 alpha:  ampl =  0.345033 ( 11.9%)   [11 : 14]
   e-/hole pair  1 beta :  ampl =  0.256776 (  6.6%)   [12 : 13]
   e-/hole pair  2 beta :  ampl =  0.158527 (  2.5%)   [11 : 14]
   Sum of square amplitudes: 0.43

 NATURAL OCCUPATION NUMBERS (higher than 1.0E-05)
            1           2           3           4           5           6
    1   2.0000000   2.0000000   2.0000000   2.0000000   2.0000000   2.0000000
            7           8           9          10          11          12
    1   2.0000000   2.0000000   2.0000000   2.0000000   2.0000000   2.0000000
           13          14          15          16          17          18
    1   2.0000000   2.0000000   2.0000000   2.0000000   2.0000000   2.0000000
           19          20          21          22          23          24
    1   2.0000000   2.0000000   2.0000000   2.0000000   2.0000000   2.0000000
           25          26          27          28          29          30
    1   2.0000000   2.0000000   2.0000000   2.0000000   2.0000000   2.0000000
           31          32          33          34          35          36
    1   2.0000000   2.0000000   2.0000000   2.0000000   2.0000000   2.0000000
           37          38          39          40          41          42
    1   2.0000000   2.0000000   2.0000000   2.0000000   1.9740168   1.9547464
           43          44          45          46          47          48
    1   1.9311103   1.9003116   1.8563930   1.5588835   1.2005811   0.6905763
           49          50          51          52          53          54
    1   0.4579944   0.2735446   0.1054612   0.0595199   0.0194936   0.0132247
           55          56
    1   0.0021953   0.0019473
Natural Orbitals stored in FCHK

  Amplitudes : 
  
 | HOLE  | ALPHA        | BETA         | PART  |    AMPLITUDE 
--------------------------------------------------
 |       | 111111110000 | 111110100000 |       |     1.1161915206841E-01
 |       | 111111110000 | 111101001000 |       |     1.0945839465644E-01
 |       | 111111110000 | 111011100000 |       |     2.6278502768091E-01
 |       | 111111101000 | 111110100000 |       |    -2.2005323136899E-01
 |       | 111111101000 | 111011100000 |       |    -3.9112473256010E-01
 |       | 111111100100 | 111111000000 |       |     2.2580720461742E-01
 |       | 111111100100 | 111101100000 |       |     1.7542317120088E-01
 |       | 111111100010 | 111111000000 |       |     2.3165234227195E-01
 |       | 111111100010 | 111101100000 |       |     1.6193272692983E-01
 |       | 111111100010 | 101111100000 |       |    -1.0401801195831E-01
 |       | 111111011000 | 111111000000 |       |    -4.2065137976730E-01
 |       | 111111011000 | 111101100000 |       |    -1.1753662365121E-01
 |       | 111101111000 | 111111000000 |       |    -1.0795962972390E-01
--------------------------------------------------
*** Contributions RASCI wfn    Active:  96.06
                                 Hole:   0.00
                                 Part:   3.94

      Mulliken population analysis 
 ---------------------------------------------------
   Atom    Charge (a.u.)   Spin (a.u.)  
 ---------------------------------------------------
   1  C    0.042338        0.090702 
   2  O   -0.431703        0.099834 
   3  C    0.149084        0.029880 
   4  C    0.149084        0.029880 
   5  C    0.199246        0.163652 
   6  C   -0.276902        0.210531 
   7  C   -0.039576        0.193554 
   8  C   -0.340527        0.114433 
   9  C   -0.067945        0.187502 
  10  H    0.161616        0.001512 
  11  H    0.131761        0.000931 
  12  H    0.142082        0.001377 
  13  H    0.135843        0.001359 
  14  C    0.199246        0.163652 
  15  C   -0.276902        0.210531 
  16  C   -0.340527        0.114433 
  17  C   -0.039576        0.193554 
  18  C   -0.067945        0.187502 
  19  H    0.131761        0.000931 
  20  H    0.161616        0.001512 
  21  H    0.142082        0.001377 
  22  H    0.135843        0.001359 
 ---------------------------------------------------
   Sum:    0.000000        2.000000 
 ---------------------------------------------------
 
  
 NATURAL OCCUPATION NUMBERS (higher than 1.0E-05)
            1           2           3           4           5           6
    1   2.0000000   2.0000000   2.0000000   2.0000000   2.0000000   2.0000000
            7           8           9          10          11          12
    1   2.0000000   2.0000000   2.0000000   2.0000000   2.0000000   2.0000000
           13          14          15          16          17          18
    1   2.0000000   2.0000000   2.0000000   2.0000000   2.0000000   2.0000000
           19          20          21          22          23          24
    1   2.0000000   2.0000000   2.0000000   2.0000000   2.0000000   2.0000000
           25          26          27          28          29          30
    1   2.0000000   2.0000000   2.0000000   2.0000000   2.0000000   2.0000000
           31          32          33          34          35          36
    1   2.0000000   2.0000000   2.0000000   2.0000000   2.0000000   2.0000000
           37          38          39          40          41          42
    1   2.0000000   2.0000000   2.0000000   2.0000000   1.9740168   1.9547464
           43          44          45          46          47          48
    1   1.9311103   1.9003116   1.8563930   1.5588835   1.2005811   0.6905763
           49          50          51          52          53          54
    1   0.4579944   0.2735446   0.1054612   0.0595199   0.0194936   0.0132247
           55          56
    1   0.0021953   0.0019473
  
*** Unpaired Electrons
 Yamaguchi Nd:         4.85
 Head-Gordon Nu:       3.25
 Head-Gordon Nu_nl:    3.12
  
--------------------------------------------------
 Interstate Transition Properties
--------------------------------------------------
State A: Root  1
State B: Root  2
  
Angular momentum components
< B | Lx | A > =     0.000000000i
< B | Ly | A > =     0.433845318i
< B | Lz | A > =     0.000000000i
  
Norm of one-particle transition density matrix
||gamma^AB||_total       =  0.861330
||gamma^AB||_symmetrized =  0.692000
||gamma^AB||_anti-symm   =  0.512859
  
Spin-orbit couplings
 Using HF (reference) density for the 2-elec mean-field SOC contribution
KET: S',Sz' (Root   1) =  1.000 1.000
BRA: S ,Sz  (Root   2) =  1.000 1.000
Clebsh-Gordan coefficient: < 1.000, 1.000; 1.000, 0.000| 1.000, 1.000> =  0.707
 Computing 1e-SO integrals
 1e Reduced matrix elements (cm-1)
<S|| Hso(L-) ||S'> =     1.1187277518     0.0000000000
<S|| Hso(L0) ||S'> =     0.0000000000    -0.0000000000
<S|| Hso(L+) ||S'> =     1.1187277518    -0.0000000000
 1-elec SOC matrix (cm-1): < B(S,Sz) | Hso(1e) | A(S',Sz') >
                     |Sz'=-1.00>              |Sz'= 0.00>              |Sz'= 1.00>
 <Sz=-1.00|   -0.000000    0.000000i     0.791060   -0.000000i     0.000000   -0.000000i
 <Sz= 0.00|   -0.791060   -0.000000i    -0.000000    0.000000i     0.791060   -0.000000i
 <Sz= 1.00|    0.000000   -0.000000i    -0.791060   -0.000000i    -0.000000   -0.000000i
1-elec SOCC =     1.582119959 cm-1
 Computing 2e-SOMF integrals
 Averagin spin alpha/beta reference densities
[...]
142 A1  130 B1   61 A2   62 A2  143 A1   71 B2  131 B1  144 A1                 
  4.563   4.568   4.601   4.610   4.637   4.645   4.655   4.666
 63 A2   72 B2  145 A1   64 A2  132 B1   65 A2   73 B2  133 B1                 
  4.696   4.744   4.777   4.790   4.790   4.817   4.839   4.903
134 B1  146 A1  135 B1  147 A1   66 A2  136 B1  148 A1   74 B2                 
  4.938   4.979   5.003   5.003   5.059   5.088   5.107   5.126
149 A1   75 B2  150 A1  137 B1  138 B1  151 A1   67 A2  152 A1                 
  5.132   5.139   5.161   5.183   5.264   5.273   5.317   5.345
 68 A2  139 B1  153 A1  140 B1  154 A1  141 B1  155 A1  142 B1                 
  5.379   5.408   5.436   5.509   5.630   5.635   5.658   5.669
143 B1  156 A1  144 B1  157 A1  158 A1  145 B1  159 A1  146 B1                 
  5.678   5.695   5.766   5.800   5.907   5.930   5.955   6.036
 76 B2  147 B1  148 B1  160 A1  161 A1  149 B1  162 A1  150 B1                 
  6.090   6.127   6.253   6.370   6.654   6.937   6.975   7.158
 69 A2  151 B1  163 A1  152 B1   77 B2   70 A2  164 A1  165 A1                 
  7.310   7.369   7.653   7.736  22.987  23.570  23.588  23.691
153 B1   78 B2  166 A1  154 B1  167 A1  155 B1  168 A1  156 B1                 
 23.718  23.766  23.787  24.020  24.075  24.243  24.500  24.643
169 A1  170 A1  157 B1  171 A1  158 B1  159 B1  172 A1  173 A1                 
 24.737  45.603
160 B1  174 A1                                                                 
 
 Beta MOs, Restricted
 -- Doubly Occupied --           
-20.506 -11.302 -11.271 -11.271 -11.271 -11.270 -11.264 -11.264
  1 A1    2 A1    3 A1    1 B1    4 A1    2 B1    5 A1    3 B1                 
-11.265 -11.265 -11.259 -11.259 -11.249 -11.249  -1.347  -1.214
  4 B1    6 A1    5 B1    7 A1    8 A1    6 B1    9 A1   10 A1                 
 -1.163  -1.101  -1.065  -1.044  -0.996  -0.934  -0.888  -0.832
  7 B1   11 A1   12 A1    8 B1    9 B1   13 A1   14 A1   10 B1                 
 -0.807  -0.782  -0.721  -0.708  -0.676  -0.647  -0.639  -0.623
 11 B1   15 A1   16 A1   12 B1   17 A1   18 A1   13 B1   14 B1                 
 -0.616  -0.608  -0.588  -0.551  -0.544  -0.510  -0.505  -0.402
 19 A1   15 B1   20 A1   16 B1   21 A1   22 A1   17 B1   18 B1                 
 -0.605  -0.516  -0.522  -0.430  -0.381  -0.392
  1 B2    1 A2    2 B2    3 B2    2 A2    4 B2                                 
 -- Singly Occupied (Vacant) --  
 -0.324  -0.228
  3 A2    5 B2                                                                 
 -- Virtual --                   
  0.062   0.091   0.141   0.180   0.140   0.150   0.162   0.181
  6 B2    4 A2    5 A2    7 B2   23 A1   19 B1   24 A1   20 B1                 
  0.186   0.200   0.212   0.216   0.232   0.237   0.258   0.290
 25 A1   26 A1   21 B1   27 A1   22 B1   23 B1   28 A1   29 A1                 
  0.286   0.299   0.309   0.304   0.314   0.320   0.326   0.319
  8 B2   30 A1   24 B1    9 B2   31 A1   25 B1    6 A2    7 A2                 
  0.346   0.347   0.356   0.366   0.368   0.377   0.379   0.391
 32 A1   26 B1   10 B2   33 A1   11 B2   27 B1    8 A2   34 A1                 
  0.411   0.431   0.434   0.437   0.448   0.452   0.449   0.454
 28 B1    9 A2   29 B1   35 A1   12 B2   36 A1   13 B2   37 A1                 
  0.470   0.482   0.495   0.492   0.497   0.509   0.510   0.518
 38 A1   30 B1   39 A1   10 A2   31 B1   40 A1   32 B1   14 B2                 
  0.522   0.528   0.541   0.544   0.557   0.561   0.563   0.577
 11 A2   33 B1   34 B1   41 A1   35 B1   42 A1   15 B2   36 B1                 
  0.584   0.590   0.599   0.610   0.612   0.637   0.642   0.650
 43 A1   44 A1   12 A2   37 B1   45 A1   46 A1   38 B1   47 A1                 
  0.655   0.665   0.674   0.683   0.703   0.707   0.723   0.738
 39 B1   16 B2   40 B1   48 A1   41 B1   42 B1   49 A1   43 B1                 
  0.742   0.760   0.789   0.798   0.803   0.818   0.818   0.833
 17 B2   13 A2   50 A1   44 B1   51 A1   45 B1   52 A1   46 B1                 
  0.835   0.839   0.847   0.852   0.866   0.876   0.898   0.908
 18 B2   53 A1   14 A2   54 A1   47 B1   55 A1   15 A2   48 B1                 
  0.908   0.907   0.927   0.934   0.947   0.963   0.963   0.972
 56 A1   19 B2   49 B1   20 B2   50 B1   51 B1   57 A1   58 A1                 
  0.994   0.994   0.998   0.996   1.037   1.041   1.039   1.049
 59 A1   21 B2   52 B1   16 A2   60 A1   53 B1   22 B2   54 B1                 
  1.068   1.081   1.094   1.104   1.126   1.137   1.160   1.165
 61 A1   17 A2   55 B1   62 A1   56 B1   63 A1   57 B1   64 A1                 
  1.169   1.198   1.206   1.226   1.241   1.265   1.266   1.268
 18 A2   65 A1   23 B2   66 A1   19 A2   58 B1   24 B2   59 B1                 
  1.276   1.328   1.332   1.365   1.366   1.372   1.394   1.398
 67 A1   25 B2   20 A2   68 A1   21 A2   60 B1   69 A1   26 B2                 
  1.401   1.415   1.429   1.446   1.446   1.452   1.460   1.475
 61 B1   70 A1   71 A1   62 B1   27 B2   63 B1   72 A1   64 B1                 
  1.489   1.515   1.546   1.552   1.565   1.571   1.583   1.583
 73 A1   22 A2   65 B1   74 A1   66 B1   23 A2   75 A1   28 B2                 
  1.597   1.613   1.648   1.654   1.657   1.664   1.687   1.700
 67 B1   76 A1   68 B1   77 A1   24 A2   29 B2   69 B1   78 A1                 
  1.733   1.758   1.762   1.776   1.781   1.788   1.794   1.801
 25 A2   30 B2   31 B2   70 B1   26 A2   79 A1   71 B1   80 A1                 
  1.806   1.825   1.830   1.868   1.874   1.892   1.910   1.918
 81 A1   32 B2   72 B1   73 B1   27 A2   33 B2   82 A1   28 A2                 
  1.924   1.950   1.953   1.958   1.975   1.977   1.988   2.004
 83 A1   84 A1   34 B2   74 B1   35 B2   85 A1   29 A2   75 B1                 
  2.015   2.020   2.037   2.064   2.099   2.112   2.131   2.139
 30 A2   76 B1   86 A1   77 B1   36 B2   31 A2   87 A1   37 B2                 
  2.144   2.179   2.187   2.205   2.260   2.260   2.267   2.305
 32 A2   38 B2   33 A2   88 A1   78 B1   39 B2   34 A2   89 A1                 
  2.311   2.318   2.339   2.351   2.382   2.385   2.386   2.390
 35 A2   79 B1   90 A1   80 B1   91 A1   92 A1   81 B1   40 B2                 
  2.418   2.425   2.466   2.467   2.477   2.494   2.513   2.517
 82 B1   93 A1   94 A1   83 B1   95 A1   84 B1   85 B1   96 A1                 
  2.561   2.585   2.605   2.627   2.629   2.631   2.635   2.701
 86 B1   41 B2   97 A1   87 B1   36 A2   42 B2   98 A1   88 B1                 
  2.705   2.730   2.735   2.747   2.749   2.765   2.797   2.841
 99 A1  100 A1   37 A2   89 B1  101 A1   90 B1   43 B2  102 A1                 
  2.852   2.872   2.885   2.895   2.899   2.909   2.913   2.919
 91 B1   92 B1  103 A1   44 B2  104 A1   93 B1  105 A1   94 B1                 
  2.924   2.946   2.953   2.957   2.967   2.993   2.997   3.010
 38 A2  106 A1   39 A2   45 B2   95 B1   46 B2   96 B1   40 A2                 
  3.010   3.015   3.032   3.034   3.041   3.046   3.049   3.077
 47 B2   97 B1  107 A1   41 A2   98 B1  108 A1   48 B2  109 A1                 
  3.088   3.111   3.115   3.126   3.128   3.135   3.169   3.169
 49 B2   99 B1   42 A2  100 B1  110 A1   50 B2  101 B1  111 A1                 
  3.180   3.183   3.199   3.210   3.226   3.234   3.242   3.251
112 A1   43 A2  102 B1   44 A2  113 A1   51 B2  103 B1   52 B2                 
  3.263   3.268   3.295   3.315   3.317   3.322   3.327   3.347
104 B1  114 A1  115 A1   45 A2  116 A1  105 B1   53 B2   46 A2                 
  3.356   3.357   3.372   3.382   3.409   3.417   3.443   3.445
 54 B2   47 A2  117 A1   55 B2  118 A1   56 B2  106 B1  119 A1                 
  3.456   3.463   3.465   3.476   3.484   3.491   3.498   3.501
107 B1   48 A2  120 A1  108 B1   57 B2  121 A1  109 B1   49 A2                 
  3.511   3.542   3.549   3.555   3.572   3.574   3.593   3.604
 50 A2   58 B2  110 B1  122 A1   51 A2  111 B1   59 B2  123 A1                 
  3.607   3.623   3.630   3.662   3.665   3.666   3.678   3.688
112 B1  124 A1   60 B2   52 A2  125 A1  113 B1  114 B1   61 B2                 
  3.691   3.719   3.725   3.731   3.734   3.752   3.753   3.771
126 A1   62 B2   53 A2  115 B1  127 A1  128 A1   63 B2  116 B1                 
  3.793   3.796   3.803   3.833   3.833   3.849   3.862   3.860
129 A1   54 A2  117 B1   64 B2   55 A2  130 A1  118 B1   56 A2                 
  3.868   3.873   3.879   3.887   3.892   3.907   3.908   3.930
131 A1  119 B1  120 B1   57 A2   65 B2  132 A1   58 A2  133 A1                 
  3.947   3.995   3.997   4.012   4.036   4.090   4.111   4.140
121 B1  134 A1  122 B1   66 B2   59 A2  123 B1  135 A1   60 A2                 
  4.149   4.169   4.186   4.210   4.230   4.234   4.251   4.270
 67 B2  124 B1  136 A1  137 A1  125 B1   68 B2  126 B1  138 A1                 
  4.281   4.302   4.344   4.376   4.382   4.394   4.400   4.407
127 B1  139 A1  140 A1   69 B2  141 A1   70 B2  128 B1  129 B1                 
  4.434   4.459   4.458   4.480   4.504   4.526   4.540   4.549
142 A1  130 B1   61 A2   62 A2  143 A1   71 B2  131 B1  144 A1                 
  4.563   4.568   4.601   4.610   4.637   4.645   4.655   4.666
 63 A2   72 B2  145 A1   64 A2  132 B1   65 A2   73 B2  133 B1                 
  4.696   4.744   4.777   4.790   4.790   4.817   4.839   4.903
134 B1  146 A1  135 B1  147 A1   66 A2  136 B1  148 A1   74 B2                 
  4.938   4.979   5.003   5.003   5.059   5.088   5.107   5.126
149 A1   75 B2  150 A1  137 B1  138 B1  151 A1   67 A2  152 A1                 
  5.132   5.139   5.161   5.183   5.264   5.273   5.317   5.345
 68 A2  139 B1  153 A1  140 B1  154 A1  141 B1  155 A1  142 B1                 
  5.379   5.408   5.436   5.509   5.630   5.635   5.658   5.669
143 B1  156 A1  144 B1  157 A1  158 A1  145 B1  159 A1  146 B1                 
  5.678   5.695   5.766   5.800   5.907   5.930   5.955   6.036
 76 B2  147 B1  148 B1  160 A1  161 A1  149 B1  162 A1  150 B1                 
  6.090   6.127   6.253   6.370   6.654   6.937   6.975   7.158
 69 A2  151 B1  163 A1  152 B1   77 B2   70 A2  164 A1  165 A1                 
  7.310   7.369   7.653   7.736  22.987  23.570  23.588  23.691
153 B1   78 B2  166 A1  154 B1  167 A1  155 B1  168 A1  156 B1                 
 23.718  23.766  23.787  24.020  24.075  24.243  24.500  24.643
169 A1  170 A1  157 B1  171 A1  158 B1  159 B1  172 A1  173 A1                 
 24.737  45.603
160 B1  174 A1                                                                 
 --------------------------------------------------------------
 
          Ground-State Mulliken Net Atomic Charges

     Atom                 Charge (a.u.)
  ----------------------------------------
      1 C                     0.048296
      2 O                    -0.522280
      3 C                     0.179457
      4 C                     0.179457
      5 C                     0.163321
      6 C                    -0.246173
      7 C                    -0.039740
      8 C                    -0.300029
      9 C                    -0.093856
     10 H                     0.162416
     11 H                     0.132563
     12 H                     0.142790
     13 H                     0.136243
     14 C                     0.163321
     15 C                    -0.246173
     16 C                    -0.300029
     17 C                    -0.039740
     18 C                    -0.093856
     19 H                     0.132563
     20 H                     0.162416
     21 H                     0.142790
     22 H                     0.136243
  ----------------------------------------
  Sum of atomic charges =     0.000000

  Do orbital-by-orbital Lowdin population analysis
 
 
 Partial Mulliken analysis unavailable for frozen orbitals
 
 -----------------------------------------------------------------
                    Cartesian Multipole Moments
 -----------------------------------------------------------------
    Charge (ESU x 10^10)
                 0.0000
    Dipole Moment (Debye)
         X      -0.0000      Y      -0.0000      Z      -5.5022
       Tot       5.5022
    Quadrupole Moments (Debye-Ang)
        XX     -58.8230     XY      -0.0000     YY     -86.3019
        XZ      -0.0000     YZ       0.0000     ZZ     -87.8825
    Octopole Moments (Debye-Ang^2)
       XXX      -0.0000    XXY      -0.0000    XYY       0.0000
       YYY      -0.0000    XXZ       0.0872    XYZ       0.0000
       YYZ       7.1837    XZZ      -0.0000    YZZ      -0.0000
       ZZZ     -59.8950
    Hexadecapole Moments (Debye-Ang^3)
      XXXX   -1996.0826   XXXY      -0.0000   XXYY    -471.8630
      XYYY      -0.0000   YYYY    -100.4056   XXXZ       0.0000
      XXYZ      -0.0000   XYYZ      -0.0000   YYYZ       0.0000
      XXZZ    -507.0481   XYZZ      -0.0000   YYZZ    -201.2668
      XZZZ      -0.0000   YZZZ       0.0000   ZZZZ   -1116.8750
 -----------------------------------------------------------------
 Mayer SCF Bond Order, atomic valence on the diagonal:

            1           2           3           4           5           6
    1   1.2578620   0.5731216  -0.1842222  -0.0789331   0.0560598   0.0112118
    2   0.5731216   1.9549857  -0.1508639  -0.1508639   0.0092258   0.0569838
    3  -0.1842222  -0.1508639   3.3674822  -0.0840716  -0.0425123   0.0214808
    4  -0.0789331  -0.1508639  -0.0840716   3.3674822   1.1430623   1.2963282
    5   0.0560598   0.0092258  -0.0425123   1.1430623   3.5904600  -0.0595007
    6   0.0112118   0.0569838   0.0214808   1.2963282  -0.0595007   3.9562183
    7  -0.0134861   0.0098473   0.0087921   0.0418027  -0.0172973   1.5954863
    8  -0.0164161   0.0037546   0.0136726  -0.0064907   1.1490834   0.0578263
    9  -0.0014572   0.0048619   0.0181934   0.0052203  -0.0511972   0.0386308
   10   0.0019759   0.0067283   0.0000492   0.0018492   0.0059326   0.9691315
   11  -0.0002318   0.0005756  -0.0000414   0.0070727  -0.0217604   0.0008223
   12  -0.0070913  -0.0000723   0.0001863   0.0052381   0.0006754  -0.0092829
   13   0.0003200   0.0001303   0.0001226   0.0007108   0.0061226   0.0048912
   14  -0.0026179   0.0092258   1.1430623  -0.0425123   1.4009461   0.0112248
   15   0.0183320   0.0569838   1.2963282   0.0214808   0.0112248   0.0016806
   16  -0.0088466   0.0037546  -0.0064907   0.0136726  -0.0450678  -0.0003453
   17  -0.0112860   0.0098473   0.0418027   0.0087921   0.0249352   0.0021677
   18  -0.0006398   0.0048619   0.0052203   0.0181934   0.0310884   0.0020229
   19  -0.0004566   0.0005756   0.0070727  -0.0000414   0.0045777   0.0000815
   20  -0.0067101   0.0067283   0.0018492   0.0000492   0.0006014  -0.0000614
   21   0.0014171  -0.0000723   0.0052381   0.0001863   0.0007583   0.0000767
   22   0.0003209   0.0001303   0.0007108   0.0001226   0.0013927   0.0001929
            7           8           9          10          11          12
    1  -0.0134861  -0.0164161  -0.0014572   0.0019759  -0.0002318  -0.0070913
    2   0.0098473   0.0037546   0.0048619   0.0067283   0.0005756  -0.0000723
    3   0.0087921   0.0136726   0.0181934   0.0000492  -0.0000414   0.0001863
    4   0.0418027  -0.0064907   0.0052203   0.0018492   0.0070727   0.0052381
    5  -0.0172973   1.1490834  -0.0511972   0.0059326  -0.0217604   0.0006754
    6   1.5954863   0.0578263   0.0386308   0.9691315   0.0008223  -0.0092829
    7   3.8259034   0.0598247   1.1165313  -0.0233152   0.0065385   0.9804596
    8   0.0598247   3.9808398   1.7562539   0.0004677   0.9725527   0.0044415
    9   1.1165313   1.7562539   3.9177860   0.0069900   0.0028491  -0.0162440
   10  -0.0233152   0.0004677   0.0069900   0.9718318   0.0000906   0.0000464
   11   0.0065385   0.9725527   0.0028491   0.0000906   0.9765596   0.0005017
   12   0.9804596   0.0044415  -0.0162440   0.0000464   0.0005017   0.9672851
   13  -0.0158989  -0.0059209   0.9791397   0.0004372  -0.0002268  -0.0003611
   14   0.0249352  -0.0450678   0.0310884   0.0006014   0.0045777   0.0007583
   15   0.0021677  -0.0003453   0.0020229  -0.0000614   0.0000815   0.0000767
   16   0.0015364   0.0028857   0.0029544   0.0001222   0.0021166  -0.0000911
   17   0.0054941   0.0015364   0.0079897   0.0000286  -0.0001051   0.0000225
   18   0.0079897   0.0029544   0.0069364   0.0000327   0.0003266   0.0000728
   19  -0.0001051   0.0021166   0.0003266   0.0000042   0.0004071   0.0000225
   20   0.0000286   0.0001222   0.0000327   0.0000055   0.0000042   0.0000001
   21   0.0000225  -0.0000911   0.0000728   0.0000001   0.0000225   0.0000024
   22   0.0000291   0.0000184   0.0000617   0.0000060   0.0000102   0.0000011
           13          14          15          16          17          18
    1   0.0003200  -0.0026179   0.0183320  -0.0088466  -0.0112860  -0.0006398
    2   0.0001303   0.0092258   0.0569838   0.0037546   0.0098473   0.0048619
    3   0.0001226   1.1430623   1.2963282  -0.0064907   0.0418027   0.0052203
    4   0.0007108  -0.0425123   0.0214808   0.0136726   0.0087921   0.0181934
    5   0.0061226   1.4009461   0.0112248  -0.0450678   0.0249352   0.0310884
    6   0.0048912   0.0112248   0.0016806  -0.0003453   0.0021677   0.0020229
    7  -0.0158989   0.0249352   0.0021677   0.0015364   0.0054941   0.0079897
    8  -0.0059209  -0.0450678  -0.0003453   0.0028857   0.0015364   0.0029544
    9   0.9791397   0.0310884   0.0020229   0.0029544   0.0079897   0.0069364
   10   0.0004372   0.0006014  -0.0000614   0.0001222   0.0000286   0.0000327
   11  -0.0002268   0.0045777   0.0000815   0.0021166  -0.0001051   0.0003266
   12  -0.0003611   0.0007583   0.0000767  -0.0000911   0.0000225   0.0000728
   13   0.9709516   0.0013927   0.0001929   0.0000184   0.0000291   0.0000617
   14   0.0013927   3.5904600  -0.0595007   1.1490834  -0.0172973  -0.0511972
   15   0.0001929  -0.0595007   3.9562183   0.0578263   1.5954863   0.0386308
   16   0.0000184   1.1490834   0.0578263   3.9808398   0.0598248   1.7562539
   17   0.0000291  -0.0172973   1.5954863   0.0598248   3.8259034   1.1165313
   18   0.0000617  -0.0511972   0.0386308   1.7562539   1.1165313   3.9177860
   19   0.0000102  -0.0217604   0.0008223   0.9725527   0.0065385   0.0028491
   20   0.0000060   0.0059326   0.9691315   0.0004677  -0.0233152   0.0069900
   21   0.0000011   0.0006754  -0.0092829   0.0044415   0.9804596  -0.0162440
   22   0.0000051   0.0061226   0.0048912  -0.0059209  -0.0158989   0.9791397
           19          20          21          22
    1  -0.0004566  -0.0067101   0.0014171   0.0003209
    2   0.0005756   0.0067283  -0.0000723   0.0001303
    3   0.0070727   0.0018492   0.0052381   0.0007108
    4  -0.0000414   0.0000492   0.0001863   0.0001226
    5   0.0045777   0.0006014   0.0007583   0.0013927
    6   0.0000815  -0.0000614   0.0000767   0.0001929
    7  -0.0001051   0.0000286   0.0000225   0.0000291
    8   0.0021166   0.0001222  -0.0000911   0.0000184
    9   0.0003266   0.0000327   0.0000728   0.0000617
   10   0.0000042   0.0000055   0.0000001   0.0000060
   11   0.0004071   0.0000042   0.0000225   0.0000102
   12   0.0000225   0.0000001   0.0000024   0.0000011
   13   0.0000102   0.0000060   0.0000011   0.0000051
   14  -0.0217604   0.0059326   0.0006754   0.0061226
   15   0.0008223   0.9691315  -0.0092829   0.0048912
   16   0.9725527   0.0004677   0.0044415  -0.0059209
   17   0.0065385  -0.0233152   0.9804596  -0.0158989
   18   0.0028491   0.0069900  -0.0162440   0.9791397
   19   0.9765596   0.0000906   0.0005017  -0.0002268
   20   0.0000906   0.9718318   0.0000464   0.0004372
   21   0.0005017   0.0000464   0.9672851  -0.0003611
   22  -0.0002268   0.0004372  -0.0003611   0.9709516


 Total job time:  449969.44s(wall), 412042.67s(cpu) 
 Sun Sep 17 10:19:37 2023

        *************************************************************
        *                                                           *
        *  Thank you very much for using Q-Chem.  Have a nice day.  *
        *                                                           *
        *************************************************************


