                  Welcome to Q-Chem
     A Quantum Leap Into The Future Of Chemistry


 Q-Chem 6.0 (devel), Q-Chem, Inc., Pleasanton, CA (2022)

 E. Epifanovsky,  A. T. B. Gilbert,  Xintian Feng,  Joonho Lee,  Yuezhi Mao,  
 N. Mardirossian,  P. Pokhilko,  A. White,  M. Wormit,  M. P. Coons,  
 A. L. Dempwolff,  Zhengting Gan,  D. Hait,  P. R. Horn,  L. D. Jacobson,  
 I. Kaliman,  J. Kussmann,  A. W. Lange,  Ka Un Lao,  D. S. Levine,  Jie Liu,  
 S. C. McKenzie,  A. F. Morrison,  K. Nanda,  F. Plasser,  D. R. Rehn,  
 M. L. Vidal,  Zhi-Qiang You,  Ying Zhu,  B. Alam,  B. Albrecht,  
 A. Aldossary,  E. Alguire,  J. H. Andersen,  V. Athavale,  D. Barton,  
 K. Begam,  A. Behn,  N. Bellonzi,  Y. A. Bernard,  E. J. Berquist,  
 H. Burton,  A. Carreras,  K. Carter-Fenk,  Romit Chakraborty,  
 Chandrima Chakravarty,  Junhan Chen,  A. D. Chien,  K. D. Closser,  
 V. Cofer-Shabica,  L. Cunha,  S. Dasgupta,  Jia Deng,  M. de Wergifosse,  
 M. Diedenhofen,  Hainam Do,  S. Ehlert,  Po-Tung Fang,  S. Fatehi,  
 Qingguo Feng,  T. Friedhoff,  B. Ganoe,  J. Gayvert,  Qinghui Ge,  
 G. Gidofalvi,  M. Goldey,  J. Gomes,  C. Gonzalez-Espinoza,  S. Gulania,  
 A. Gunina,  J. A. Gyamfi,  M. W. D. Hanson-Heine,  P. H. P. Harbach,  
 A. W. Hauser,  M. F. Herbst,  M. Hernandez Vera,  M. Hodecker,  
 Z. C. Holden,  S. Houck,  Xunkun Huang,  Kerwin Hui,  B. C. Huynh,  
 K. Ikeda,  M. Ivanov,  Hyunjun Ji,  Zuxin Jin,  Hanjie Jiang,  B. Kaduk,  
 S. Kaehler,  R. Kang,  K. Khistyaev,  Jaehoon Kim,  Yongbin Kim,  
 P. Klunzinger,  Z. Koczor-Benda,  Joong Hoon Koh,  D. Kosenkov,  
 Saikiran Kotaru,  L. Koulias,  T. Kowalczyk,  C. M. Krauter,  K. Kue,  
 A. Kunitsa,  T. Kus,  A. Landau,  K. V. Lawler,  D. Lefrancois,  S. Lehtola,  
 Rain Li,  Shaozhi Li,  Yi-Pei Li,  Jiashu Liang,  M. Liebenthal,  
 Hung-Hsuan Lin,  You-Sheng Lin,  Fenglai Liu,  Kuan-Yu Liu,  
 M. Loipersberger,  A. Luenser,  C. Malbon,  A. Manjanath,  P. Manohar,  
 E. Mansoor,  S. F. Manzer,  Shan-Ping Mao,  A. V. Marenich,  T. Markovich,  
 S. Mason,  F. Matz,  S. A. Maurer,  P. F. McLaughlin,  M. F. S. J. Menger,  
 J.-M. Mewes,  S. A. Mewes,  P. Morgante,  Mohammad Mostafanejad,  
 J. W. Mullinax,  K. J. Oosterbaan,  G. Paran,  V. Parravicini,  
 Alexander C. Paul,  Suranjan K. Paul,  F. Pavosevic,  Zheng Pei,  S. Prager,  
 E. I. Proynov,  E. Ramos,  B. Rana,  A. E. Rask,  A. Rettig,  R. M. Richard,  
 F. Rob,  E. Rossomme,  T. Scheele,  M. Scheurer,  M. Schneider,  
 P. E. Schneider,  N. Sergueev,  S. M. Sharada,  Hengyuan Shen,  
 W. Skomorowski,  D. W. Small,  C. J. Stein,  Yingli Su,  Yu-Chuan Su,  
 E. J. Sundstrom,  Zhen Tao,  J. Thirman,  Hung-Yi Tsai,  T. Tsuchimochi,  
 N. M. Tubman,  C. Utku,  S. P. Veccham,  O. Vydrov,  J. Wenzel,  
 Jonathan Wong,  J. Witte,  A. Yamada,  Chou-Hsun Yang,  Kun Yao,  
 S. Yeganeh,  S. R. Yost,  A. Zech,  F. Zeller,  Igor Ying Zhang,  
 Xing Zhang,  Yu Zhang,  D. Zuev,  A. Aspuru-Guzik,  A. T. Bell,  
 N. A. Besley,  K. B. Bravaya,  B. R. Brooks,  D. Casanova,  Jeng-Da Chai,  
 Hsing-Ta Chen,  S. Coriani,  C. J. Cramer,  A. E. DePrince, III,  
 R. A. DiStasio Jr.,  A. Dreuw,  B. D. Dunietz,  T. R. Furlani,  
 W. A. Goddard III,  S. Grimme,  S. Hammes-Schiffer,  T. Head-Gordon,  
 W. J. Hehre,  Chao-Ping Hsu,  T.-C. Jagau,  Yousung Jung,  A. Klamt,  
 Jing Kong,  D. S. Lambrecht,  Xiangyuan Li,  WanZhen Liang,  N. J. Mayhall,  
 C. W. McCurdy,  J. B. Neaton,  T. Neudecker,  C. Ochsenfeld,  
 J. A. Parkhill,  R. Peverati,  V. A. Rassolov,  Haisheng Ren,  Yihan Shao,  
 L. V. Slipchenko,  R. P. Steele,  J. E. Subotnik,  A. J. W. Thom,  
 A. Tkatchenko,  D. G. Truhlar,  T. Van Voorhis,  Fan Wang,  
 T. A. Wesolowski,  K. B. Whaley,  H. L. Woodcock III,  P. M. Zimmerman,  
 S. Faraji,  P. M. W. Gill,  M. Head-Gordon,  J. M. Herbert,  A. I. Krylov

 Contributors to earlier versions of Q-Chem not listed above: 
 R. D. Adamson,  B. Austin,  R. Baer,  J. Baker,  G. J. O. Beran,  
 K. Brandhorst,  S. T. Brown,  E. F. C. Byrd,  Arup K. Chakraborty,  
 G. K. L. Chan,  Chun-Min Chang,  Yunqing Chen,  C.-L. Cheng,  
 Siu Hung Chien,  D. M. Chipman,  D. L. Crittenden,  H. Dachsel,  
 R. J. Doerksen,  A. D. Dutoi,  R. G. Edgar,  J. Fosso-Tande,  
 L. Fusti-Molnar,  D. Ghosh,  A. Ghysels,  A. Golubeva-Zadorozhnaya,  
 J. Gonthier,  M. S. Gordon,  S. R. Gwaltney,  G. Hawkins,  J. E. Herr,  
 A. Heyden,  S. Hirata,  E. G. Hohenstein,  G. Kedziora,  F. J. Keil,  
 C. Kelley,  Jihan Kim,  R. A. King,  R. Z. Khaliullin,  P. P. Korambath,  
 W. Kurlancheek,  A. Laurent,  A. M. Lee,  M. S. Lee,  S. V. Levchenko,  
 Ching Yeh Lin,  D. Liotard,  E. Livshits,  R. C. Lochan,  I. Lotan,  
 L. A. Martinez-Martinez,  P. E. Maslen,  N. Nair,  D. P. O'Neill,  
 D. Neuhauser,  E. Neuscamman,  C. M. Oana,  R. Olivares-Amaya,  R. Olson,  
 T. M. Perrine,  B. Peters,  P. A. Pieniazek,  A. Prociuk,  Y. M. Rhee,  
 J. Ritchie,  M. A. Rohrdanz,  E. Rosta,  N. J. Russ,  H. F. Schaefer III,  
 M. W. Schmidt,  N. E. Schultz,  S. Sharma,  N. Shenvi,  C. D. Sherrill,  
 A. C. Simmonett,  A. Sodt,  T. Stein,  D. Stuck,  K. S. Thanthiriwatte,  
 V. Vanovschi,  L. Vogt,  Tao Wang,  A. Warshel,  M. A. Watson,  
 C. F. Williams,  Q. Wu,  X. Xu,  Jun Yang,  W. Zhang,  Yan Zhao

   Please cite Q-Chem as follows:
  "Software for the frontiers of quantum chemistry:
   An overview of developments in the Q-Chem 5 package"
   J. Chem. Phys. 155, 084801 (2021)
   https://doi.org/10.1063/5.0055522 (open access)

 Q-Chem 6.0.1 for Intel X86 EM64T Linux

 Parts of Q-Chem use Armadillo 9.900.5 (Nocturnal Misbehaviour).
 http://arma.sourceforge.net/

 Q-Chem begins on Tue Nov 14 19:25:06 2023  

 Host: atlas-188
0

     Scratch files written to ./qchem239159//
 Processing $rem in /scratch/abel/SOFTWARE/qchem/config/preferences:
 Processing $rem in /dipc/acebg/.qchemrc:

 Checking the input file for inconsistencies... 	...done.

--------------------------------------------------------------
User input:
--------------------------------------------------------------
$comment
 RAS-SF CALCULATION
$end

$molecule
 READ fluorenone.molecule
$end

$rem
!**CALCULATION TYPE***     
JOBTYPE            sp    
EXCHANGE           HF
CORRELATION        RASCI    !RASCI=Casanova; RASCI2=Zimmerman
BASIS              def2-TZVP
BASIS2             STO-3G

!***SCF REFERENCE***
INPUT_BOHR          TRUE
!SKIP_SCFMAN        FALSE
UNRESTRICTED       FALSE
!SCF_GUESS          core
!SCF_GUESS_MIX      FALSE
!SCF_GUESS_ALWAYS   FALSE
MAX_SCF_CYCLES     999
!SCF_CONVERGENCE    8
SCF_ALGORITHM      DIIS_GDM !DIIS,DM,DIIS_DM,GDM,DIIS_GDM,GD

!SYMMETRY           TRUE   !use of symmetry for calculating integrals
!SYM_IGNORE         FALSE  !turn off using symmetry
!SYM_TOL            5      !tolerance for determining point group
!USE_ABELIAN_SUBGROUP      !define to use abelian group

!THRESH             14
SCF_FINAL_PRINT     1 !0,1,2,3

!****RAS-SF****
RAS_ROOTS          50       !number of RAS-CI roots to be computed
SET_ITER           150     !number of iterations in RASCI
RAS_ELEC           4       !number of electrons in RAS2
!RAS_ELEC_ALPHA     3       !spin-α electrons in RAS2 
!RAS_ELEC_BETA      1       !spin-β electrons in RAS2

RAS_ACT            4       !number of orbitals in RAS2 
RAS_ACT_ORB  [46,47,48,49]  !user-selected RAS2 orbitals
RAS_OCC            45       !number of orbitals in RAS1
!N_FROZEN_CORE      20     !Number of frozen core orbitals
!N_FROZEN_VIRTUAL   410    !Number of frozen virtual orbitals

RAS_DO_HOLE        TRUE   !presence of hole excitations in RAS-CI wave function
RAS_DO_PART        TRUE   !presence of particle excitations
!RAS_AMPL_PRINT     10     !threshold (×10 2 ) for the CI amplitudes

!RAS_GUESS_CS       0      !number of closed shell guess conﬁgurations
RAS_SPIN_MULT      0      !spin multiplicity. Only for Ms = 0 
!RAS_SRDFT          FALSE  !short-range density functional RAS-CI
!RAS_NFRAG          0     !fragments of excitation analysis in RASCI

RAS_PRINT          2      !level of information
RAS_NATORB         TRUE   !computation of the natural orbital occupancies
!RAS_NATORB_STATE  0      !Saves NO of i RAS computed state in .fchk ﬁle
!RAS_FOD            TRUE

!****RAS-SOC****
CALC_SOC           TRUE   !calculate SOC for EOM-CC, RAS-CI, ADC, TDDFT/TDA and TDDFT
!RAS_SOC_2E        TRUE   !two-electron mean-ﬁeld contribution, default=true
RAS_SOC_SYM_DENS   TRUE   !averaging of α and β densities

!****MEMORY****
MEM_TOTAL          70000 !Default 2000 MB
MEM_STATIC         15000  !Default 64 MB

!**Molecular Properties and Analysis **                                                                                          
POP_MULLIKEN       TRUE   !Run Mulliken population analysis
LOWDIN_POPULATION  TRUE   !Run Löwdin population analysis
GUI                2       !Checkpoints generation
STATE_ANALYSIS     TRUE

!**Wave function analysis of RAS-CI states: MOLDEN**
!PLOTS = 0     ! Note: This can be omitted, default is 0
!NTO_PAIRS = 2 ! Note: This can be omitted, default is 2
!GUI 0
!MOLDEN_FORMAT      TRUE
!PRINT_ORBITALS     15

!**Wave function analysis of RAS-CI state: CUBE**
!NTO_PAIRS = 2 ! Note: This can be omitted, default is 2
!PLOTS = 1
!GUI 0

!**SR-DFT**
!RAS_SRDFT           TRUE !Perform short-range density functional RAS-CI
!RAS_SRDFT_EXC       0 !EX functional. 0=HF. 
!RAS_SRDFT_ONLY_COR  TRUE !No use of EXC functional
!RAS_SRDFT_COR       srPBE !short-range correlation functional
!ras_srdft_0         TRUE !true: no iteration (one-shot); false: iteration
!RAS_OMEGA           400 !Coulomb range-separation parameter. def=400
!RAS_SRDFT_DAMP     0.5 !dumping factor. def=0.5
$end

!$plots
!   grid_points 100 100 100
!   grid_range  (-10,10) (-10,10) (-10,10)
!$end

--------------------------------------------------------------
 ----------------------------------------------------------------
             Standard Nuclear Orientation (Bohr)
    I     Atom           X                Y                Z
 ----------------------------------------------------------------
    1      C      -0.0000000000    -0.0000000000     3.0318066276
    2      O      -0.0000000000    -0.0000000000     5.3638644743
    3      C      -2.1864624130    -0.0000000000     1.3211263669
    4      C       2.1864624130     0.0000000000     1.3211263669
    5      C       1.3222785792     0.0000000000    -1.3152461482
    6      C       4.7555386627     0.0000000000     1.8776505802
    7      C       6.4695983050     0.0000000000    -0.0972082822
    8      C       3.1392439890     0.0000000000    -3.3016694193
    9      C       5.6496513315     0.0000000000    -2.6924387954
   10      H       5.3730975132     0.0000000000     3.8295121100
   11      H       2.5395104465     0.0000000000    -5.2593503586
   12      H       8.4790954600     0.0000000000     0.2945733557
   13      H       7.0667355415     0.0000000000    -4.1688986988
   14      C      -1.3222785792    -0.0000000000    -1.3152461482
   15      C      -4.7555386627    -0.0000000000     1.8776505802
   16      C      -3.1392439890    -0.0000000000    -3.3016694193
   17      C      -6.4695983050    -0.0000000000    -0.0972082822
   18      C      -5.6496513315    -0.0000000000    -2.6924387954
   19      H      -2.5395104465    -0.0000000000    -5.2593503586
   20      H      -5.3730975132    -0.0000000000     3.8295121100
   21      H      -8.4790954600    -0.0000000000     0.2945733557
   22      H      -7.0667355415    -0.0000000000    -4.1688986988
 ----------------------------------------------------------------
 Molecular Point Group                 C2v   NOp =  4
 Largest Abelian Subgroup              C2v   NOp =  4
 Nuclear Repulsion Energy =         775.12034816 hartrees
 There are       48 alpha and       46 beta electrons
 Requested basis set is def2-TZVP
 There are 186 shells and 482 basis functions

 Q-Chem warning in module libmdc/get_mega.C, line 167:

 Allowed MEM_STATIC has been capped at MEM_STATIC=8191.
 Reduce the value of MEM_STATIC to silence this warning.


 Total QAlloc Memory Limit  70000 MB
 Mega-Array Size      8007 MB
 MEM_STATIC part      8191 MB

 A cutoff of  1.0D-09 yielded  13341 shell pairs
 There are     89641 function pairs (    116642 Cartesian)
 Smallest overlap matrix eigenvalue = 7.88E-06

 Q-Chem warning in module stvman/mkSTV.C, line 313:

 Overlap eigenvalue is smaller than square root of threshold
 Use THRESH >= 12 to get rid of this warning


 Scale SEOQF with 1.000000e-01/1.000000e+00/1.000000e-01

 Standard Electronic Orientation quadrupole field applied
 Nucleus-field energy     =    -0.0000000045 hartrees
 Requested basis set is STO-3G
 There are 36 shells and 78 basis functions
 A cutoff of  1.0D-09 yielded    508 shell pairs
 There are      2824 function pairs
 Smallest overlap matrix eigenvalue = 1.76E-01
 Constructing guess Fock matrix from core Hamiltonian
 Applying Wolfsberg-Helmholtz approximation
 A restricted Hartree-Fock SCF calculation will be
 performed using Geometric Direct Minimization
 SCF converges when RMS gradient is below 1.0E-04
 ---------------------------------------
  Cycle       Energy        RMS Gradient
 ---------------------------------------
    1    -562.9071884020      5.40E-01 Descent step
    2    -563.4687844878      3.98E-01 Descent step
    3    -563.9065938671      2.32E-01 Descent step
    4    -564.2366040034      1.45E-01 Descent step
    5    -564.4695535386      8.16E-02 Descent step
    6    -564.6116778141      5.24E-02 Dog-leg BFGS step
    7    -564.6679870182      2.32E-02 Normal BFGS step
    8    -564.6702340444      9.19E-03 Normal BFGS step
    9    -564.6705084635      3.00E-03 Normal BFGS step
   10    -564.6705718159      1.54E-03 Normal BFGS step
   11    -564.6705774858      5.91E-04 Normal BFGS step
   12    -564.6705785197      2.39E-04 Normal BFGS step
   13    -564.6705787715      1.08E-04 Normal BFGS step
   14    -564.6705788166      3.43E-05 Convergence criterion met
 ---------------------------------------
 One-Electron    Energy = -2309.3889407721
 Total Coulomb   Energy =  1048.2627072027
 Alpha Exchange  Energy =   -39.9845107568
 Beta  Exchange  Energy =   -38.6801826422
 DFT   Exchange  Energy =     0.0000000000
 DFT Correlation Energy =     0.0000000000
 Nuclear Repu.   Energy =   775.1203481517
 Nuclear Attr.   Energy = -2869.0559405023
 Kinetic         Energy =   559.6669997302
 SCF time:  CPU 1.27 s  wall 2.10 s
 SCF   energy in the small basis set = -564.67057882
 Total energy in the small basis set = -564.67057882
 ----------------------------------------------------
  Cycle       Energy    
 ----------------------------------------------------
    1     -70.8912839774     -7.09E+01
 A restricted Hartree-Fock SCF calculation will be
 performed using Geometric Direct Minimization
 SCF converges when RMS gradient is below 1.0E-05
 ---------------------------------------
  Cycle       Energy        RMS Gradient
 ---------------------------------------
    1    -571.6538726055      3.32E-01 Descent step
    2    -571.8116593413      9.92E-02 Descent step
    3    -571.9032318624      4.53E-02 Normal BFGS step
    4    -571.9223098008      2.25E-02 Normal BFGS step
    5    -571.9247201919      1.27E-02 Normal BFGS step
    6    -571.9252359201      8.63E-03 Normal BFGS step
    7    -571.9255113145      4.10E-03 Normal BFGS step
    8    -571.9255879012      1.83E-03 Normal BFGS step
    9    -571.9256014489      1.28E-03 Normal BFGS step
   10    -571.9256069452      4.08E-04 Normal BFGS step
   11    -571.9256078801      1.77E-04 Normal BFGS step
   12    -571.9256081324      4.46E-05 Normal BFGS step
   13    -571.9256076299      7.17E-06 Convergence criterion met
 ---------------------------------------
 One-Electron    Energy = -2313.5360403653
 Total Coulomb   Energy =  1045.0564390603
 Alpha Exchange  Energy =   -39.7460934078
 Beta  Exchange  Energy =   -38.8202610688
 DFT   Exchange  Energy =     0.0000000000
 DFT Correlation Energy =     0.0000000000
 Nuclear Repu.   Energy =   775.1203481517
 Nuclear Attr.   Energy = -2884.7512949042
 Kinetic         Energy =   571.2152545389
 SCF time:  CPU 751.94 s  wall 755.70 s
 SCF   energy in the final basis set = -571.92560763
 Total energy in the final basis set = -571.92560763
  
     ##========================================##
     ||                                        ||
     ||              R A S M A N 2             ||
     ||________________________________________||
     ||                                        ||
     ||  Author:                               ||
     ||                                        ||
     ||        David Casanova (2010)           ||
     ||                                        ||
     ##========================================##
  
Setting single-point xc-functionals (if necessary)

  ***************************************************
  *  RAS-CI Dimensions:                             *
  *                                                 *
  *  Active Elec.:   4 ( 2, 2)   Active Orb.:   4   *
  *  Doubly Occ. :  45           Doubly Vir.: 433   *
  *  Frozen Occ. :   0           Frozen Vir.:   0   *
  *                                                 *
  *  Total CI configurations:     22980             * 
  *    Active configurations:        36             * 
  *      Hole configurations:      2160             * 
  *  Particle configurations:     20784             * 
  *                                                 *
  *   Requested states:       50                    *
  *  Spin multiplicity: Any multiplicity            *
  *                                                 *
  ***************************************************
-----------------------------------------
    Memory requirements of RASCI

 Each CI-vector requires      0.18 MiB 
 Max. subspace vectors           7500      

 Reduced Lists                0.00 MiB 
 Excitation Lists             0.00 MiB 
 Excitation Lists Sign        0.00 MiB 
 CI-space (Max)            1752.90 MiB 
 Integrals                   66.06 MiB 
 Memory required (Max)     1752.90 MiB 
 Memory available          7811.55 MiB 

    Disk requirements of RASCI

 Fock matrix                  3.54 MiB 
 2-electron integrals        97.76 MiB 
 CI-space                  2629.85 MiB 
 Disk required             2731.16 MiB 
-----------------------------------------
  
RAS1 HF-like energy:           -569.4711055563
 Computing integrals
 Computing J and K matrices
 Computing addressing
 Making amplitude guesses
 
Direct CI diagonalization
 ---------------------------------------------------
 Iter    Rts Conv    Rts Left    Ttl Dev     Max Dev
 ---------------------------------------------------
   1         0          50      0.033547    0.001076
   2         0          50      0.020193    0.000753
   3         0          50      0.024807    0.001508
   4         0          50      0.026779    0.001611
   5         0          50      0.021925    0.001145
   6         0          50      0.016824    0.001131
   7         0          50      0.010238    0.000558
   8         1          49      0.006544    0.000544
   9         2          48      0.004724    0.000561
  10         3          47      0.003300    0.000500
  11         6          44      0.003260    0.000858
  12        11          39      0.002478    0.000650
  13        12          38      0.002134    0.000557
  14        15          35      0.001777    0.000530
  15        23          27      0.002422    0.000681
  16        31          19      0.002393    0.000733
  17        34          16      0.001708    0.000458
  18        38          12      0.001295    0.000315
  19        39          11      0.000901    0.000252
  20        40          10      0.000644    0.000180
  21        40          10      0.000427    0.000151
  22        42           8      0.000317    0.000127
  23        43           7      0.000212    0.000084
  24        44           6      0.000140    0.000049
  25        44           6      0.000089    0.000029
  26        44           6      0.000058    0.000016
  27        45           5      0.000041    0.000009
  28        45           5      0.000031    0.000006
  29        46           4      0.000024    0.000003
  30        48           2      0.000020    0.000001
  31        50           0      0.000018    0.000001    Roots Converged
 ---------------------------------------------------
   
**************************************************
 RAS-CI total energy for state   1:   -572.017085695736
  Excitation energy (eV) =  0.000000000000
  State symmetry: A1    (C2v      )
  <S^2>      :  0.0000
  Dipole Moment:   -0.0000 X     0.0000 Y     1.5227 Z
 NATURAL OCCUPATION NUMBERS (higher than 1.0E-05)
            1           2           3           4           5           6
    1   2.0000000   2.0000000   2.0000000   2.0000000   2.0000000   2.0000000
            7           8           9          10          11          12
    1   2.0000000   2.0000000   2.0000000   2.0000000   2.0000000   2.0000000
           13          14          15          16          17          18
    1   2.0000000   2.0000000   2.0000000   2.0000000   2.0000000   2.0000000
           19          20          21          22          23          24
    1   2.0000000   2.0000000   2.0000000   2.0000000   2.0000000   2.0000000
           25          26          27          28          29          30
    1   2.0000000   2.0000000   2.0000000   2.0000000   2.0000000   2.0000000
           31          32          33          34          35          36
    1   2.0000000   2.0000000   2.0000000   2.0000000   2.0000000   2.0000000
           37          38          39          40          41          42
    1   2.0000000   2.0000000   2.0000000   2.0000000   1.9999438   1.9998328
           43          44          45          46          47          48
    1   1.9992251   1.9959389   1.9913955   1.9600059   1.9439207   0.0656824
           49          50          51          52          53          54
    1   0.0249942   0.0134371   0.0023063   0.0021107   0.0004322   0.0002390
           55          56          57          58          59
    1   0.0002120   0.0001381   0.0001269   0.0000296   0.0000112

 Head-Gordon Nu:    0.22
 Head-Gordon Nu_nl: 0.04

  Amplitudes : 
  
 | HOLE  | ALPHA | BETA  | PART  |    AMPLITUDE 
--------------------------------------------------
 |       | 1100  | 1100  |       |     9.3451767653246E-01
 |       | 1100  | 0110  |       |     1.6835025029583E-01
 |       | 0110  | 1100  |       |     1.6835025346643E-01
--------------------------------------------------
*** Contributions RASCI wfn    Active:  94.68
                                 Hole:   1.63
                                 Part:   3.69

      Mulliken population analysis 
 ---------------------------------------------------
   Atom    Charge (a.u.)   Spin (a.u.)  
 ---------------------------------------------------
   1  C    0.176000       -0.000000 
   2  O   -0.455676        0.000000 
   3  C    0.106060       -0.000001 
   4  C    0.106060       -0.000001 
   5  C    0.182276        0.000000 
   6  C   -0.213908        0.000001 
   7  C   -0.113847        0.000000 
   8  C   -0.324581        0.000000 
   9  C   -0.070056       -0.000001 
  10  H    0.162639        0.000000 
  11  H    0.132475        0.000000 
  12  H    0.142336       -0.000000 
  13  H    0.136443        0.000000 
  14  C    0.182276        0.000000 
  15  C   -0.213908        0.000001 
  16  C   -0.324581        0.000000 
  17  C   -0.113847        0.000000 
  18  C   -0.070056       -0.000001 
  19  H    0.132475        0.000000 
  20  H    0.162639        0.000000 
  21  H    0.142336       -0.000000 
  22  H    0.136443        0.000000 
 ---------------------------------------------------
   Sum:    0.000000        0.000000 
 ---------------------------------------------------
 
  
 NATURAL OCCUPATION NUMBERS (higher than 1.0E-05)
            1           2           3           4           5           6
    1   2.0000000   2.0000000   2.0000000   2.0000000   2.0000000   2.0000000
            7           8           9          10          11          12
    1   2.0000000   2.0000000   2.0000000   2.0000000   2.0000000   2.0000000
           13          14          15          16          17          18
    1   2.0000000   2.0000000   2.0000000   2.0000000   2.0000000   2.0000000
           19          20          21          22          23          24
    1   2.0000000   2.0000000   2.0000000   2.0000000   2.0000000   2.0000000
           25          26          27          28          29          30
    1   2.0000000   2.0000000   2.0000000   2.0000000   2.0000000   2.0000000
           31          32          33          34          35          36
    1   2.0000000   2.0000000   2.0000000   2.0000000   2.0000000   2.0000000
           37          38          39          40          41          42
    1   2.0000000   2.0000000   2.0000000   2.0000000   1.9999438   1.9998328
           43          44          45          46          47          48
    1   1.9992251   1.9959389   1.9913955   1.9600059   1.9439207   0.0656824
           49          50          51          52          53          54
    1   0.0249942   0.0134371   0.0023063   0.0021107   0.0004322   0.0002390
           55          56          57          58          59
    1   0.0002120   0.0001381   0.0001269   0.0000296   0.0000112
  
*** Unpaired Electrons
 Yamaguchi Nd:         0.43
 Head-Gordon Nu:       0.22
 Head-Gordon Nu_nl:    0.04
  
**************************************************
 RAS-CI total energy for state   2:   -571.945561996501
  Excitation energy (eV) =  1.946258878762
  State symmetry: B1    (C2v      )
  <S^2>      :  2.0000
  Dipole Moment:   -0.0000 X     0.0000 Y     2.1806 Z
  Trans. Moment:    0.0000 X    -0.0000 Y     0.0000 Z
  Strength   :  0.000000
  Natural transition orbitals ( 1 -> 2 ):
   e-/hole pair  1:  ampl =  0.952267 ( 90.7%)   [4 : 5]
   e-/hole pair  2:  ampl =  0.120292 (  1.4%)   [3 : 6]
   Sum of square amplitudes: 0.94

 NATURAL OCCUPATION NUMBERS (higher than 1.0E-05)
            1           2           3           4           5           6
    1   2.0000000   2.0000000   2.0000000   2.0000000   2.0000000   2.0000000
            7           8           9          10          11          12
    1   2.0000000   2.0000000   2.0000000   2.0000000   2.0000000   2.0000000
           13          14          15          16          17          18
    1   2.0000000   2.0000000   2.0000000   2.0000000   2.0000000   2.0000000
           19          20          21          22          23          24
    1   2.0000000   2.0000000   2.0000000   2.0000000   2.0000000   2.0000000
           25          26          27          28          29          30
    1   2.0000000   2.0000000   2.0000000   2.0000000   2.0000000   2.0000000
           31          32          33          34          35          36
    1   2.0000000   2.0000000   2.0000000   2.0000000   2.0000000   2.0000000
           37          38          39          40          41          42
    1   2.0000000   2.0000000   2.0000000   2.0000000   1.9998514   1.9990830
           43          44          45          46          47          48
    1   1.9988385   1.9953431   1.9939234   1.9644499   1.0070945   0.9899931
           49          50          51          52          53          54
    1   0.0238077   0.0195440   0.0044384   0.0013295   0.0010153   0.0005685
           55          56          57          58          59          60
    1   0.0003219   0.0001526   0.0001200   0.0000607   0.0000207   0.0000168
           61
    1   0.0000109

 Head-Gordon Nu:    2.08
 Head-Gordon Nu_nl: 2.01

  Amplitudes : 
  
 | HOLE  | ALPHA | BETA  | PART  |    AMPLITUDE 
--------------------------------------------------
 |       | 1100  | 1010  |       |     6.8973800771292E-01
 |       | 1010  | 1100  |       |    -6.8973800771290E-01
--------------------------------------------------
*** Contributions RASCI wfn    Active:  95.66
                                 Hole:   1.45
                                 Part:   2.89

      Mulliken population analysis 
 ---------------------------------------------------
   Atom    Charge (a.u.)   Spin (a.u.)  
 ---------------------------------------------------
   1  C    0.045315       -0.000000 
   2  O   -0.518762       -0.000000 
   3  C    0.178898       -0.000000 
   4  C    0.178898        0.000000 
   5  C    0.165698       -0.000000 
   6  C   -0.244784        0.000000 
   7  C   -0.049356       -0.000000 
   8  C   -0.306529       -0.000000 
   9  C   -0.081169        0.000000 
  10  H    0.162415        0.000000 
  11  H    0.132520        0.000000 
  12  H    0.142718       -0.000000 
  13  H    0.136314       -0.000000 
  14  C    0.165698        0.000000 
  15  C   -0.244784       -0.000000 
  16  C   -0.306529        0.000000 
  17  C   -0.049356        0.000000 
  18  C   -0.081169       -0.000000 
  19  H    0.132520       -0.000000 
  20  H    0.162415       -0.000000 
  21  H    0.142718        0.000000 
  22  H    0.136314       -0.000000 
 ---------------------------------------------------
   Sum:    0.000000        0.000000 
 ---------------------------------------------------
 
  
 NATURAL OCCUPATION NUMBERS (higher than 1.0E-05)
            1           2           3           4           5           6
    1   2.0000000   2.0000000   2.0000000   2.0000000   2.0000000   2.0000000
            7           8           9          10          11          12
    1   2.0000000   2.0000000   2.0000000   2.0000000   2.0000000   2.0000000
           13          14          15          16          17          18
    1   2.0000000   2.0000000   2.0000000   2.0000000   2.0000000   2.0000000
           19          20          21          22          23          24
    1   2.0000000   2.0000000   2.0000000   2.0000000   2.0000000   2.0000000
           25          26          27          28          29          30
    1   2.0000000   2.0000000   2.0000000   2.0000000   2.0000000   2.0000000
           31          32          33          34          35          36
    1   2.0000000   2.0000000   2.0000000   2.0000000   2.0000000   2.0000000
           37          38          39          40          41          42
    1   2.0000000   2.0000000   2.0000000   2.0000000   1.9998514   1.9990830
           43          44          45          46          47          48
    1   1.9988385   1.9953431   1.9939234   1.9644499   1.0070945   0.9899931
           49          50          51          52          53          54
    1   0.0238077   0.0195440   0.0044384   0.0013295   0.0010153   0.0005685
           55          56          57          58          59          60
    1   0.0003219   0.0001526   0.0001200   0.0000607   0.0000207   0.0000168
           61
    1   0.0000109
  
*** Unpaired Electrons
 Yamaguchi Nd:         2.20
 Head-Gordon Nu:       2.08
 Head-Gordon Nu_nl:    2.01
  
**************************************************
 RAS-CI total energy for state   3:   -571.915602570736
  Excitation energy (eV) =  2.761496331805
  State symmetry: B1    (C2v      )
  <S^2>      :  0.0000
  Dipole Moment:    0.0000 X     0.0000 Y     2.5618 Z
  Trans. Moment:    0.3629 X     0.0000 Y    -0.0000 Z
  Strength   :  0.008908
  Natural transition orbitals ( 1 -> 3 ):
   e-/hole pair  1:  ampl =  0.944938 ( 89.3%)   [4 : 5]
   e-/hole pair  2:  ampl =  0.088968 (  0.8%)   [3 : 6]
   Sum of square amplitudes: 0.91

 NATURAL OCCUPATION NUMBERS (higher than 1.0E-05)
            1           2           3           4           5           6
    1   2.0000000   2.0000000   2.0000000   2.0000000   2.0000000   2.0000000
            7           8           9          10          11          12
    1   2.0000000   2.0000000   2.0000000   2.0000000   2.0000000   2.0000000
           13          14          15          16          17          18
    1   2.0000000   2.0000000   2.0000000   2.0000000   2.0000000   2.0000000
           19          20          21          22          23          24
    1   2.0000000   2.0000000   2.0000000   2.0000000   2.0000000   2.0000000
           25          26          27          28          29          30
    1   2.0000000   2.0000000   2.0000000   2.0000000   2.0000000   2.0000000
           31          32          33          34          35          36
    1   2.0000000   2.0000000   2.0000000   2.0000000   2.0000000   2.0000000
           37          38          39          40          41          42
    1   2.0000000   2.0000000   2.0000000   2.0000000   1.9998197   1.9992660
           43          44          45          46          47          48
    1   1.9982415   1.9909877   1.9897078   1.9668383   1.0013189   0.9987796
           49          50          51          52          53          54
    1   0.0357644   0.0116442   0.0038861   0.0019386   0.0004824   0.0004312
           55          56          57          58          59          60
    1   0.0002851   0.0002611   0.0001562   0.0000579   0.0000530   0.0000383
           61          62
    1   0.0000150   0.0000138

 Head-Gordon Nu:    2.11
 Head-Gordon Nu_nl: 2.01

  Amplitudes : 
  
 | HOLE  | ALPHA | BETA  | PART  |    AMPLITUDE 
--------------------------------------------------
 |       | 1100  | 1010  |       |     6.6108375833672E-01
 |       | 1100  | 1001  |       |    -1.1930805475558E-01
 |       | 1010  | 1100  |       |     6.6108375833674E-01
 |       | 1001  | 1100  |       |    -1.1930805475558E-01
--------------------------------------------------
*** Contributions RASCI wfn    Active:  91.29
                                 Hole:   3.25
                                 Part:   5.46

      Mulliken population analysis 
 ---------------------------------------------------
   Atom    Charge (a.u.)   Spin (a.u.)  
 ---------------------------------------------------
   1  C   -0.082661        0.000000 
   2  O   -0.526502        0.000000 
   3  C    0.219280       -0.000000 
   4  C    0.219280        0.000000 
   5  C    0.185675       -0.000000 
   6  C   -0.252692       -0.000000 
   7  C   -0.032897        0.000000 
   8  C   -0.301770       -0.000000 
   9  C   -0.087024        0.000000 
  10  H    0.162337       -0.000000 
  11  H    0.132560       -0.000000 
  12  H    0.142838       -0.000000 
  13  H    0.136274        0.000000 
  14  C    0.185675        0.000000 
  15  C   -0.252692        0.000000 
  16  C   -0.301770        0.000000 
  17  C   -0.032897       -0.000000 
  18  C   -0.087024       -0.000000 
  19  H    0.132560        0.000000 
  20  H    0.162337       -0.000000 
  21  H    0.142838       -0.000000 
  22  H    0.136274       -0.000000 
 ---------------------------------------------------
   Sum:    0.000000       -0.000000 
 ---------------------------------------------------
 
  
 NATURAL OCCUPATION NUMBERS (higher than 1.0E-05)
            1           2           3           4           5           6
    1   2.0000000   2.0000000   2.0000000   2.0000000   2.0000000   2.0000000
            7           8           9          10          11          12
    1   2.0000000   2.0000000   2.0000000   2.0000000   2.0000000   2.0000000
           13          14          15          16          17          18
    1   2.0000000   2.0000000   2.0000000   2.0000000   2.0000000   2.0000000
           19          20          21          22          23          24
    1   2.0000000   2.0000000   2.0000000   2.0000000   2.0000000   2.0000000
           25          26          27          28          29          30
    1   2.0000000   2.0000000   2.0000000   2.0000000   2.0000000   2.0000000
           31          32          33          34          35          36
    1   2.0000000   2.0000000   2.0000000   2.0000000   2.0000000   2.0000000
           37          38          39          40          41          42
    1   2.0000000   2.0000000   2.0000000   2.0000000   1.9998197   1.9992660
           43          44          45          46          47          48
    1   1.9982415   1.9909877   1.9897078   1.9668383   1.0013189   0.9987796
           49          50          51          52          53          54
    1   0.0357644   0.0116442   0.0038861   0.0019386   0.0004824   0.0004312
           55          56          57          58          59          60
    1   0.0002851   0.0002611   0.0001562   0.0000579   0.0000530   0.0000383
           61          62
    1   0.0000150   0.0000138
  
*** Unpaired Electrons
 Yamaguchi Nd:         2.22
 Head-Gordon Nu:       2.11
 Head-Gordon Nu_nl:    2.01
  
**************************************************
 RAS-CI total energy for state   4:   -571.873734613196
  Excitation energy (eV) =  3.900781421480
  State symmetry: A1    (C2v      )
  <S^2>      :  2.0000
  Dipole Moment:   -0.0000 X     0.0000 Y     1.8793 Z
  Trans. Moment:   -0.0000 X    -0.0000 Y     0.0000 Z
  Strength   :  0.000000
  Natural transition orbitals ( 1 -> 4 ):
   e-/hole pair  1:  ampl =  0.863267 ( 74.5%)   [4 : 5]
   e-/hole pair  2:  ampl =  0.413713 ( 17.1%)   [3 : 6]
   Sum of square amplitudes: 0.93

 NATURAL OCCUPATION NUMBERS (higher than 1.0E-05)
            1           2           3           4           5           6
    1   2.0000000   2.0000000   2.0000000   2.0000000   2.0000000   2.0000000
            7           8           9          10          11          12
    1   2.0000000   2.0000000   2.0000000   2.0000000   2.0000000   2.0000000
           13          14          15          16          17          18
    1   2.0000000   2.0000000   2.0000000   2.0000000   2.0000000   2.0000000
           19          20          21          22          23          24
    1   2.0000000   2.0000000   2.0000000   2.0000000   2.0000000   2.0000000
           25          26          27          28          29          30
    1   2.0000000   2.0000000   2.0000000   2.0000000   2.0000000   2.0000000
           31          32          33          34          35          36
    1   2.0000000   2.0000000   2.0000000   2.0000000   2.0000000   2.0000000
           37          38          39          40          41          42
    1   2.0000000   2.0000000   2.0000000   2.0000000   1.9998474   1.9991685
           43          44          45          46          47          48
    1   1.9989945   1.9944271   1.9760626   1.7698274   1.1972362   0.8284328
           49          50          51          52          53          54
    1   0.1850588   0.0401005   0.0051290   0.0027386   0.0014258   0.0006746
           55          56          57          58          59          60
    1   0.0002916   0.0002103   0.0001232   0.0000642   0.0000614   0.0000383
           61          62          63          64
    1   0.0000268   0.0000191   0.0000146   0.0000145

 Head-Gordon Nu:    2.13
 Head-Gordon Nu_nl: 2.15

  Amplitudes : 
  
 | HOLE  | ALPHA | BETA  | PART  |    AMPLITUDE 
--------------------------------------------------
 |       | 1100  | 0110  |       |    -5.9216596334264E-01
 |       | 0110  | 1100  |       |     5.9216596521047E-01
 |  44   | 1110  | 1100  |       |     1.0167448550408E-01
 |  44   | 1100  | 1110  |       |    -1.0167449297266E-01
 |       | 1000  | 1100  |  50   |    -2.7561865824875E-01
 |       | 1100  | 1000  |  50   |     2.7561861035491E-01
 |       | 1000  | 0110  |  50   |    -1.4372944698392E-01
 |       | 0110  | 1000  |  50   |     1.4372952082255E-01
--------------------------------------------------
*** Contributions RASCI wfn    Active:  71.22
                                 Hole:   6.15
                                 Part:  22.62

      Mulliken population analysis 
 ---------------------------------------------------
   Atom    Charge (a.u.)   Spin (a.u.)  
 ---------------------------------------------------
   1  C    0.030046        0.000000 
   2  O   -0.435203        0.000000 
   3  C    0.167838       -0.000000 
   4  C    0.167838       -0.000000 
   5  C    0.171558        0.000000 
   6  C   -0.225214        0.000000 
   7  C   -0.122682        0.000000 
   8  C   -0.302285        0.000000 
   9  C   -0.060216       -0.000000 
  10  H    0.162492        0.000000 
  11  H    0.132570        0.000000 
  12  H    0.142251        0.000000 
  13  H    0.136266        0.000000 
  14  C    0.171558        0.000000 
  15  C   -0.225214        0.000000 
  16  C   -0.302285        0.000000 
  17  C   -0.122682        0.000000 
  18  C   -0.060216       -0.000000 
  19  H    0.132570        0.000000 
  20  H    0.162492        0.000000 
  21  H    0.142251        0.000000 
  22  H    0.136266        0.000000 
 ---------------------------------------------------
   Sum:    0.000000        0.000000 
 ---------------------------------------------------
 
  
 NATURAL OCCUPATION NUMBERS (higher than 1.0E-05)
            1           2           3           4           5           6
    1   2.0000000   2.0000000   2.0000000   2.0000000   2.0000000   2.0000000
            7           8           9          10          11          12
    1   2.0000000   2.0000000   2.0000000   2.0000000   2.0000000   2.0000000
           13          14          15          16          17          18
    1   2.0000000   2.0000000   2.0000000   2.0000000   2.0000000   2.0000000
           19          20          21          22          23          24
    1   2.0000000   2.0000000   2.0000000   2.0000000   2.0000000   2.0000000
           25          26          27          28          29          30
    1   2.0000000   2.0000000   2.0000000   2.0000000   2.0000000   2.0000000
           31          32          33          34          35          36
    1   2.0000000   2.0000000   2.0000000   2.0000000   2.0000000   2.0000000
           37          38          39          40          41          42
    1   2.0000000   2.0000000   2.0000000   2.0000000   1.9998474   1.9991685
           43          44          45          46          47          48
    1   1.9989945   1.9944271   1.9760626   1.7698274   1.1972362   0.8284328
           49          50          51          52          53          54
    1   0.1850588   0.0401005   0.0051290   0.0027386   0.0014258   0.0006746
           55          56          57          58          59          60
    1   0.0002916   0.0002103   0.0001232   0.0000642   0.0000614   0.0000383
           61          62          63          64
    1   0.0000268   0.0000191   0.0000146   0.0000145
  
*** Unpaired Electrons
 Yamaguchi Nd:         2.84
 Head-Gordon Nu:       2.13
 Head-Gordon Nu_nl:    2.15
  
**************************************************
 RAS-CI total energy for state   5:   -571.860229251428
  Excitation energy (eV) =  4.268281012981
  State symmetry: B1    (C2v      )
  <S^2>      :  2.0000
  Dipole Moment:    0.0000 X     0.0000 Y     1.6141 Z
  Trans. Moment:   -0.0000 X    -0.0000 Y     0.0000 Z
  Strength   :  0.000000
  Natural transition orbitals ( 1 -> 5 ):
   e-/hole pair  1:  ampl =  0.884947 ( 78.3%)   [4 : 5]
   e-/hole pair  2:  ampl =  0.339583 ( 11.5%)   [3 : 6]
   Sum of square amplitudes: 0.91

 NATURAL OCCUPATION NUMBERS (higher than 1.0E-05)
            1           2           3           4           5           6
    1   2.0000000   2.0000000   2.0000000   2.0000000   2.0000000   2.0000000
            7           8           9          10          11          12
    1   2.0000000   2.0000000   2.0000000   2.0000000   2.0000000   2.0000000
           13          14          15          16          17          18
    1   2.0000000   2.0000000   2.0000000   2.0000000   2.0000000   2.0000000
           19          20          21          22          23          24
    1   2.0000000   2.0000000   2.0000000   2.0000000   2.0000000   2.0000000
           25          26          27          28          29          30
    1   2.0000000   2.0000000   2.0000000   2.0000000   2.0000000   2.0000000
           31          32          33          34          35          36
    1   2.0000000   2.0000000   2.0000000   2.0000000   2.0000000   2.0000000
           37          38          39          40          41          42
    1   2.0000000   2.0000000   2.0000000   2.0000000   1.9993826   1.9983200
           43          44          45          46          47          48
    1   1.9973056   1.9951597   1.9374243   1.8708786   1.1290417   0.8496429
           49          50          51          52          53          54
    1   0.1920242   0.0171044   0.0059637   0.0045874   0.0014772   0.0004141
           55          56          57          58          59          60
    1   0.0003988   0.0003357   0.0002223   0.0000970   0.0000531   0.0000442
           61          62          63          64
    1   0.0000306   0.0000302   0.0000221   0.0000157

 Head-Gordon Nu:    2.14
 Head-Gordon Nu_nl: 2.12

  Amplitudes : 
  
 | HOLE  | ALPHA | BETA  | PART  |    AMPLITUDE 
--------------------------------------------------
 |       | 1100  | 1001  |       |    -6.0393378968825E-01
 |       | 1001  | 1100  |       |     6.0393378968826E-01
 |       | 1001  | 0110  |       |     1.6135241920819E-01
 |       | 0110  | 1001  |       |    -1.6135241920818E-01
 |  45   | 1110  | 1100  |       |     2.5158996031129E-01
 |  45   | 1100  | 1110  |       |    -2.5158996031129E-01
--------------------------------------------------
*** Contributions RASCI wfn    Active:  80.56
                                 Hole:  15.34
                                 Part:   4.10

      Mulliken population analysis 
 ---------------------------------------------------
   Atom    Charge (a.u.)   Spin (a.u.)  
 ---------------------------------------------------
   1  C    0.112546       -0.000000 
   2  O   -0.443242        0.000000 
   3  C    0.188630        0.000000 
   4  C    0.188630       -0.000000 
   5  C    0.196148        0.000000 
   6  C   -0.304109       -0.000000 
   7  C   -0.070944        0.000000 
   8  C   -0.372972       -0.000000 
   9  C   -0.043798        0.000000 
  10  H    0.161744        0.000000 
  11  H    0.131674       -0.000000 
  12  H    0.142410        0.000000 
  13  H    0.136564        0.000000 
  14  C    0.196148       -0.000000 
  15  C   -0.304109        0.000000 
  16  C   -0.372972        0.000000 
  17  C   -0.070944       -0.000000 
  18  C   -0.043798       -0.000000 
  19  H    0.131674        0.000000 
  20  H    0.161744       -0.000000 
  21  H    0.142410       -0.000000 
  22  H    0.136564       -0.000000 
 ---------------------------------------------------
   Sum:    0.000000        0.000000 
 ---------------------------------------------------
 
  
 NATURAL OCCUPATION NUMBERS (higher than 1.0E-05)
            1           2           3           4           5           6
    1   2.0000000   2.0000000   2.0000000   2.0000000   2.0000000   2.0000000
            7           8           9          10          11          12
    1   2.0000000   2.0000000   2.0000000   2.0000000   2.0000000   2.0000000
           13          14          15          16          17          18
    1   2.0000000   2.0000000   2.0000000   2.0000000   2.0000000   2.0000000
           19          20          21          22          23          24
    1   2.0000000   2.0000000   2.0000000   2.0000000   2.0000000   2.0000000
           25          26          27          28          29          30
    1   2.0000000   2.0000000   2.0000000   2.0000000   2.0000000   2.0000000
           31          32          33          34          35          36
    1   2.0000000   2.0000000   2.0000000   2.0000000   2.0000000   2.0000000
           37          38          39          40          41          42
    1   2.0000000   2.0000000   2.0000000   2.0000000   1.9993826   1.9983200
           43          44          45          46          47          48
    1   1.9973056   1.9951597   1.9374243   1.8708786   1.1290417   0.8496429
           49          50          51          52          53          54
    1   0.1920242   0.0171044   0.0059637   0.0045874   0.0014772   0.0004141
           55          56          57          58          59          60
    1   0.0003988   0.0003357   0.0002223   0.0000970   0.0000531   0.0000442
           61          62          63          64
    1   0.0000306   0.0000302   0.0000221   0.0000157
  
*** Unpaired Electrons
 Yamaguchi Nd:         2.75
 Head-Gordon Nu:       2.14
 Head-Gordon Nu_nl:    2.12
  
**************************************************
 RAS-CI total energy for state   6:   -571.845640403148
  Excitation energy (eV) =  4.665263772539
  State symmetry: B1    (C2v      )
  <S^2>      :  0.0000
  Dipole Moment:   -0.0000 X     0.0000 Y     1.8702 Z
  Trans. Moment:   -0.4638 X     0.0000 Y    -0.0000 Z
  Strength   :  0.024582
  Natural transition orbitals ( 1 -> 6 ):
   e-/hole pair  1:  ampl =  0.704052 ( 49.6%)   [4 : 5]
   e-/hole pair  2:  ampl =  0.572918 ( 32.8%)   [3 : 6]
   Sum of square amplitudes: 0.84

 NATURAL OCCUPATION NUMBERS (higher than 1.0E-05)
            1           2           3           4           5           6
    1   2.0000000   2.0000000   2.0000000   2.0000000   2.0000000   2.0000000
            7           8           9          10          11          12
    1   2.0000000   2.0000000   2.0000000   2.0000000   2.0000000   2.0000000
           13          14          15          16          17          18
    1   2.0000000   2.0000000   2.0000000   2.0000000   2.0000000   2.0000000
           19          20          21          22          23          24
    1   2.0000000   2.0000000   2.0000000   2.0000000   2.0000000   2.0000000
           25          26          27          28          29          30
    1   2.0000000   2.0000000   2.0000000   2.0000000   2.0000000   2.0000000
           31          32          33          34          35          36
    1   2.0000000   2.0000000   2.0000000   2.0000000   2.0000000   2.0000000
           37          38          39          40          41          42
    1   2.0000000   2.0000000   2.0000000   2.0000000   1.9989531   1.9977663
           43          44          45          46          47          48
    1   1.9957391   1.9950064   1.8938620   1.6075946   1.3814726   0.6629641
           49          50          51          52          53          54
    1   0.4329880   0.0187178   0.0076825   0.0050573   0.0007122   0.0005593
           55          56          57          58          59          60
    1   0.0003801   0.0001496   0.0001403   0.0000915   0.0000699   0.0000244
           61          62          63          64
    1   0.0000223   0.0000138   0.0000118   0.0000104

 Head-Gordon Nu:    2.26
 Head-Gordon Nu_nl: 2.42

  Amplitudes : 
  
 | HOLE  | ALPHA | BETA  | PART  |    AMPLITUDE 
--------------------------------------------------
 |       | 1100  | 1001  |       |    -4.5192616771137E-01
 |       | 1010  | 0110  |       |    -1.3433639572367E-01
 |       | 1001  | 1100  |       |    -4.5192616771137E-01
 |       | 1001  | 0110  |       |    -1.4651047656556E-01
 |       | 0110  | 1010  |       |    -1.3433639572367E-01
 |       | 0110  | 1001  |       |    -1.4651047656557E-01
 |  45   | 1110  | 1100  |       |     4.4445148719697E-01
 |  45   | 1100  | 1110  |       |     4.4445148719696E-01
--------------------------------------------------
*** Contributions RASCI wfn    Active:  52.74
                                 Hole:  43.04
                                 Part:   4.22

      Mulliken population analysis 
 ---------------------------------------------------
   Atom    Charge (a.u.)   Spin (a.u.)  
 ---------------------------------------------------
   1  C    0.093565       -0.000000 
   2  O   -0.476323        0.000000 
   3  C    0.124530       -0.000000 
   4  C    0.124530        0.000000 
   5  C    0.133601       -0.000000 
   6  C   -0.192682       -0.000000 
   7  C   -0.098017       -0.000000 
   8  C   -0.311127       -0.000000 
   9  C   -0.038248        0.000000 
  10  H    0.162387        0.000000 
  11  H    0.132100       -0.000000 
  12  H    0.142274       -0.000000 
  13  H    0.136563        0.000000 
  14  C    0.133601        0.000000 
  15  C   -0.192682       -0.000000 
  16  C   -0.311127        0.000000 
  17  C   -0.098017        0.000000 
  18  C   -0.038248        0.000000 
  19  H    0.132100       -0.000000 
  20  H    0.162387       -0.000000 
  21  H    0.142274       -0.000000 
  22  H    0.136563       -0.000000 
 ---------------------------------------------------
   Sum:    0.000000        0.000000 
 ---------------------------------------------------
 
  
 NATURAL OCCUPATION NUMBERS (higher than 1.0E-05)
            1           2           3           4           5           6
    1   2.0000000   2.0000000   2.0000000   2.0000000   2.0000000   2.0000000
            7           8           9          10          11          12
    1   2.0000000   2.0000000   2.0000000   2.0000000   2.0000000   2.0000000
           13          14          15          16          17          18
    1   2.0000000   2.0000000   2.0000000   2.0000000   2.0000000   2.0000000
           19          20          21          22          23          24
    1   2.0000000   2.0000000   2.0000000   2.0000000   2.0000000   2.0000000
           25          26          27          28          29          30
    1   2.0000000   2.0000000   2.0000000   2.0000000   2.0000000   2.0000000
           31          32          33          34          35          36
    1   2.0000000   2.0000000   2.0000000   2.0000000   2.0000000   2.0000000
           37          38          39          40          41          42
    1   2.0000000   2.0000000   2.0000000   2.0000000   1.9989531   1.9977663
           43          44          45          46          47          48
    1   1.9957391   1.9950064   1.8938620   1.6075946   1.3814726   0.6629641
           49          50          51          52          53          54
    1   0.4329880   0.0187178   0.0076825   0.0050573   0.0007122   0.0005593
           55          56          57          58          59          60
    1   0.0003801   0.0001496   0.0001403   0.0000915   0.0000699   0.0000244
           61          62          63          64
    1   0.0000223   0.0000138   0.0000118   0.0000104
  
*** Unpaired Electrons
 Yamaguchi Nd:         3.34
 Head-Gordon Nu:       2.26
 Head-Gordon Nu_nl:    2.42
  
**************************************************
 RAS-CI total energy for state   7:   -571.837699561477
  Excitation energy (eV) =  4.881345068266
  State symmetry: B1    (C2v      )
  <S^2>      :  2.0000
  Dipole Moment:   -0.0000 X     0.0000 Y     2.7282 Z
  Trans. Moment:   -0.0000 X     0.0000 Y     0.0000 Z
  Strength   :  0.000000
  Natural transition orbitals ( 1 -> 7 ):
   e-/hole pair  1:  ampl =  0.840819 ( 70.7%)   [4 : 5]
   e-/hole pair  2:  ampl =  0.341569 ( 11.7%)   [3 : 6]
   Sum of square amplitudes: 0.86

 NATURAL OCCUPATION NUMBERS (higher than 1.0E-05)
            1           2           3           4           5           6
    1   2.0000000   2.0000000   2.0000000   2.0000000   2.0000000   2.0000000
            7           8           9          10          11          12
    1   2.0000000   2.0000000   2.0000000   2.0000000   2.0000000   2.0000000
           13          14          15          16          17          18
    1   2.0000000   2.0000000   2.0000000   2.0000000   2.0000000   2.0000000
           19          20          21          22          23          24
    1   2.0000000   2.0000000   2.0000000   2.0000000   2.0000000   2.0000000
           25          26          27          28          29          30
    1   2.0000000   2.0000000   2.0000000   2.0000000   2.0000000   2.0000000
           31          32          33          34          35          36
    1   2.0000000   2.0000000   2.0000000   2.0000000   2.0000000   2.0000000
           37          38          39          40          41          42
    1   2.0000000   2.0000000   2.0000000   2.0000000   1.9998366   1.9990147
           43          44          45          46          47          48
    1   1.9959657   1.9760811   1.9243929   1.7894427   1.2236391   0.8598851
           49          50          51          52          53          54
    1   0.1682316   0.0526374   0.0048125   0.0039579   0.0008549   0.0003980
           55          56          57          58          59          60
    1   0.0003605   0.0001425   0.0001210   0.0000876   0.0000494   0.0000214
           61          62          63
    1   0.0000172   0.0000131   0.0000108

 Head-Gordon Nu:    2.18
 Head-Gordon Nu_nl: 2.13

  Amplitudes : 
  
 | HOLE  | ALPHA | BETA  | PART  |    AMPLITUDE 
--------------------------------------------------
 |       | 1100  | 1001  |       |    -2.3973938710581E-01
 |       | 1001  | 1100  |       |     2.3973938710581E-01
 |  45   | 1110  | 1100  |       |    -6.0456593800562E-01
 |  45   | 1100  | 1110  |       |     6.0456593800563E-01
 |       | 0100  | 1100  |  50   |    -1.1864697665380E-01
 |       | 1100  | 0100  |  50   |     1.1864697665380E-01
--------------------------------------------------
*** Contributions RASCI wfn    Active:  13.97
                                 Hole:  79.31
                                 Part:   6.73

      Mulliken population analysis 
 ---------------------------------------------------
   Atom    Charge (a.u.)   Spin (a.u.)  
 ---------------------------------------------------
   1  C    0.030434       -0.000000 
   2  O   -0.514064       -0.000000 
   3  C    0.054429        0.000000 
   4  C    0.054429       -0.000000 
   5  C    0.114364        0.000000 
   6  C   -0.154582       -0.000000 
   7  C   -0.063772        0.000000 
   8  C   -0.211793       -0.000000 
   9  C   -0.071320       -0.000000 
  10  H    0.162698        0.000000 
  11  H    0.132953       -0.000000 
  12  H    0.142571        0.000000 
  13  H    0.136267       -0.000000 
  14  C    0.114364       -0.000000 
  15  C   -0.154582        0.000000 
  16  C   -0.211793        0.000000 
  17  C   -0.063772       -0.000000 
  18  C   -0.071320        0.000000 
  19  H    0.132953        0.000000 
  20  H    0.162698       -0.000000 
  21  H    0.142571       -0.000000 
  22  H    0.136267        0.000000 
 ---------------------------------------------------
   Sum:    0.000000       -0.000000 
 ---------------------------------------------------
 
  
 NATURAL OCCUPATION NUMBERS (higher than 1.0E-05)
            1           2           3           4           5           6
    1   2.0000000   2.0000000   2.0000000   2.0000000   2.0000000   2.0000000
            7           8           9          10          11          12
    1   2.0000000   2.0000000   2.0000000   2.0000000   2.0000000   2.0000000
           13          14          15          16          17          18
    1   2.0000000   2.0000000   2.0000000   2.0000000   2.0000000   2.0000000
           19          20          21          22          23          24
    1   2.0000000   2.0000000   2.0000000   2.0000000   2.0000000   2.0000000
           25          26          27          28          29          30
    1   2.0000000   2.0000000   2.0000000   2.0000000   2.0000000   2.0000000
           31          32          33          34          35          36
    1   2.0000000   2.0000000   2.0000000   2.0000000   2.0000000   2.0000000
           37          38          39          40          41          42
    1   2.0000000   2.0000000   2.0000000   2.0000000   1.9998366   1.9990147
           43          44          45          46          47          48
    1   1.9959657   1.9760811   1.9243929   1.7894427   1.2236391   0.8598851
           49          50          51          52          53          54
    1   0.1682316   0.0526374   0.0048125   0.0039579   0.0008549   0.0003980
           55          56          57          58          59          60
    1   0.0003605   0.0001425   0.0001210   0.0000876   0.0000494   0.0000214
           61          62          63
    1   0.0000172   0.0000131   0.0000108
  
*** Unpaired Electrons
 Yamaguchi Nd:         2.94
 Head-Gordon Nu:       2.18
 Head-Gordon Nu_nl:    2.13
  
**************************************************
 RAS-CI total energy for state   8:   -571.836840649682
  Excitation energy (eV) =  4.904717247346
  State symmetry: A1    (C2v      )
  <S^2>      :  0.0000
  Dipole Moment:    0.0000 X     0.0000 Y     2.1098 Z
  Trans. Moment:   -0.0000 X    -0.0000 Y     0.4505 Z
  Strength   :  0.024383
  Natural transition orbitals ( 1 -> 8 ):
   e-/hole pair  1:  ampl =  0.588832 ( 34.7%)   [4 : 5]
   e-/hole pair  2:  ampl =  0.375284 ( 14.1%)   [3 : 6]
   Sum of square amplitudes: 0.50

 NATURAL OCCUPATION NUMBERS (higher than 1.0E-05)
            1           2           3           4           5           6
    1   2.0000000   2.0000000   2.0000000   2.0000000   2.0000000   2.0000000
            7           8           9          10          11          12
    1   2.0000000   2.0000000   2.0000000   2.0000000   2.0000000   2.0000000
           13          14          15          16          17          18
    1   2.0000000   2.0000000   2.0000000   2.0000000   2.0000000   2.0000000
           19          20          21          22          23          24
    1   2.0000000   2.0000000   2.0000000   2.0000000   2.0000000   2.0000000
           25          26          27          28          29          30
    1   2.0000000   2.0000000   2.0000000   2.0000000   2.0000000   2.0000000
           31          32          33          34          35          36
    1   2.0000000   2.0000000   2.0000000   2.0000000   2.0000000   2.0000000
           37          38          39          40          41          42
    1   2.0000000   2.0000000   2.0000000   2.0000000   1.9991254   1.9975872
           43          44          45          46          47          48
    1   1.9974039   1.9936270   1.9848786   1.6145351   1.2272735   0.9714059
           49          50          51          52          53          54
    1   0.1493619   0.0474067   0.0106704   0.0037412   0.0012609   0.0007925
           55          56          57          58          59          60
    1   0.0003933   0.0001622   0.0001131   0.0000953   0.0000423   0.0000389
           61          62          63          64
    1   0.0000258   0.0000197   0.0000144   0.0000118

 Head-Gordon Nu:    2.37
 Head-Gordon Nu_nl: 2.37

  Amplitudes : 
  
 | HOLE  | ALPHA | BETA  | PART  |    AMPLITUDE 
--------------------------------------------------
 |       | 1100  | 1100  |       |    -1.4305309245902E-01
 |       | 1100  | 0110  |       |     4.0723859769368E-01
 |       | 1010  | 1010  |       |     6.2021122200404E-01
 |       | 0110  | 1100  |       |     4.0723859682086E-01
 |       | 1000  | 1100  |  50   |     2.4302925970165E-01
 |       | 1100  | 1000  |  50   |     2.4302926880215E-01
--------------------------------------------------
*** Contributions RASCI wfn    Active:  75.33
                                 Hole:   6.69
                                 Part:  17.99

      Mulliken population analysis 
 ---------------------------------------------------
   Atom    Charge (a.u.)   Spin (a.u.)  
 ---------------------------------------------------
   1  C    0.086531       -0.000000 
   2  O   -0.519991       -0.000000 
   3  C    0.174922        0.000000 
   4  C    0.174922        0.000000 
   5  C    0.158630       -0.000000 
   6  C   -0.238851       -0.000000 
   7  C   -0.078034        0.000000 
   8  C   -0.308384        0.000000 
   9  C   -0.065044       -0.000000 
  10  H    0.162341       -0.000000 
  11  H    0.132375        0.000000 
  12  H    0.142494        0.000000 
  13  H    0.136281       -0.000000 
  14  C    0.158630       -0.000000 
  15  C   -0.238851       -0.000000 
  16  C   -0.308384        0.000000 
  17  C   -0.078034        0.000000 
  18  C   -0.065044       -0.000000 
  19  H    0.132375        0.000000 
  20  H    0.162341       -0.000000 
  21  H    0.142494        0.000000 
  22  H    0.136281       -0.000000 
 ---------------------------------------------------
   Sum:    0.000000       -0.000000 
 ---------------------------------------------------
 
  
 NATURAL OCCUPATION NUMBERS (higher than 1.0E-05)
            1           2           3           4           5           6
    1   2.0000000   2.0000000   2.0000000   2.0000000   2.0000000   2.0000000
            7           8           9          10          11          12
    1   2.0000000   2.0000000   2.0000000   2.0000000   2.0000000   2.0000000
           13          14          15          16          17          18
    1   2.0000000   2.0000000   2.0000000   2.0000000   2.0000000   2.0000000
           19          20          21          22          23          24
    1   2.0000000   2.0000000   2.0000000   2.0000000   2.0000000   2.0000000
           25          26          27          28          29          30
    1   2.0000000   2.0000000   2.0000000   2.0000000   2.0000000   2.0000000
           31          32          33          34          35          36
    1   2.0000000   2.0000000   2.0000000   2.0000000   2.0000000   2.0000000
           37          38          39          40          41          42
    1   2.0000000   2.0000000   2.0000000   2.0000000   1.9991254   1.9975872
           43          44          45          46          47          48
    1   1.9974039   1.9936270   1.9848786   1.6145351   1.2272735   0.9714059
           49          50          51          52          53          54
    1   0.1493619   0.0474067   0.0106704   0.0037412   0.0012609   0.0007925
           55          56          57          58          59          60
    1   0.0003933   0.0001622   0.0001131   0.0000953   0.0000423   0.0000389
           61          62          63          64
    1   0.0000258   0.0000197   0.0000144   0.0000118
  
*** Unpaired Electrons
 Yamaguchi Nd:         3.03
 Head-Gordon Nu:       2.37
 Head-Gordon Nu_nl:    2.37
  
**************************************************
 RAS-CI total energy for state   9:   -571.831964246886
  Excitation energy (eV) =  5.037410918677
  State symmetry: A1    (C2v      )
  <S^2>      :  2.0000
  Dipole Moment:    0.0000 X     0.0000 Y     2.0996 Z
  Trans. Moment:   -0.0000 X     0.0000 Y    -0.0000 Z
  Strength   :  0.000000
  Natural transition orbitals ( 1 -> 9 ):
   e-/hole pair  1:  ampl =  0.789139 ( 62.3%)   [4 : 5]
   e-/hole pair  2:  ampl =  0.449526 ( 20.2%)   [3 : 6]
   Sum of square amplitudes: 0.86

 NATURAL OCCUPATION NUMBERS (higher than 1.0E-05)
            1           2           3           4           5           6
    1   2.0000000   2.0000000   2.0000000   2.0000000   2.0000000   2.0000000
            7           8           9          10          11          12
    1   2.0000000   2.0000000   2.0000000   2.0000000   2.0000000   2.0000000
           13          14          15          16          17          18
    1   2.0000000   2.0000000   2.0000000   2.0000000   2.0000000   2.0000000
           19          20          21          22          23          24
    1   2.0000000   2.0000000   2.0000000   2.0000000   2.0000000   2.0000000
           25          26          27          28          29          30
    1   2.0000000   2.0000000   2.0000000   2.0000000   2.0000000   2.0000000
           31          32          33          34          35          36
    1   2.0000000   2.0000000   2.0000000   2.0000000   2.0000000   2.0000000
           37          38          39          40          41          42
    1   2.0000000   2.0000000   2.0000000   2.0000000   1.9997976   1.9996576
           43          44          45          46          47          48
    1   1.9956609   1.9614434   1.9382365   1.6875599   1.3195788   0.7808237
           49          50          51          52          53          54
    1   0.2183506   0.0857529   0.0070430   0.0029389   0.0016143   0.0009206
           55          56          57          58          59          60
    1   0.0001735   0.0001638   0.0001438   0.0000541   0.0000274   0.0000173
           61
    1   0.0000106

 Head-Gordon Nu:    2.20
 Head-Gordon Nu_nl: 2.19

  Amplitudes : 
  
 | HOLE  | ALPHA | BETA  | PART  |    AMPLITUDE 
--------------------------------------------------
 |       | 1100  | 0110  |       |     1.7861505441448E-01
 |       | 0110  | 1100  |       |    -1.7861506892820E-01
 |  44   | 1110  | 1100  |       |     5.4711423988165E-01
 |  44   | 1100  | 1110  |       |    -5.4711422467827E-01
 |       | 1000  | 1100  |  50   |    -1.9567390443238E-01
 |       | 1100  | 1000  |  50   |     1.9567387473256E-01
 |       | 1000  | 1100  |  53   |    -2.3511793614236E-01
 |       | 1100  | 1000  |  53   |     2.3511788645760E-01
--------------------------------------------------
*** Contributions RASCI wfn    Active:  10.02
                                 Hole:  66.52
                                 Part:  23.45

      Mulliken population analysis 
 ---------------------------------------------------
   Atom    Charge (a.u.)   Spin (a.u.)  
 ---------------------------------------------------
   1  C    0.066239        0.000000 
   2  O   -0.499391        0.000000 
   3  C    0.057632       -0.000000 
   4  C    0.057632       -0.000000 
   5  C    0.168554       -0.000000 
   6  C   -0.148574       -0.000000 
   7  C   -0.062064       -0.000000 
   8  C   -0.269038        0.000000 
   9  C   -0.103954       -0.000000 
  10  H    0.162832        0.000000 
  11  H    0.132683        0.000000 
  12  H    0.142388       -0.000000 
  13  H    0.136117       -0.000000 
  14  C    0.168554       -0.000000 
  15  C   -0.148574       -0.000000 
  16  C   -0.269038        0.000000 
  17  C   -0.062064       -0.000000 
  18  C   -0.103954       -0.000000 
  19  H    0.132683        0.000000 
  20  H    0.162832        0.000000 
  21  H    0.142388       -0.000000 
  22  H    0.136117       -0.000000 
 ---------------------------------------------------
   Sum:    0.000000       -0.000000 
 ---------------------------------------------------
 
  
 NATURAL OCCUPATION NUMBERS (higher than 1.0E-05)
            1           2           3           4           5           6
    1   2.0000000   2.0000000   2.0000000   2.0000000   2.0000000   2.0000000
            7           8           9          10          11          12
    1   2.0000000   2.0000000   2.0000000   2.0000000   2.0000000   2.0000000
           13          14          15          16          17          18
    1   2.0000000   2.0000000   2.0000000   2.0000000   2.0000000   2.0000000
           19          20          21          22          23          24
    1   2.0000000   2.0000000   2.0000000   2.0000000   2.0000000   2.0000000
           25          26          27          28          29          30
    1   2.0000000   2.0000000   2.0000000   2.0000000   2.0000000   2.0000000
           31          32          33          34          35          36
    1   2.0000000   2.0000000   2.0000000   2.0000000   2.0000000   2.0000000
           37          38          39          40          41          42
    1   2.0000000   2.0000000   2.0000000   2.0000000   1.9997976   1.9996576
           43          44          45          46          47          48
    1   1.9956609   1.9614434   1.9382365   1.6875599   1.3195788   0.7808237
           49          50          51          52          53          54
    1   0.2183506   0.0857529   0.0070430   0.0029389   0.0016143   0.0009206
           55          56          57          58          59          60
    1   0.0001735   0.0001638   0.0001438   0.0000541   0.0000274   0.0000173
           61
    1   0.0000106
  
*** Unpaired Electrons
 Yamaguchi Nd:         3.16
 Head-Gordon Nu:       2.20
 Head-Gordon Nu_nl:    2.19
  
**************************************************
 RAS-CI total energy for state  10:   -571.821657700235
  Excitation energy (eV) =  5.317866322169
  State symmetry: A2    (C2v      )
  <S^2>      :  2.0000
  Dipole Moment:   -0.0000 X     0.0000 Y     0.0578 Z
  Trans. Moment:   -0.0000 X     0.0000 Y     0.0000 Z
  Strength   :  0.000000
  Natural transition orbitals ( 1 -> 10 ):
   e-/hole pair  1:  ampl =  0.945493 ( 89.4%)   [4 : 5]
   e-/hole pair  2:  ampl =  0.033134 (  0.1%)   [3 : 6]
   Sum of square amplitudes: 0.90

 NATURAL OCCUPATION NUMBERS (higher than 1.0E-05)
            1           2           3           4           5           6
    1   2.0000000   2.0000000   2.0000000   2.0000000   2.0000000   2.0000000
            7           8           9          10          11          12
    1   2.0000000   2.0000000   2.0000000   2.0000000   2.0000000   2.0000000
           13          14          15          16          17          18
    1   2.0000000   2.0000000   2.0000000   2.0000000   2.0000000   2.0000000
           19          20          21          22          23          24
    1   2.0000000   2.0000000   2.0000000   2.0000000   2.0000000   2.0000000
           25          26          27          28          29          30
    1   2.0000000   2.0000000   2.0000000   2.0000000   2.0000000   2.0000000
           31          32          33          34          35          36
    1   1.9999999   1.9999999   1.9999998   1.9999995   1.9999992   1.9999976
           37          38          39          40          41          42
    1   1.9999968   1.9999920   1.9999913   1.9999768   1.9997582   1.9992842
           43          44          45          46          47          48
    1   1.9974672   1.9933720   1.9917530   1.9893459   1.0105523   1.0058821
           49          50          51          52          53
    1   0.0122460   0.0002302   0.0000828   0.0000398   0.0000249

 Head-Gordon Nu:    2.03
 Head-Gordon Nu_nl: 2.00

  Amplitudes : 
  
 | HOLE  | ALPHA | BETA  | PART  |    AMPLITUDE 
--------------------------------------------------
 |  43   | 1110  | 1100  |       |     6.4548401783177E-01
 |  43   | 1100  | 1110  |       |    -6.4548401783173E-01
 |  43   | 1101  | 1100  |       |    -1.0960624896432E-01
 |  43   | 1100  | 1101  |       |     1.0960624896432E-01
 |  43   | 1110  | 0110  |       |     2.3168711330485E-01
 |  43   | 0110  | 1110  |       |    -2.3168711330483E-01
--------------------------------------------------
*** Contributions RASCI wfn    Active:   0.00
                                 Hole:  99.96
                                 Part:   0.04

      Mulliken population analysis 
 ---------------------------------------------------
   Atom    Charge (a.u.)   Spin (a.u.)  
 ---------------------------------------------------
   1  C    0.140543        0.000000 
   2  O   -0.122919       -0.000000 
   3  C    0.027482       -0.000000 
   4  C    0.027482       -0.000000 
   5  C    0.113659        0.000000 
   6  C   -0.236473        0.000000 
   7  C   -0.135320        0.000000 
   8  C   -0.283747       -0.000000 
   9  C   -0.074122        0.000000 
  10  H    0.164827       -0.000000 
  11  H    0.134941       -0.000000 
  12  H    0.143360       -0.000000 
  13  H    0.136582       -0.000000 
  14  C    0.113659        0.000000 
  15  C   -0.236473        0.000000 
  16  C   -0.283747       -0.000000 
  17  C   -0.135320        0.000000 
  18  C   -0.074122        0.000000 
  19  H    0.134941       -0.000000 
  20  H    0.164827       -0.000000 
  21  H    0.143360       -0.000000 
  22  H    0.136582        0.000000 
 ---------------------------------------------------
   Sum:    0.000000        0.000000 
 ---------------------------------------------------
 
  
 NATURAL OCCUPATION NUMBERS (higher than 1.0E-05)
            1           2           3           4           5           6
    1   2.0000000   2.0000000   2.0000000   2.0000000   2.0000000   2.0000000
            7           8           9          10          11          12
    1   2.0000000   2.0000000   2.0000000   2.0000000   2.0000000   2.0000000
           13          14          15          16          17          18
    1   2.0000000   2.0000000   2.0000000   2.0000000   2.0000000   2.0000000
           19          20          21          22          23          24
    1   2.0000000   2.0000000   2.0000000   2.0000000   2.0000000   2.0000000
           25          26          27          28          29          30
    1   2.0000000   2.0000000   2.0000000   2.0000000   2.0000000   2.0000000
           31          32          33          34          35          36
    1   1.9999999   1.9999999   1.9999998   1.9999995   1.9999992   1.9999976
           37          38          39          40          41          42
    1   1.9999968   1.9999920   1.9999913   1.9999768   1.9997582   1.9992842
           43          44          45          46          47          48
    1   1.9974672   1.9933720   1.9917530   1.9893459   1.0105523   1.0058821
           49          50          51          52          53
    1   0.0122460   0.0002302   0.0000828   0.0000398   0.0000249
  
*** Unpaired Electrons
 Yamaguchi Nd:         2.08
 Head-Gordon Nu:       2.03
 Head-Gordon Nu_nl:    2.00
  
**************************************************
 RAS-CI total energy for state  11:   -571.813067376735
  Excitation energy (eV) =  5.551620917658
  State symmetry: A2    (C2v      )
  <S^2>      :  0.0000
  Dipole Moment:   -0.0000 X     0.0000 Y     0.1440 Z
  Trans. Moment:   -0.0000 X     0.0000 Y    -0.0000 Z
  Strength   :  0.000000
  Natural transition orbitals ( 1 -> 11 ):
   e-/hole pair  1:  ampl =  0.936442 ( 87.7%)   [4 : 5]
   e-/hole pair  2:  ampl =  0.030722 (  0.1%)   [3 : 6]
   Sum of square amplitudes: 0.88

 NATURAL OCCUPATION NUMBERS (higher than 1.0E-05)
            1           2           3           4           5           6
    1   2.0000000   2.0000000   2.0000000   2.0000000   2.0000000   2.0000000
            7           8           9          10          11          12
    1   2.0000000   2.0000000   2.0000000   2.0000000   2.0000000   2.0000000
           13          14          15          16          17          18
    1   2.0000000   2.0000000   2.0000000   2.0000000   2.0000000   2.0000000
           19          20          21          22          23          24
    1   2.0000000   2.0000000   2.0000000   2.0000000   2.0000000   2.0000000
           25          26          27          28          29          30
    1   2.0000000   2.0000000   2.0000000   2.0000000   2.0000000   2.0000000
           31          32          33          34          35          36
    1   1.9999999   1.9999999   1.9999998   1.9999993   1.9999988   1.9999982
           37          38          39          40          41          42
    1   1.9999976   1.9999949   1.9999924   1.9999760   1.9996095   1.9994505
           43          44          45          46          47          48
    1   1.9961659   1.9923638   1.9908614   1.9876712   1.0132700   1.0082331
           49          50          51          52          53
    1   0.0116017   0.0005996   0.0001753   0.0000174   0.0000130

 Head-Gordon Nu:    2.02
 Head-Gordon Nu_nl: 2.00

  Amplitudes : 
  
 | HOLE  | ALPHA | BETA  | PART  |    AMPLITUDE 
--------------------------------------------------
 |  43   | 1110  | 1100  |       |     6.3757770464777E-01
 |  43   | 1100  | 1110  |       |     6.3757770464781E-01
 |  43   | 1101  | 1100  |       |    -1.0132717300044E-01
 |  43   | 1100  | 1101  |       |    -1.0132717300045E-01
 |  43   | 1110  | 0110  |       |     2.5781720599297E-01
 |  43   | 0110  | 1110  |       |     2.5781720599299E-01
--------------------------------------------------
*** Contributions RASCI wfn    Active:   0.00
                                 Hole:  99.92
                                 Part:   0.08

      Mulliken population analysis 
 ---------------------------------------------------
[...]
  71    H 8   s     0.11437   0.05528   0.00111   0.00003   0.02656   0.00000
  72    H 8   p     0.00372   0.00136   0.00006   0.00247   0.00107   0.00050
                        37        38        39        40        41        42
                       16B1      21A1      22A1      17B1       1A2       2B2  
   1    C 1   s     0.00000   0.00572   0.00254   0.00000   0.00000   0.00000
   2    C 1   p     0.11109   0.04465   0.02862   0.00658   0.00000   0.36825
   3    C 1   d     0.00500   0.00146   0.01944   0.02595   0.00573   0.05227
   4    C 1   f     0.00947   0.00007   0.00063   0.00064   0.00073   0.01126
   5    O     s     0.00000   0.00793   0.00887   0.00000   0.00000   0.00000
   6    O     p     0.19874   0.05937   0.08238   0.06967   0.00000   0.77925
   7    O     d     0.00163   0.00039   0.00055   0.00018   0.00000   0.00708
   8    O     f     0.00014   0.00007   0.00010   0.00003   0.00000   0.00051
   9    C 2   s     0.00255   0.00021   0.00058   0.00269   0.00000   0.00000
  10    C 2   p     0.08257   0.02324   0.11900   0.11541   0.06957   0.00473
  11    C 2   d     0.01621   0.02663   0.01648   0.01370   0.00921   0.02733
  12    C 2   f     0.00153   0.00107   0.00064   0.00034   0.00094   0.00235
  13    C 3   s     0.00255   0.00021   0.00058   0.00269   0.00000   0.00000
  14    C 3   p     0.08257   0.02324   0.11900   0.11541   0.06957   0.00473
  15    C 3   d     0.01621   0.02663   0.01648   0.01370   0.00921   0.02733
  16    C 3   f     0.00153   0.00107   0.00064   0.00034   0.00094   0.00235
  17    C 4   s     0.00509   0.00010   0.00034   0.00018   0.00000   0.00000
  18    C 4   p     0.00387   0.13931   0.17477   0.11155   0.03624   0.07651
  19    C 4   d     0.01187   0.00988   0.01972   0.03188   0.01554   0.00511
  20    C 4   f     0.00002   0.00090   0.00131   0.00201   0.00098   0.00127
  21    C 5   s     0.00026   0.00071   0.00098   0.00148   0.00000   0.00000
  22    C 5   p     0.14025   0.08804   0.09466   0.10052   0.17540   0.00475
  23    C 5   d     0.01187   0.00220   0.04528   0.03491   0.00819   0.00310
  24    C 5   f     0.00175   0.00016   0.00008   0.00013   0.00156   0.00020
  25    C 6   s     0.00129   0.00082   0.00014   0.00032   0.00000   0.00000
  26    C 6   p     0.17896   0.09428   0.06601   0.07972   0.24524   0.03680
  27    C 6   d     0.04382   0.02118   0.02239   0.01722   0.00706   0.00321
  28    C 6   f     0.00020   0.00093   0.00034   0.00143   0.00190   0.00052
  29    C 7   s     0.00183   0.00042   0.00074   0.00132   0.00000   0.00000
  30    C 7   p     0.05530   0.10856   0.06650   0.09393   0.15318   0.11692
  31    C 7   d     0.00228   0.01710   0.04250   0.03529   0.00922   0.00280
  32    C 7   f     0.00015   0.00249   0.00069   0.00039   0.00149   0.00089
  33    C 8   s     0.00106   0.00149   0.00009   0.00070   0.00000   0.00000
  34    C 8   p     0.07539   0.16574   0.09002   0.08321   0.24352   0.09700
  35    C 8   d     0.02936   0.05497   0.00269   0.02398   0.00667   0.00348
  36    C 8   f     0.00125   0.00013   0.00029   0.00114   0.00183   0.00078
  37    H 1   s     0.00005   0.00615   0.07735   0.07586   0.00000   0.00000
  38    H 1   p     0.00155   0.00115   0.00135   0.00124   0.00187   0.00003
  39    H 2   s     0.00187   0.01032   0.05163   0.06159   0.00000   0.00000
  40    H 2   p     0.00064   0.00142   0.00079   0.00090   0.00168   0.00138
  41    H 3   s     0.11302   0.02490   0.02871   0.01828   0.00000   0.00000
  42    H 3   p     0.00233   0.00142   0.00088   0.00087   0.00272   0.00036
  43    H 4   s     0.04760   0.13216   0.00017   0.03547   0.00000   0.00000
  44    H 4   p     0.00118   0.00212   0.00129   0.00079   0.00276   0.00115
  45    C 9   s     0.00509   0.00010   0.00034   0.00018   0.00000   0.00000
  46    C 9   p     0.00387   0.13931   0.17477   0.11155   0.03624   0.07651
  47    C 9   d     0.01187   0.00988   0.01972   0.03188   0.01554   0.00511
  48    C 9   f     0.00002   0.00090   0.00131   0.00201   0.00098   0.00127
  49    C 10  s     0.00026   0.00071   0.00098   0.00148   0.00000   0.00000
  50    C 10  p     0.14025   0.08804   0.09466   0.10052   0.17540   0.00475
  51    C 10  d     0.01187   0.00220   0.04528   0.03491   0.00819   0.00310
  52    C 10  f     0.00175   0.00016   0.00008   0.00013   0.00156   0.00020
  53    C 11  s     0.00183   0.00042   0.00074   0.00132   0.00000   0.00000
  54    C 11  p     0.05530   0.10856   0.06650   0.09393   0.15318   0.11692
  55    C 11  d     0.00228   0.01710   0.04250   0.03529   0.00922   0.00280
  56    C 11  f     0.00015   0.00249   0.00069   0.00039   0.00149   0.00089
  57    C 12  s     0.00129   0.00082   0.00014   0.00032   0.00000   0.00000
  58    C 12  p     0.17896   0.09428   0.06601   0.07972   0.24524   0.03680
  59    C 12  d     0.04382   0.02118   0.02239   0.01722   0.00706   0.00321
  60    C 12  f     0.00020   0.00093   0.00034   0.00143   0.00190   0.00052
  61    C 13  s     0.00106   0.00149   0.00009   0.00070   0.00000   0.00000
  62    C 13  p     0.07539   0.16574   0.09002   0.08321   0.24352   0.09700
  63    C 13  d     0.02936   0.05497   0.00269   0.02398   0.00667   0.00348
  64    C 13  f     0.00125   0.00013   0.00029   0.00114   0.00183   0.00078
  65    H 5   s     0.00187   0.01032   0.05163   0.06159   0.00000   0.00000
  66    H 5   p     0.00064   0.00142   0.00079   0.00090   0.00168   0.00138
  67    H 6   s     0.00005   0.00615   0.07735   0.07586   0.00000   0.00000
  68    H 6   p     0.00155   0.00115   0.00135   0.00124   0.00187   0.00003
  69    H 7   s     0.11302   0.02490   0.02871   0.01828   0.00000   0.00000
  70    H 7   p     0.00233   0.00142   0.00088   0.00087   0.00272   0.00036
  71    H 8   s     0.04760   0.13216   0.00017   0.03547   0.00000   0.00000
  72    H 8   p     0.00118   0.00212   0.00129   0.00079   0.00276   0.00115
                        43        44        45        46        47        48
                       18B1       3B2       2A2       4B2       3A2       5B2  
   1    C 1   s     0.00000   0.00000   0.00000   0.00000   0.00000   0.00000
   2    C 1   p     0.08362   0.00050   0.00000   0.00710   0.00000   0.23264
   3    C 1   d     0.22879   0.00009   0.01353   0.06383   0.05431   0.11372
   4    C 1   f     0.02318   0.00013   0.00135   0.00409   0.00726   0.00940
   5    O     s     0.00000   0.00000   0.00000   0.00000   0.00000   0.00000
   6    O     p     1.12653   0.00039   0.00000   0.24218   0.00000   0.30474
   7    O     d     0.00585   0.00000   0.00001   0.00022   0.00003   0.00969
   8    O     f     0.00056   0.00000   0.00000   0.00001   0.00001   0.00083
   9    C 2   s     0.01028   0.00000   0.00000   0.00000   0.00000   0.00000
  10    C 2   p     0.14989   0.00086   0.09714   0.13273   0.33011   0.19051
  11    C 2   d     0.00587   0.04484   0.02109   0.00506   0.00728   0.04573
  12    C 2   f     0.00002   0.00340   0.00190   0.00131   0.00156   0.00450
  13    C 3   s     0.01028   0.00000   0.00000   0.00000   0.00000   0.00000
  14    C 3   p     0.14989   0.00086   0.09714   0.13273   0.33011   0.19051
  15    C 3   d     0.00587   0.04484   0.02109   0.00506   0.00728   0.04573
  16    C 3   f     0.00002   0.00340   0.00190   0.00131   0.00156   0.00450
  17    C 4   s     0.00043   0.00000   0.00000   0.00000   0.00000   0.00000
  18    C 4   p     0.02143   0.25077   0.01249   0.05284   0.16645   0.12547
  19    C 4   d     0.01268   0.01521   0.02981   0.03747   0.04738   0.04243
  20    C 4   f     0.00043   0.00167   0.00300   0.00166   0.00543   0.00455
  21    C 5   s     0.00011   0.00000   0.00000   0.00000   0.00000   0.00000
  22    C 5   p     0.01019   0.23843   0.26699   0.09245   0.00026   0.01818
  23    C 5   d     0.01217   0.01341   0.00123   0.00603   0.06246   0.03723
  24    C 5   f     0.00182   0.00179   0.00072   0.00097   0.00575   0.00284
  25    C 6   s     0.00049   0.00000   0.00000   0.00000   0.00000   0.00000
  26    C 6   p     0.00892   0.29015   0.05440   0.00181   0.19353   0.07435
  27    C 6   d     0.00231   0.00717   0.03740   0.03150   0.00238   0.01126
  28    C 6   f     0.00008   0.00146   0.00334   0.00279   0.00026   0.00069
  29    C 7   s     0.00058   0.00000   0.00000   0.00000   0.00000   0.00000
  30    C 7   p     0.01079   0.03854   0.26923   0.16360   0.04653   0.01062
  31    C 7   d     0.00390   0.02083   0.00495   0.02835   0.02097   0.02990
  32    C 7   f     0.00014   0.00202   0.00082   0.00249   0.00231   0.00184
  33    C 8   s     0.00008   0.00000   0.00000   0.00000   0.00000   0.00000
  34    C 8   p     0.00029   0.03574   0.14475   0.26202   0.04606   0.04646
  35    C 8   d     0.00138   0.02211   0.02822   0.00803   0.02264   0.01245
  36    C 8   f     0.00003   0.00223   0.00269   0.00107   0.00197   0.00091
  37    H 1   s     0.00345   0.00000   0.00000   0.00000   0.00000   0.00000
  38    H 1   p     0.00031   0.00352   0.00428   0.00152   0.00002   0.00064
  39    H 2   s     0.00389   0.00000   0.00000   0.00000   0.00000   0.00000
  40    H 2   p     0.00015   0.00061   0.00458   0.00296   0.00074   0.00042
  41    H 3   s     0.00261   0.00000   0.00000   0.00000   0.00000   0.00000
  42    H 3   p     0.00012   0.00427   0.00099   0.00001   0.00418   0.00201
  43    H 4   s     0.00090   0.00000   0.00000   0.00000   0.00000   0.00000
  44    H 4   p     0.00000   0.00043   0.00255   0.00461   0.00091   0.00148
  45    C 9   s     0.00043   0.00000   0.00000   0.00000   0.00000   0.00000
  46    C 9   p     0.02143   0.25077   0.01249   0.05284   0.16645   0.12547
  47    C 9   d     0.01268   0.01521   0.02981   0.03747   0.04738   0.04243
  48    C 9   f     0.00043   0.00167   0.00300   0.00166   0.00543   0.00455
  49    C 10  s     0.00011   0.00000   0.00000   0.00000   0.00000   0.00000
  50    C 10  p     0.01019   0.23843   0.26699   0.09245   0.00026   0.01818
  51    C 10  d     0.01217   0.01341   0.00123   0.00603   0.06246   0.03723
  52    C 10  f     0.00182   0.00179   0.00072   0.00097   0.00575   0.00284
  53    C 11  s     0.00058   0.00000   0.00000   0.00000   0.00000   0.00000
  54    C 11  p     0.01079   0.03854   0.26923   0.16360   0.04653   0.01062
  55    C 11  d     0.00390   0.02083   0.00495   0.02835   0.02097   0.02990
  56    C 11  f     0.00014   0.00202   0.00082   0.00249   0.00231   0.00184
  57    C 12  s     0.00049   0.00000   0.00000   0.00000   0.00000   0.00000
  58    C 12  p     0.00892   0.29015   0.05440   0.00181   0.19353   0.07435
  59    C 12  d     0.00231   0.00717   0.03740   0.03150   0.00238   0.01126
  60    C 12  f     0.00008   0.00146   0.00334   0.00279   0.00026   0.00069
  61    C 13  s     0.00008   0.00000   0.00000   0.00000   0.00000   0.00000
  62    C 13  p     0.00029   0.03574   0.14475   0.26202   0.04606   0.04646
  63    C 13  d     0.00138   0.02211   0.02822   0.00803   0.02264   0.01245
  64    C 13  f     0.00003   0.00223   0.00269   0.00107   0.00197   0.00091
  65    H 5   s     0.00389   0.00000   0.00000   0.00000   0.00000   0.00000
  66    H 5   p     0.00015   0.00061   0.00458   0.00296   0.00074   0.00042
  67    H 6   s     0.00345   0.00000   0.00000   0.00000   0.00000   0.00000
  68    H 6   p     0.00031   0.00352   0.00428   0.00152   0.00002   0.00064
  69    H 7   s     0.00261   0.00000   0.00000   0.00000   0.00000   0.00000
  70    H 7   p     0.00012   0.00427   0.00099   0.00001   0.00418   0.00201
  71    H 8   s     0.00090   0.00000   0.00000   0.00000   0.00000   0.00000
  72    H 8   p     0.00000   0.00043   0.00255   0.00461   0.00091   0.00148
 
 -----------------------------------------------------------------
                    Cartesian Multipole Moments
 -----------------------------------------------------------------
    Charge (ESU x 10^10)
                 0.0000
    Dipole Moment (Debye)
         X      -0.0000      Y      -0.0000      Z      -5.5022
       Tot       5.5022
    Quadrupole Moments (Debye-Ang)
        XX     -58.8230     XY      -0.0000     YY     -86.3019
        XZ      -0.0000     YZ      -0.0000     ZZ     -87.8825
    Octopole Moments (Debye-Ang^2)
       XXX      -0.0000    XXY       0.0000    XYY      -0.0000
       YYY      -0.0000    XXZ       0.0872    XYZ       0.0000
       YYZ       7.1837    XZZ       0.0000    YZZ      -0.0000
       ZZZ     -59.8950
    Hexadecapole Moments (Debye-Ang^3)
      XXXX   -1996.0826   XXXY      -0.0000   XXYY    -471.8630
      XYYY      -0.0000   YYYY    -100.4056   XXXZ       0.0000
      XXYZ      -0.0000   XYYZ       0.0000   YYYZ      -0.0000
      XXZZ    -507.0481   XYZZ      -0.0000   YYZZ    -201.2668
      XZZZ      -0.0000   YZZZ      -0.0000   ZZZZ   -1116.8750
 -----------------------------------------------------------------
 Mayer SCF Bond Order, atomic valence on the diagonal:

            1           2           3           4           5           6
    1   1.2578620   0.5731216  -0.1842222  -0.0789331   0.0560598   0.0112118
    2   0.5731216   1.9549857  -0.1508639  -0.1508639   0.0092258   0.0569838
    3  -0.1842222  -0.1508639   3.3674822  -0.0840716  -0.0425123   0.0214808
    4  -0.0789331  -0.1508639  -0.0840716   3.3674822   1.1430623   1.2963282
    5   0.0560598   0.0092258  -0.0425123   1.1430623   3.5904600  -0.0595007
    6   0.0112118   0.0569838   0.0214808   1.2963282  -0.0595007   3.9562183
    7  -0.0134861   0.0098473   0.0087921   0.0418027  -0.0172973   1.5954863
    8  -0.0164161   0.0037546   0.0136726  -0.0064907   1.1490834   0.0578263
    9  -0.0014572   0.0048619   0.0181934   0.0052203  -0.0511972   0.0386308
   10   0.0019759   0.0067283   0.0000492   0.0018492   0.0059326   0.9691315
   11  -0.0002318   0.0005756  -0.0000414   0.0070727  -0.0217604   0.0008223
   12  -0.0070913  -0.0000723   0.0001863   0.0052381   0.0006754  -0.0092829
   13   0.0003200   0.0001303   0.0001226   0.0007108   0.0061226   0.0048912
   14  -0.0026179   0.0092258   1.1430623  -0.0425123   1.4009461   0.0112248
   15   0.0183320   0.0569838   1.2963282   0.0214808   0.0112248   0.0016806
   16  -0.0088466   0.0037546  -0.0064907   0.0136726  -0.0450678  -0.0003453
   17  -0.0112860   0.0098473   0.0418027   0.0087921   0.0249352   0.0021677
   18  -0.0006398   0.0048619   0.0052203   0.0181934   0.0310884   0.0020229
   19  -0.0004566   0.0005756   0.0070727  -0.0000414   0.0045777   0.0000815
   20  -0.0067101   0.0067283   0.0018492   0.0000492   0.0006014  -0.0000614
   21   0.0014171  -0.0000723   0.0052381   0.0001863   0.0007583   0.0000767
   22   0.0003209   0.0001303   0.0007108   0.0001226   0.0013927   0.0001929
            7           8           9          10          11          12
    1  -0.0134861  -0.0164161  -0.0014572   0.0019759  -0.0002318  -0.0070913
    2   0.0098473   0.0037546   0.0048619   0.0067283   0.0005756  -0.0000723
    3   0.0087921   0.0136726   0.0181934   0.0000492  -0.0000414   0.0001863
    4   0.0418027  -0.0064907   0.0052203   0.0018492   0.0070727   0.0052381
    5  -0.0172973   1.1490834  -0.0511972   0.0059326  -0.0217604   0.0006754
    6   1.5954863   0.0578263   0.0386308   0.9691315   0.0008223  -0.0092829
    7   3.8259034   0.0598247   1.1165313  -0.0233152   0.0065385   0.9804596
    8   0.0598247   3.9808398   1.7562539   0.0004677   0.9725527   0.0044415
    9   1.1165313   1.7562539   3.9177860   0.0069900   0.0028491  -0.0162440
   10  -0.0233152   0.0004677   0.0069900   0.9718318   0.0000906   0.0000464
   11   0.0065385   0.9725527   0.0028491   0.0000906   0.9765596   0.0005017
   12   0.9804596   0.0044415  -0.0162440   0.0000464   0.0005017   0.9672851
   13  -0.0158989  -0.0059209   0.9791397   0.0004372  -0.0002268  -0.0003611
   14   0.0249352  -0.0450678   0.0310884   0.0006014   0.0045777   0.0007583
   15   0.0021677  -0.0003453   0.0020229  -0.0000614   0.0000815   0.0000767
   16   0.0015364   0.0028857   0.0029544   0.0001222   0.0021166  -0.0000911
   17   0.0054941   0.0015364   0.0079897   0.0000286  -0.0001051   0.0000225
   18   0.0079897   0.0029544   0.0069364   0.0000327   0.0003266   0.0000728
   19  -0.0001051   0.0021166   0.0003266   0.0000042   0.0004071   0.0000225
   20   0.0000286   0.0001222   0.0000327   0.0000055   0.0000042   0.0000001
   21   0.0000225  -0.0000911   0.0000728   0.0000001   0.0000225   0.0000024
   22   0.0000291   0.0000184   0.0000617   0.0000060   0.0000102   0.0000011
           13          14          15          16          17          18
    1   0.0003200  -0.0026179   0.0183320  -0.0088466  -0.0112860  -0.0006398
    2   0.0001303   0.0092258   0.0569838   0.0037546   0.0098473   0.0048619
    3   0.0001226   1.1430623   1.2963282  -0.0064907   0.0418027   0.0052203
    4   0.0007108  -0.0425123   0.0214808   0.0136726   0.0087921   0.0181934
    5   0.0061226   1.4009461   0.0112248  -0.0450678   0.0249352   0.0310884
    6   0.0048912   0.0112248   0.0016806  -0.0003453   0.0021677   0.0020229
    7  -0.0158989   0.0249352   0.0021677   0.0015364   0.0054941   0.0079897
    8  -0.0059209  -0.0450678  -0.0003453   0.0028857   0.0015364   0.0029544
    9   0.9791397   0.0310884   0.0020229   0.0029544   0.0079897   0.0069364
   10   0.0004372   0.0006014  -0.0000614   0.0001222   0.0000286   0.0000327
   11  -0.0002268   0.0045777   0.0000815   0.0021166  -0.0001051   0.0003266
   12  -0.0003611   0.0007583   0.0000767  -0.0000911   0.0000225   0.0000728
   13   0.9709516   0.0013927   0.0001929   0.0000184   0.0000291   0.0000617
   14   0.0013927   3.5904600  -0.0595007   1.1490834  -0.0172973  -0.0511972
   15   0.0001929  -0.0595007   3.9562183   0.0578263   1.5954863   0.0386308
   16   0.0000184   1.1490834   0.0578263   3.9808398   0.0598248   1.7562539
   17   0.0000291  -0.0172973   1.5954863   0.0598248   3.8259034   1.1165313
   18   0.0000617  -0.0511972   0.0386308   1.7562539   1.1165313   3.9177860
   19   0.0000102  -0.0217604   0.0008223   0.9725527   0.0065385   0.0028491
   20   0.0000060   0.0059326   0.9691315   0.0004677  -0.0233152   0.0069900
   21   0.0000011   0.0006754  -0.0092829   0.0044415   0.9804596  -0.0162440
   22   0.0000051   0.0061226   0.0048912  -0.0059209  -0.0158989   0.9791397
           19          20          21          22
    1  -0.0004566  -0.0067101   0.0014171   0.0003209
    2   0.0005756   0.0067283  -0.0000723   0.0001303
    3   0.0070727   0.0018492   0.0052381   0.0007108
    4  -0.0000414   0.0000492   0.0001863   0.0001226
    5   0.0045777   0.0006014   0.0007583   0.0013927
    6   0.0000815  -0.0000614   0.0000767   0.0001929
    7  -0.0001051   0.0000286   0.0000225   0.0000291
    8   0.0021166   0.0001222  -0.0000911   0.0000184
    9   0.0003266   0.0000327   0.0000728   0.0000617
   10   0.0000042   0.0000055   0.0000001   0.0000060
   11   0.0004071   0.0000042   0.0000225   0.0000102
   12   0.0000225   0.0000001   0.0000024   0.0000011
   13   0.0000102   0.0000060   0.0000011   0.0000051
   14  -0.0217604   0.0059326   0.0006754   0.0061226
   15   0.0008223   0.9691315  -0.0092829   0.0048912
   16   0.9725527   0.0004677   0.0044415  -0.0059209
   17   0.0065385  -0.0233152   0.9804596  -0.0158989
   18   0.0028491   0.0069900  -0.0162440   0.9791397
   19   0.9765596   0.0000906   0.0005017  -0.0002268
   20   0.0000906   0.9718318   0.0000464   0.0004372
   21   0.0005017   0.0000464   0.9672851  -0.0003611
   22  -0.0002268   0.0004372  -0.0003611   0.9709516


 Total job time:  11954.60s(wall), 9914.15s(cpu) 
 Tue Nov 14 22:44:20 2023

        *************************************************************
        *                                                           *
        *  Thank you very much for using Q-Chem.  Have a nice day.  *
        *                                                           *
        *************************************************************


