                  Welcome to Q-Chem
     A Quantum Leap Into The Future Of Chemistry


 Q-Chem 6.0 (devel), Q-Chem, Inc., Pleasanton, CA (2022)

 E. Epifanovsky,  A. T. B. Gilbert,  Xintian Feng,  Joonho Lee,  Yuezhi Mao,  
 N. Mardirossian,  P. Pokhilko,  A. White,  M. Wormit,  M. P. Coons,  
 A. L. Dempwolff,  Zhengting Gan,  D. Hait,  P. R. Horn,  L. D. Jacobson,  
 I. Kaliman,  J. Kussmann,  A. W. Lange,  Ka Un Lao,  D. S. Levine,  Jie Liu,  
 S. C. McKenzie,  A. F. Morrison,  K. Nanda,  F. Plasser,  D. R. Rehn,  
 M. L. Vidal,  Zhi-Qiang You,  Ying Zhu,  B. Alam,  B. Albrecht,  
 A. Aldossary,  E. Alguire,  J. H. Andersen,  V. Athavale,  D. Barton,  
 K. Begam,  A. Behn,  N. Bellonzi,  Y. A. Bernard,  E. J. Berquist,  
 H. Burton,  A. Carreras,  K. Carter-Fenk,  Romit Chakraborty,  
 Chandrima Chakravarty,  Junhan Chen,  A. D. Chien,  K. D. Closser,  
 V. Cofer-Shabica,  L. Cunha,  S. Dasgupta,  Jia Deng,  M. de Wergifosse,  
 M. Diedenhofen,  Hainam Do,  S. Ehlert,  Po-Tung Fang,  S. Fatehi,  
 Qingguo Feng,  T. Friedhoff,  B. Ganoe,  J. Gayvert,  Qinghui Ge,  
 G. Gidofalvi,  M. Goldey,  J. Gomes,  C. Gonzalez-Espinoza,  S. Gulania,  
 A. Gunina,  J. A. Gyamfi,  M. W. D. Hanson-Heine,  P. H. P. Harbach,  
 A. W. Hauser,  M. F. Herbst,  M. Hernandez Vera,  M. Hodecker,  
 Z. C. Holden,  S. Houck,  Xunkun Huang,  Kerwin Hui,  B. C. Huynh,  
 K. Ikeda,  M. Ivanov,  Hyunjun Ji,  Zuxin Jin,  Hanjie Jiang,  B. Kaduk,  
 S. Kaehler,  R. Kang,  K. Khistyaev,  Jaehoon Kim,  Yongbin Kim,  
 P. Klunzinger,  Z. Koczor-Benda,  Joong Hoon Koh,  D. Kosenkov,  
 Saikiran Kotaru,  L. Koulias,  T. Kowalczyk,  C. M. Krauter,  K. Kue,  
 A. Kunitsa,  T. Kus,  A. Landau,  K. V. Lawler,  D. Lefrancois,  S. Lehtola,  
 Rain Li,  Shaozhi Li,  Yi-Pei Li,  Jiashu Liang,  M. Liebenthal,  
 Hung-Hsuan Lin,  You-Sheng Lin,  Fenglai Liu,  Kuan-Yu Liu,  
 M. Loipersberger,  A. Luenser,  C. Malbon,  A. Manjanath,  P. Manohar,  
 E. Mansoor,  S. F. Manzer,  Shan-Ping Mao,  A. V. Marenich,  T. Markovich,  
 S. Mason,  F. Matz,  S. A. Maurer,  P. F. McLaughlin,  M. F. S. J. Menger,  
 J.-M. Mewes,  S. A. Mewes,  P. Morgante,  Mohammad Mostafanejad,  
 J. W. Mullinax,  K. J. Oosterbaan,  G. Paran,  V. Parravicini,  
 Alexander C. Paul,  Suranjan K. Paul,  F. Pavosevic,  Zheng Pei,  S. Prager,  
 E. I. Proynov,  E. Ramos,  B. Rana,  A. E. Rask,  A. Rettig,  R. M. Richard,  
 F. Rob,  E. Rossomme,  T. Scheele,  M. Scheurer,  M. Schneider,  
 P. E. Schneider,  N. Sergueev,  S. M. Sharada,  Hengyuan Shen,  
 W. Skomorowski,  D. W. Small,  C. J. Stein,  Yingli Su,  Yu-Chuan Su,  
 E. J. Sundstrom,  Zhen Tao,  J. Thirman,  Hung-Yi Tsai,  T. Tsuchimochi,  
 N. M. Tubman,  C. Utku,  S. P. Veccham,  O. Vydrov,  J. Wenzel,  
 Jonathan Wong,  J. Witte,  A. Yamada,  Chou-Hsun Yang,  Kun Yao,  
 S. Yeganeh,  S. R. Yost,  A. Zech,  F. Zeller,  Igor Ying Zhang,  
 Xing Zhang,  Yu Zhang,  D. Zuev,  A. Aspuru-Guzik,  A. T. Bell,  
 N. A. Besley,  K. B. Bravaya,  B. R. Brooks,  D. Casanova,  Jeng-Da Chai,  
 Hsing-Ta Chen,  S. Coriani,  C. J. Cramer,  A. E. DePrince, III,  
 R. A. DiStasio Jr.,  A. Dreuw,  B. D. Dunietz,  T. R. Furlani,  
 W. A. Goddard III,  S. Grimme,  S. Hammes-Schiffer,  T. Head-Gordon,  
 W. J. Hehre,  Chao-Ping Hsu,  T.-C. Jagau,  Yousung Jung,  A. Klamt,  
 Jing Kong,  D. S. Lambrecht,  Xiangyuan Li,  WanZhen Liang,  N. J. Mayhall,  
 C. W. McCurdy,  J. B. Neaton,  T. Neudecker,  C. Ochsenfeld,  
 J. A. Parkhill,  R. Peverati,  V. A. Rassolov,  Haisheng Ren,  Yihan Shao,  
 L. V. Slipchenko,  R. P. Steele,  J. E. Subotnik,  A. J. W. Thom,  
 A. Tkatchenko,  D. G. Truhlar,  T. Van Voorhis,  Fan Wang,  
 T. A. Wesolowski,  K. B. Whaley,  H. L. Woodcock III,  P. M. Zimmerman,  
 S. Faraji,  P. M. W. Gill,  M. Head-Gordon,  J. M. Herbert,  A. I. Krylov

 Contributors to earlier versions of Q-Chem not listed above: 
 R. D. Adamson,  B. Austin,  R. Baer,  J. Baker,  G. J. O. Beran,  
 K. Brandhorst,  S. T. Brown,  E. F. C. Byrd,  Arup K. Chakraborty,  
 G. K. L. Chan,  Chun-Min Chang,  Yunqing Chen,  C.-L. Cheng,  
 Siu Hung Chien,  D. M. Chipman,  D. L. Crittenden,  H. Dachsel,  
 R. J. Doerksen,  A. D. Dutoi,  R. G. Edgar,  J. Fosso-Tande,  
 L. Fusti-Molnar,  D. Ghosh,  A. Ghysels,  A. Golubeva-Zadorozhnaya,  
 J. Gonthier,  M. S. Gordon,  S. R. Gwaltney,  G. Hawkins,  J. E. Herr,  
 A. Heyden,  S. Hirata,  E. G. Hohenstein,  G. Kedziora,  F. J. Keil,  
 C. Kelley,  Jihan Kim,  R. A. King,  R. Z. Khaliullin,  P. P. Korambath,  
 W. Kurlancheek,  A. Laurent,  A. M. Lee,  M. S. Lee,  S. V. Levchenko,  
 Ching Yeh Lin,  D. Liotard,  E. Livshits,  R. C. Lochan,  I. Lotan,  
 L. A. Martinez-Martinez,  P. E. Maslen,  N. Nair,  D. P. O'Neill,  
 D. Neuhauser,  E. Neuscamman,  C. M. Oana,  R. Olivares-Amaya,  R. Olson,  
 T. M. Perrine,  B. Peters,  P. A. Pieniazek,  A. Prociuk,  Y. M. Rhee,  
 J. Ritchie,  M. A. Rohrdanz,  E. Rosta,  N. J. Russ,  H. F. Schaefer III,  
 M. W. Schmidt,  N. E. Schultz,  S. Sharma,  N. Shenvi,  C. D. Sherrill,  
 A. C. Simmonett,  A. Sodt,  T. Stein,  D. Stuck,  K. S. Thanthiriwatte,  
 V. Vanovschi,  L. Vogt,  Tao Wang,  A. Warshel,  M. A. Watson,  
 C. F. Williams,  Q. Wu,  X. Xu,  Jun Yang,  W. Zhang,  Yan Zhao

   Please cite Q-Chem as follows:
  "Software for the frontiers of quantum chemistry:
   An overview of developments in the Q-Chem 5 package"
   J. Chem. Phys. 155, 084801 (2021)
   https://doi.org/10.1063/5.0055522 (open access)

 Q-Chem 6.0.1 for Intel X86 EM64T Linux

 Parts of Q-Chem use Armadillo 9.900.5 (Nocturnal Misbehaviour).
 http://arma.sourceforge.net/

 Q-Chem begins on Mon Nov 27 14:36:09 2023  

 Host: atlas-007
0

     Scratch files written to ./qchem1036//
 Processing $rem in /scratch/abel/SOFTWARE/qchem/config/preferences:
 Processing $rem in /dipc/acebg/.qchemrc:

 Checking the input file for inconsistencies... 	...done.

--------------------------------------------------------------
User input:
--------------------------------------------------------------
$comment
 RAS-SF CALCULATION
$end

$molecule
 READ fluorenone.molecule
$end

$rem
!**CALCULATION TYPE***     
JOBTYPE            sp    
EXCHANGE           HF
CORRELATION        RASCI    !RASCI=Casanova; RASCI2=Zimmerman
BASIS              def2-TZVP
BASIS2             STO-3G

!***SCF REFERENCE***
INPUT_BOHR          TRUE
!SKIP_SCFMAN        FALSE
UNRESTRICTED       FALSE
!SCF_GUESS          core
!SCF_GUESS_MIX      FALSE
!SCF_GUESS_ALWAYS   FALSE
MAX_SCF_CYCLES     999
!SCF_CONVERGENCE    8
SCF_ALGORITHM      DIIS_GDM !DIIS,DM,DIIS_DM,GDM,DIIS_GDM,GD

!SYMMETRY           TRUE   !use of symmetry for calculating integrals
!SYM_IGNORE         FALSE  !turn off using symmetry
!SYM_TOL            5      !tolerance for determining point group
!USE_ABELIAN_SUBGROUP      !define to use abelian group

!THRESH             14
SCF_FINAL_PRINT     1 !0,1,2,3

!****RAS-SF****
RAS_ROOTS          20       !number of RAS-CI roots to be computed
SET_ITER           150     !number of iterations in RASCI
RAS_ELEC           10       !number of electrons in RAS2
RAS_ELEC_ALPHA     6       !spin-α electrons in RAS2 
RAS_ELEC_BETA      4       !spin-β electrons in RAS2

RAS_ACT            11       !number of orbitals in RAS2 
RAS_ACT_ORB  [38, 39, 40, 43, 47, 48, 49, 50, 55, 59, 60]  !user-selected RAS2 orbitals
RAS_OCC            42       !number of orbitals in RAS1
N_FROZEN_CORE      22     !Number of frozen core orbitals
N_FROZEN_VIRTUAL   409    !Number of frozen virtual orbitals

RAS_DO_HOLE        TRUE   !presence of hole excitations in RAS-CI wave function
RAS_DO_PART        TRUE   !presence of particle excitations
!RAS_AMPL_PRINT     10     !threshold (×10 2 ) for the CI amplitudes

!RAS_GUESS_CS       0      !number of closed shell guess conﬁgurations
!RAS_SPIN_MULT      0      !spin multiplicity. Only for Ms = 0 
!RAS_SRDFT          FALSE  !short-range density functional RAS-CI
!RAS_NFRAG          0     !fragments of excitation analysis in RASCI

RAS_PRINT          2      !level of information
RAS_NATORB         TRUE   !computation of the natural orbital occupancies
!RAS_NATORB_STATE  0      !Saves NO of i RAS computed state in .fchk ﬁle
!RAS_FOD            TRUE

!****RAS-SOC****
CALC_SOC           TRUE   !calculate SOC for EOM-CC, RAS-CI, ADC, TDDFT/TDA and TDDFT
!RAS_SOC_2E        TRUE   !two-electron mean-ﬁeld contribution, default=true
RAS_SOC_SYM_DENS   TRUE   !averaging of α and β densities

!****MEMORY****
MEM_TOTAL          70000 !Default 2000 MB
MEM_STATIC         15000  !Default 64 MB

!**Molecular Properties and Analysis **                                                                                          
POP_MULLIKEN       TRUE   !Run Mulliken population analysis
LOWDIN_POPULATION  TRUE   !Run Löwdin population analysis
GUI                2       !Checkpoints generation
STATE_ANALYSIS     TRUE

!**Wave function analysis of RAS-CI states: MOLDEN**
!PLOTS = 0     ! Note: This can be omitted, default is 0
!NTO_PAIRS = 2 ! Note: This can be omitted, default is 2
!GUI 0
!MOLDEN_FORMAT      TRUE
!PRINT_ORBITALS     15

!**Wave function analysis of RAS-CI state: CUBE**
!NTO_PAIRS = 2 ! Note: This can be omitted, default is 2
!PLOTS = 1
!GUI 0

!**SR-DFT**
!RAS_SRDFT           TRUE !Perform short-range density functional RAS-CI
!RAS_SRDFT_EXC       0 !EX functional. 0=HF. 
!RAS_SRDFT_ONLY_COR  TRUE !No use of EXC functional
!RAS_SRDFT_COR       srPBE !short-range correlation functional
!ras_srdft_0         TRUE !true: no iteration (one-shot); false: iteration
!RAS_OMEGA           400 !Coulomb range-separation parameter. def=400
!RAS_SRDFT_DAMP     0.5 !dumping factor. def=0.5
$end

!$plots
!   grid_points 100 100 100
!   grid_range  (-10,10) (-10,10) (-10,10)
!$end

--------------------------------------------------------------
 ----------------------------------------------------------------
             Standard Nuclear Orientation (Bohr)
    I     Atom           X                Y                Z
 ----------------------------------------------------------------
    1      C      -0.0000000000    -0.0000000000     3.0318066276
    2      O      -0.0000000000    -0.0000000000     5.3638644743
    3      C      -2.1864624130    -0.0000000000     1.3211263669
    4      C       2.1864624130     0.0000000000     1.3211263669
    5      C       1.3222785792     0.0000000000    -1.3152461482
    6      C       4.7555386627     0.0000000000     1.8776505802
    7      C       6.4695983050     0.0000000000    -0.0972082822
    8      C       3.1392439890     0.0000000000    -3.3016694193
    9      C       5.6496513315     0.0000000000    -2.6924387954
   10      H       5.3730975132     0.0000000000     3.8295121100
   11      H       2.5395104465     0.0000000000    -5.2593503586
   12      H       8.4790954600     0.0000000000     0.2945733557
   13      H       7.0667355415     0.0000000000    -4.1688986988
   14      C      -1.3222785792    -0.0000000000    -1.3152461482
   15      C      -4.7555386627    -0.0000000000     1.8776505802
   16      C      -3.1392439890    -0.0000000000    -3.3016694193
   17      C      -6.4695983050    -0.0000000000    -0.0972082822
   18      C      -5.6496513315    -0.0000000000    -2.6924387954
   19      H      -2.5395104465    -0.0000000000    -5.2593503586
   20      H      -5.3730975132    -0.0000000000     3.8295121100
   21      H      -8.4790954600    -0.0000000000     0.2945733557
   22      H      -7.0667355415    -0.0000000000    -4.1688986988
 ----------------------------------------------------------------
 Molecular Point Group                 C2v   NOp =  4
 Largest Abelian Subgroup              C2v   NOp =  4
 Nuclear Repulsion Energy =         775.12034816 hartrees
 There are       48 alpha and       46 beta electrons
 Requested basis set is def2-TZVP
 There are 186 shells and 482 basis functions

 Q-Chem warning in module libmdc/get_mega.C, line 167:

 Allowed MEM_STATIC has been capped at MEM_STATIC=8191.
 Reduce the value of MEM_STATIC to silence this warning.


 Total QAlloc Memory Limit  70000 MB
 Mega-Array Size      8007 MB
 MEM_STATIC part      8191 MB

 A cutoff of  1.0D-09 yielded  13341 shell pairs
 There are     89641 function pairs (    116642 Cartesian)
 Smallest overlap matrix eigenvalue = 7.88E-06

 Q-Chem warning in module stvman/mkSTV.C, line 313:

 Overlap eigenvalue is smaller than square root of threshold
 Use THRESH >= 12 to get rid of this warning


 Scale SEOQF with 1.000000e-01/1.000000e+00/1.000000e-01

 Standard Electronic Orientation quadrupole field applied
 Nucleus-field energy     =    -0.0000000045 hartrees
 Requested basis set is STO-3G
 There are 36 shells and 78 basis functions
 A cutoff of  1.0D-09 yielded    508 shell pairs
 There are      2824 function pairs
 Smallest overlap matrix eigenvalue = 1.76E-01
 Constructing guess Fock matrix from core Hamiltonian
 Applying Wolfsberg-Helmholtz approximation
 A restricted Hartree-Fock SCF calculation will be
 performed using Geometric Direct Minimization
 SCF converges when RMS gradient is below 1.0E-04
 ---------------------------------------
  Cycle       Energy        RMS Gradient
 ---------------------------------------
    1    -562.9071884020      5.40E-01 Descent step
    2    -563.4687844878      3.98E-01 Descent step
    3    -563.9065938671      2.32E-01 Descent step
    4    -564.2366040034      1.45E-01 Descent step
    5    -564.4695535386      8.16E-02 Descent step
    6    -564.6116778141      5.24E-02 Dog-leg BFGS step
    7    -564.6679870182      2.32E-02 Normal BFGS step
    8    -564.6702340444      9.19E-03 Normal BFGS step
    9    -564.6705084635      3.00E-03 Normal BFGS step
   10    -564.6705718159      1.54E-03 Normal BFGS step
   11    -564.6705774858      5.91E-04 Normal BFGS step
   12    -564.6705785197      2.39E-04 Normal BFGS step
   13    -564.6705787715      1.08E-04 Normal BFGS step
   14    -564.6705788166      3.43E-05 Convergence criterion met
 ---------------------------------------
 One-Electron    Energy = -2309.3889407721
 Total Coulomb   Energy =  1048.2627072027
 Alpha Exchange  Energy =   -39.9845107568
 Beta  Exchange  Energy =   -38.6801826422
 DFT   Exchange  Energy =     0.0000000000
 DFT Correlation Energy =     0.0000000000
 Nuclear Repu.   Energy =   775.1203481517
 Nuclear Attr.   Energy = -2869.0559405023
 Kinetic         Energy =   559.6669997302
 SCF time:  CPU 1.71 s  wall 2.50 s
 SCF   energy in the small basis set = -564.67057882
 Total energy in the small basis set = -564.67057882
 ----------------------------------------------------
  Cycle       Energy    
 ----------------------------------------------------
    1     -70.8912839774     -7.09E+01
 A restricted Hartree-Fock SCF calculation will be
 performed using Geometric Direct Minimization
 SCF converges when RMS gradient is below 1.0E-05
 ---------------------------------------
  Cycle       Energy        RMS Gradient
 ---------------------------------------
    1    -571.6538726055      3.32E-01 Descent step
    2    -571.8116593413      9.92E-02 Descent step
    3    -571.9032318624      4.53E-02 Normal BFGS step
    4    -571.9223098008      2.25E-02 Normal BFGS step
    5    -571.9247201919      1.27E-02 Normal BFGS step
    6    -571.9252359201      8.63E-03 Normal BFGS step
    7    -571.9255113145      4.10E-03 Normal BFGS step
    8    -571.9255879012      1.83E-03 Normal BFGS step
    9    -571.9256014489      1.28E-03 Normal BFGS step
   10    -571.9256069452      4.08E-04 Normal BFGS step
   11    -571.9256078801      1.77E-04 Normal BFGS step
   12    -571.9256081325      4.46E-05 Normal BFGS step
   13    -571.9256076297      7.19E-06 Convergence criterion met
 ---------------------------------------
 One-Electron    Energy = -2313.5360403654
 Total Coulomb   Energy =  1045.0564390602
 Alpha Exchange  Energy =   -39.7460934076
 Beta  Exchange  Energy =   -38.8202610687
 DFT   Exchange  Energy =     0.0000000000
 DFT Correlation Energy =     0.0000000000
 Nuclear Repu.   Energy =   775.1203481517
 Nuclear Attr.   Energy = -2884.7512949044
 Kinetic         Energy =   571.2152545390
 SCF time:  CPU 1048.24 s  wall 1052.11 s
 SCF   energy in the final basis set = -571.92560763
 Total energy in the final basis set = -571.92560763
  
     ##========================================##
     ||                                        ||
     ||              R A S M A N 2             ||
     ||________________________________________||
     ||                                        ||
     ||  Author:                               ||
     ||                                        ||
     ||        David Casanova (2010)           ||
     ||                                        ||
     ##========================================##
  
Setting single-point xc-functionals (if necessary)

  ***************************************************
  *  RAS-CI Dimensions:                             *
  *                                                 *
  *  Active Elec.:  10 ( 6, 4)   Active Orb.:  11   *
  *  Doubly Occ. :  42           Doubly Vir.: 429   *
  *  Frozen Occ. :  22           Frozen Vir.: 409   *
  *                                                 *
  *  Total CI configurations:  11173140             * 
  *    Active configurations:    152460             * 
  *      Hole configurations:   6446880             * 
  *  Particle configurations:   4573800             * 
  *                                                 *
  *   Requested states:       20                    *
  *  Spin multiplicity: Any multiplicity            *
  *                                                 *
  ***************************************************
-----------------------------------------
    Memory requirements of RASCI

 Each CI-vector requires     85.24 MiB 
 Max. subspace vectors           3000      

 Reduced Lists                0.02 MiB 
 Excitation Lists             0.03 MiB 
 Excitation Lists Sign        0.03 MiB 
 CI-space (Max)          257506.45 MiB 
 Integrals                  424.52 MiB 
 Memory required (Max)   257506.53 MiB 
 Memory available          7811.55 MiB 

 Q-Chem warning in module rasman2/ras_mem_check.C, line 162:

 Static memory may be insufficient to store the subspace vectors


    Disk requirements of RASCI

 Fock matrix                  3.54 MiB 
 2-electron integrals         4.73 MiB 
 CI-space                511465.76 MiB 
 Disk required           511474.03 MiB 
-----------------------------------------
  
RAS1 HF-like energy:           -558.3389189990
 Computing integrals
 Computing J and K matrices
 Computing addressing
 Making amplitude guesses
 
Direct CI diagonalization
 ---------------------------------------------------
 Iter    Rts Conv    Rts Left    Ttl Dev     Max Dev
 ---------------------------------------------------
   1         0          20      0.000770    0.000058
   2         0          20      0.000443    0.000037
   3         0          20      0.000343    0.000023
   4         0          20      0.000346    0.000052
   5         0          20      0.000321    0.000043
   6         0          20      0.000340    0.000041
   7         1          19      0.000316    0.000042
   8         2          18      0.000274    0.000034
   9         2          18      0.000202    0.000021
  10         3          17      0.000165    0.000019
  11         4          16      0.000151    0.000029
  12         5          15      0.000145    0.000025
  13         5          15      0.000106    0.000020
  14         6          14      0.000081    0.000014
  15         8          12      0.000067    0.000011
  16         9          11      0.000053    0.000008
  17        11           9      0.000044    0.000007
  18        11           9      0.000036    0.000006
  19        11           9      0.000033    0.000009
  20        11           9      0.000026    0.000008
  21        13           7      0.000022    0.000006
  22        16           4      0.000018    0.000006
  23        17           3      0.000015    0.000005
  24        18           2      0.000014    0.000004
  25        18           2      0.000012    0.000003
  26        18           2      0.000012    0.000003
  27        19           1      0.000011    0.000002
  28        19           1      0.000010    0.000001
  29        20           0      0.000009    0.000001    Roots Converged
 ---------------------------------------------------
   
**************************************************
 RAS-CI total energy for state   1:   -571.942882573556
  Excitation energy (eV) =  0.000000000000
  State symmetry: B1    (C2v      )
  <S^2>      :  2.0000
  Dipole Moment:    0.0000 X     0.0000 Y     2.0936 Z
 NATURAL OCCUPATION NUMBERS (higher than 1.0E-05)
            1           2           3           4           5           6
    1   2.0000000   2.0000000   2.0000000   2.0000000   2.0000000   2.0000000
            7           8           9          10          11          12
    1   2.0000000   2.0000000   2.0000000   2.0000000   2.0000000   2.0000000
           13          14          15          16          17          18
    1   2.0000000   2.0000000   2.0000000   2.0000000   2.0000000   2.0000000
           19          20          21          22          23          24
    1   2.0000000   2.0000000   2.0000000   2.0000000   1.9999960   1.9999948
           25          26          27          28          29          30
    1   1.9999909   1.9999883   1.9999847   1.9999782   1.9999775   1.9999734
           31          32          33          34          35          36
    1   1.9999589   1.9999567   1.9999515   1.9999311   1.9999199   1.9999155
           37          38          39          40          41          42
    1   1.9995682   1.9995351   1.9994991   1.9994910   1.9993489   1.9991184
           43          44          45          46          47          48
    1   1.9991045   1.9946653   1.9945264   1.9752323   1.0077518   0.9829514
           49          50          51          52          53          54
    1   0.0306041   0.0155875   0.0011400   0.0008961   0.0004258   0.0003075
           55          56          57          58          59          60
    1   0.0002642   0.0001072   0.0000862   0.0000746   0.0000500   0.0000225
           61          62          63          64          65          66
    1   0.0000207   0.0000166   0.0000165   0.0000154   0.0000140   0.0000102

 Head-Gordon Nu:    2.07
 Head-Gordon Nu_nl: 2.01

  Amplitudes : 
  
 | HOLE  | ALPHA       | BETA        | PART  |    AMPLITUDE 
--------------------------------------------------
 |       | 11111100000 | 11110000000 |       |     9.7728829926842E-01
--------------------------------------------------
*** Contributions RASCI wfn    Active:  95.84
                                 Hole:   3.92
                                 Part:   0.24

      Mulliken population analysis 
 ---------------------------------------------------
   Atom    Charge (a.u.)   Spin (a.u.)  
 ---------------------------------------------------
   1  C    0.051174        0.149331 
   2  O   -0.515589        0.159896 
   3  C    0.184781        0.341509 
   4  C    0.184781        0.341509 
   5  C    0.171325        0.200799 
   6  C   -0.248266       -0.005204 
   7  C   -0.034471        0.173980 
   8  C   -0.308671        0.054610 
   9  C   -0.095669        0.083634 
  10  H    0.155175       -0.001747 
  11  H    0.131902       -0.000606 
  12  H    0.141094       -0.000632 
  13  H    0.135007       -0.000957 
  14  C    0.171325        0.200799 
  15  C   -0.248266       -0.005204 
  16  C   -0.308671        0.054610 
  17  C   -0.034471        0.173980 
  18  C   -0.095669        0.083634 
  19  H    0.131902       -0.000606 
  20  H    0.155175       -0.001747 
  21  H    0.141094       -0.000632 
  22  H    0.135007       -0.000957 
 ---------------------------------------------------
   Sum:    0.000000        2.000000 
 ---------------------------------------------------
 
  
 NATURAL OCCUPATION NUMBERS (higher than 1.0E-05)
            1           2           3           4           5           6
    1   2.0000000   2.0000000   2.0000000   2.0000000   2.0000000   2.0000000
            7           8           9          10          11          12
    1   2.0000000   2.0000000   2.0000000   2.0000000   2.0000000   2.0000000
           13          14          15          16          17          18
    1   2.0000000   2.0000000   2.0000000   2.0000000   2.0000000   2.0000000
           19          20          21          22          23          24
    1   2.0000000   2.0000000   2.0000000   2.0000000   1.9999960   1.9999948
           25          26          27          28          29          30
    1   1.9999909   1.9999883   1.9999847   1.9999782   1.9999775   1.9999734
           31          32          33          34          35          36
    1   1.9999589   1.9999567   1.9999515   1.9999311   1.9999199   1.9999155
           37          38          39          40          41          42
    1   1.9995682   1.9995351   1.9994991   1.9994910   1.9993489   1.9991184
           43          44          45          46          47          48
    1   1.9991045   1.9946653   1.9945264   1.9752323   1.0077518   0.9829514
           49          50          51          52          53          54
    1   0.0306041   0.0155875   0.0011400   0.0008961   0.0004258   0.0003075
           55          56          57          58          59          60
    1   0.0002642   0.0001072   0.0000862   0.0000746   0.0000500   0.0000225
           61          62          63          64          65          66
    1   0.0000207   0.0000166   0.0000165   0.0000154   0.0000140   0.0000102
  
*** Unpaired Electrons
 Yamaguchi Nd:         2.18
 Head-Gordon Nu:       2.07
 Head-Gordon Nu_nl:    2.01
  
**************************************************
 RAS-CI total energy for state   2:   -571.869224255468
  Excitation energy (eV) =  2.004344813038
  State symmetry: A1    (C2v      )
  <S^2>      :  2.0000
  Dipole Moment:    0.0000 X    -0.0000 Y     2.0289 Z
  Trans. Moment:   -0.4268 X    -0.0000 Y    -0.0000 Z
  Strength   :  0.008946
  Natural transition orbitals ( 1 -> 2 ):
   e-/hole pair  1 alpha:  ampl =  0.436170 ( 19.0%)   [11 : 12]
   e-/hole pair  2 alpha:  ampl =  0.098582 (  1.0%)   [10 : 13]
   e-/hole pair  1 beta :  ampl =  0.827982 ( 68.6%)   [11 : 12]
   e-/hole pair  2 beta :  ampl =  0.087782 (  0.8%)   [10 : 13]
   Sum of square amplitudes: 0.91

 NATURAL OCCUPATION NUMBERS (higher than 1.0E-05)
            1           2           3           4           5           6
    1   2.0000000   2.0000000   2.0000000   2.0000000   2.0000000   2.0000000
            7           8           9          10          11          12
    1   2.0000000   2.0000000   2.0000000   2.0000000   2.0000000   2.0000000
           13          14          15          16          17          18
    1   2.0000000   2.0000000   2.0000000   2.0000000   2.0000000   2.0000000
           19          20          21          22          23          24
    1   2.0000000   2.0000000   2.0000000   2.0000000   1.9999972   1.9999967
           25          26          27          28          29          30
    1   1.9999951   1.9999943   1.9999924   1.9999924   1.9999919   1.9999916
           31          32          33          34          35          36
    1   1.9999880   1.9999878   1.9999830   1.9999717   1.9999698   1.9999647
           37          38          39          40          41          42
    1   1.9998571   1.9997665   1.9997528   1.9997389   1.9996070   1.9988671
           43          44          45          46          47          48
    1   1.9981689   1.9952630   1.9742987   1.7199430   1.2557234   0.7762968
           49          50          51          52          53          54
    1   0.2448334   0.0334832   0.0018567   0.0015598   0.0003524   0.0002439
           55          56          57          58          59          60
    1   0.0001549   0.0001416   0.0000936   0.0000448   0.0000441   0.0000303
           61
    1   0.0000179

 Head-Gordon Nu:    2.12
 Head-Gordon Nu_nl: 2.20

  Amplitudes : 
  
 | HOLE  | ALPHA       | BETA        | PART  |    AMPLITUDE 
--------------------------------------------------
 |       | 11111001000 | 11110000000 |       |    -4.2232705772900E-01
 |  42   | 11111101000 | 11110000000 |       |    -1.0056720199814E-01
 |  36   | 11111100000 | 11111000000 |       |     1.0440701426091E-01
 |  40   | 11111100000 | 11111000000 |       |     1.5842123147289E-01
 |  42   | 11111100000 | 11111000000 |       |     8.0980788879753E-01
 |  42   | 11111100000 | 11110001000 |       |     1.2445421332503E-01
 |  42   | 11111010000 | 11111000000 |       |    -1.0863677500368E-01
 |  41   | 11111001000 | 11111000000 |       |     1.2333101171609E-01
 |  42   | 11111001000 | 11110100000 |       |     1.1649427877203E-01
 |  42   | 11110101000 | 11111000000 |       |    -1.0852713655115E-01
--------------------------------------------------
*** Contributions RASCI wfn    Active:  17.95
                                 Hole:  81.21
                                 Part:   0.85

      Mulliken population analysis 
 ---------------------------------------------------
   Atom    Charge (a.u.)   Spin (a.u.)  
 ---------------------------------------------------
   1  C    0.065909        0.138833 
   2  O   -0.454753        0.192467 
   3  C    0.155184        0.270641 
   4  C    0.155184        0.270641 
   5  C    0.134733        0.164535 
   6  C   -0.242681        0.060227 
   7  C   -0.082400        0.063347 
   8  C   -0.301276        0.073414 
   9  C   -0.038884        0.201146 
  10  H    0.159701       -0.000196 
  11  H    0.132763        0.000272 
  12  H    0.141127        0.000127 
  13  H    0.136154        0.000838 
  14  C    0.134733        0.164535 
  15  C   -0.242681        0.060227 
  16  C   -0.301276        0.073414 
  17  C   -0.082400        0.063347 
  18  C   -0.038884        0.201146 
  19  H    0.132763        0.000272 
  20  H    0.159701       -0.000196 
  21  H    0.141127        0.000127 
  22  H    0.136154        0.000838 
 ---------------------------------------------------
   Sum:    0.000000        2.000000 
 ---------------------------------------------------
 
  
 NATURAL OCCUPATION NUMBERS (higher than 1.0E-05)
            1           2           3           4           5           6
    1   2.0000000   2.0000000   2.0000000   2.0000000   2.0000000   2.0000000
            7           8           9          10          11          12
    1   2.0000000   2.0000000   2.0000000   2.0000000   2.0000000   2.0000000
           13          14          15          16          17          18
    1   2.0000000   2.0000000   2.0000000   2.0000000   2.0000000   2.0000000
           19          20          21          22          23          24
    1   2.0000000   2.0000000   2.0000000   2.0000000   1.9999972   1.9999967
           25          26          27          28          29          30
    1   1.9999951   1.9999943   1.9999924   1.9999924   1.9999919   1.9999916
           31          32          33          34          35          36
    1   1.9999880   1.9999878   1.9999830   1.9999717   1.9999698   1.9999647
           37          38          39          40          41          42
    1   1.9998571   1.9997665   1.9997528   1.9997389   1.9996070   1.9988671
           43          44          45          46          47          48
    1   1.9981689   1.9952630   1.9742987   1.7199430   1.2557234   0.7762968
           49          50          51          52          53          54
    1   0.2448334   0.0334832   0.0018567   0.0015598   0.0003524   0.0002439
           55          56          57          58          59          60
    1   0.0001549   0.0001416   0.0000936   0.0000448   0.0000441   0.0000303
           61
    1   0.0000179
  
*** Unpaired Electrons
 Yamaguchi Nd:         2.94
 Head-Gordon Nu:       2.12
 Head-Gordon Nu_nl:    2.20
  
**************************************************
 RAS-CI total energy for state   3:   -571.867541131905
  Excitation energy (eV) =  2.050144935442
  State symmetry: A2    (C2v      )
  <S^2>      :  2.0000
  Dipole Moment:   -0.0000 X     0.0000 Y    -0.0109 Z
  Trans. Moment:    0.0000 X    -0.0383 Y     0.0000 Z
  Strength   :  0.000074
  Natural transition orbitals ( 1 -> 3 ):
   e-/hole pair  1 alpha:  ampl =  0.011270 (  0.0%)   [11 : 12]
   e-/hole pair  2 alpha:  ampl =  0.007093 (  0.0%)   [10 : 13]
   e-/hole pair  1 beta :  ampl =  0.882686 ( 77.9%)   [11 : 12]
   e-/hole pair  2 beta :  ampl =  0.025599 (  0.1%)   [10 : 13]
   Sum of square amplitudes: 0.78

 NATURAL OCCUPATION NUMBERS (higher than 1.0E-05)
            1           2           3           4           5           6
    1   2.0000000   2.0000000   2.0000000   2.0000000   2.0000000   2.0000000
            7           8           9          10          11          12
    1   2.0000000   2.0000000   2.0000000   2.0000000   2.0000000   2.0000000
           13          14          15          16          17          18
    1   2.0000000   2.0000000   2.0000000   2.0000000   2.0000000   2.0000000
           19          20          21          22          23          24
    1   2.0000000   2.0000000   2.0000000   2.0000000   1.9999947   1.9999905
           25          26          27          28          29          30
    1   1.9999760   1.9999754   1.9999692   1.9999510   1.9999339   1.9999309
           31          32          33          34          35          36
    1   1.9999215   1.9998999   1.9998969   1.9998806   1.9997197   1.9997146
           37          38          39          40          41          42
    1   1.9994845   1.9992319   1.9984598   1.9980846   1.9970553   1.9970262
           43          44          45          46          47          48
    1   1.9961427   1.9944901   1.9848621   1.9574731   1.0080647   1.0054909
           49          50          51          52          53          54
    1   0.0273339   0.0250312   0.0090771   0.0009950   0.0007639   0.0005385
           55          56          57          58          59          60
    1   0.0003803   0.0003619   0.0001905   0.0001691   0.0001533   0.0001249
           61          62          63          64          65          66
    1   0.0000724   0.0000306   0.0000274   0.0000231   0.0000228   0.0000205
           67          68
    1   0.0000164   0.0000140

 Head-Gordon Nu:    2.13
 Head-Gordon Nu_nl: 2.01

  Amplitudes : 
  
 | HOLE  | ALPHA       | BETA        | PART  |    AMPLITUDE 
--------------------------------------------------
 |       | 11111100000 | 11101000000 |       |     8.8483200310450E-01
 |       | 11111010000 | 11101000000 |       |    -1.7903252079345E-01
 |  42   | 11111100000 | 11101100000 |       |    -2.4572656567062E-01
 |       | 11111000000 | 11101000000 |  59   |     1.9354256180813E-01
 |       | 11111000000 | 11101000000 |  65   |     1.0327508160267E-01
--------------------------------------------------
*** Contributions RASCI wfn    Active:  82.92
                                 Hole:  10.36
                                 Part:   6.72

      Mulliken population analysis 
 ---------------------------------------------------
   Atom    Charge (a.u.)   Spin (a.u.)  
 ---------------------------------------------------
   1  C   -0.005943        0.462516 
   2  O   -0.124559        0.713718 
   3  C    0.111574        0.140407 
   4  C    0.111574        0.140407 
   5  C    0.167620        0.127294 
   6  C   -0.220235        0.064600 
   7  C   -0.086480        0.002374 
   8  C   -0.325925        0.007241 
   9  C   -0.089529        0.070685 
  10  H    0.128109       -0.002516 
  11  H    0.130632        0.001506 
  12  H    0.126620        0.000495 
  13  H    0.122864       -0.000202 
  14  C    0.167620        0.127294 
  15  C   -0.220235        0.064600 
  16  C   -0.325925        0.007241 
  17  C   -0.086480        0.002374 
  18  C   -0.089529        0.070685 
  19  H    0.130632        0.001506 
  20  H    0.128109       -0.002516 
  21  H    0.126620        0.000495 
  22  H    0.122864       -0.000202 
 ---------------------------------------------------
   Sum:    0.000000        2.000000 
 ---------------------------------------------------
 
  
 NATURAL OCCUPATION NUMBERS (higher than 1.0E-05)
            1           2           3           4           5           6
    1   2.0000000   2.0000000   2.0000000   2.0000000   2.0000000   2.0000000
            7           8           9          10          11          12
    1   2.0000000   2.0000000   2.0000000   2.0000000   2.0000000   2.0000000
           13          14          15          16          17          18
    1   2.0000000   2.0000000   2.0000000   2.0000000   2.0000000   2.0000000
           19          20          21          22          23          24
    1   2.0000000   2.0000000   2.0000000   2.0000000   1.9999947   1.9999905
           25          26          27          28          29          30
    1   1.9999760   1.9999754   1.9999692   1.9999510   1.9999339   1.9999309
           31          32          33          34          35          36
    1   1.9999215   1.9998999   1.9998969   1.9998806   1.9997197   1.9997146
           37          38          39          40          41          42
    1   1.9994845   1.9992319   1.9984598   1.9980846   1.9970553   1.9970262
           43          44          45          46          47          48
    1   1.9961427   1.9944901   1.9848621   1.9574731   1.0080647   1.0054909
           49          50          51          52          53          54
    1   0.0273339   0.0250312   0.0090771   0.0009950   0.0007639   0.0005385
           55          56          57          58          59          60
    1   0.0003803   0.0003619   0.0001905   0.0001691   0.0001533   0.0001249
           61          62          63          64          65          66
    1   0.0000724   0.0000306   0.0000274   0.0000231   0.0000228   0.0000205
           67          68
    1   0.0000164   0.0000140
  
*** Unpaired Electrons
 Yamaguchi Nd:         2.28
 Head-Gordon Nu:       2.13
 Head-Gordon Nu_nl:    2.01
  
**************************************************
 RAS-CI total energy for state   4:   -571.860229608915
  Excitation energy (eV) =  2.249101598597
  State symmetry: B1    (C2v      )
  <S^2>      :  2.0000
  Dipole Moment:    0.0000 X     0.0000 Y     1.8032 Z
  Trans. Moment:   -0.0000 X    -0.0000 Y    -0.1961 Z
  Strength   :  0.002120
  Natural transition orbitals ( 1 -> 4 ):
   e-/hole pair  1 alpha:  ampl =  0.711724 ( 50.7%)   [11 : 12]
   e-/hole pair  2 alpha:  ampl =  0.076076 (  0.6%)   [10 : 13]
   e-/hole pair  1 beta :  ampl =  0.601561 ( 36.2%)   [11 : 12]
   e-/hole pair  2 beta :  ampl =  0.102685 (  1.1%)   [10 : 13]
   Sum of square amplitudes: 0.89

 NATURAL OCCUPATION NUMBERS (higher than 1.0E-05)
            1           2           3           4           5           6
    1   2.0000000   2.0000000   2.0000000   2.0000000   2.0000000   2.0000000
            7           8           9          10          11          12
    1   2.0000000   2.0000000   2.0000000   2.0000000   2.0000000   2.0000000
           13          14          15          16          17          18
    1   2.0000000   2.0000000   2.0000000   2.0000000   2.0000000   2.0000000
           19          20          21          22          23          24
    1   2.0000000   2.0000000   2.0000000   2.0000000   1.9999956   1.9999951
           25          26          27          28          29          30
    1   1.9999930   1.9999929   1.9999885   1.9999860   1.9999794   1.9999781
           31          32          33          34          35          36
    1   1.9999767   1.9999748   1.9999659   1.9999591   1.9999488   1.9999327
           37          38          39          40          41          42
    1   1.9997905   1.9996633   1.9996246   1.9995803   1.9993249   1.9975696
           43          44          45          46          47          48
    1   1.9959259   1.9939993   1.9399058   1.6061475   1.3840910   0.5887522
           49          50          51          52          53          54
    1   0.4452943   0.0448042   0.0038604   0.0006713   0.0005201   0.0002184
           55          56          57          58          59          60
    1   0.0001977   0.0000682   0.0000682   0.0000645   0.0000410   0.0000377
           61          62          63          64
    1   0.0000262   0.0000196   0.0000144   0.0000111

 Head-Gordon Nu:    2.17
 Head-Gordon Nu_nl: 2.32

  Amplitudes : 
  
 | HOLE  | ALPHA       | BETA        | PART  |    AMPLITUDE 
--------------------------------------------------
 |       | 11111010000 | 11110000000 |       |     6.9428668009554E-01
 |  42   | 11111110000 | 11110000000 |       |     1.7230402298259E-01
 |  41   | 11111100000 | 11111000000 |       |     6.0346186995893E-01
 |  41   | 11111100000 | 11110001000 |       |     1.0492121093894E-01
 |  42   | 11111010000 | 11110100000 |       |    -1.3680174521064E-01
 |  42   | 11111001000 | 11111000000 |       |     1.2050277964621E-01
 |  42   | 11110110000 | 11111000000 |       |     1.1093601715490E-01
--------------------------------------------------
*** Contributions RASCI wfn    Active:  48.50
                                 Hole:  50.91
                                 Part:   0.59

      Mulliken population analysis 
 ---------------------------------------------------
   Atom    Charge (a.u.)   Spin (a.u.)  
 ---------------------------------------------------
   1  C    0.108467        0.090170 
   2  O   -0.492762        0.077512 
   3  C    0.163969        0.202725 
   4  C    0.163969        0.202725 
   5  C    0.137826        0.109505 
   6  C   -0.225837        0.140260 
   7  C   -0.064986        0.182428 
   8  C   -0.333748        0.186511 
   9  C   -0.049075        0.094953 
  10  H    0.152320       -0.001017 
  11  H    0.134185        0.000873 
  12  H    0.140005        0.000225 
  13  H    0.137489       -0.000304 
  14  C    0.137826        0.109505 
  15  C   -0.225837        0.140260 
  16  C   -0.333748        0.186511 
  17  C   -0.064986        0.182428 
  18  C   -0.049075        0.094953 
  19  H    0.134185        0.000873 
  20  H    0.152320       -0.001017 
  21  H    0.140005        0.000225 
  22  H    0.137489       -0.000304 
 ---------------------------------------------------
   Sum:    0.000000        2.000000 
 ---------------------------------------------------
 
  
 NATURAL OCCUPATION NUMBERS (higher than 1.0E-05)
            1           2           3           4           5           6
    1   2.0000000   2.0000000   2.0000000   2.0000000   2.0000000   2.0000000
            7           8           9          10          11          12
    1   2.0000000   2.0000000   2.0000000   2.0000000   2.0000000   2.0000000
           13          14          15          16          17          18
    1   2.0000000   2.0000000   2.0000000   2.0000000   2.0000000   2.0000000
           19          20          21          22          23          24
    1   2.0000000   2.0000000   2.0000000   2.0000000   1.9999956   1.9999951
           25          26          27          28          29          30
    1   1.9999930   1.9999929   1.9999885   1.9999860   1.9999794   1.9999781
           31          32          33          34          35          36
    1   1.9999767   1.9999748   1.9999659   1.9999591   1.9999488   1.9999327
           37          38          39          40          41          42
    1   1.9997905   1.9996633   1.9996246   1.9995803   1.9993249   1.9975696
           43          44          45          46          47          48
    1   1.9959259   1.9939993   1.9399058   1.6061475   1.3840910   0.5887522
           49          50          51          52          53          54
    1   0.4452943   0.0448042   0.0038604   0.0006713   0.0005201   0.0002184
           55          56          57          58          59          60
    1   0.0001977   0.0000682   0.0000682   0.0000645   0.0000410   0.0000377
           61          62          63          64
    1   0.0000262   0.0000196   0.0000144   0.0000111
  
*** Unpaired Electrons
 Yamaguchi Nd:         3.25
 Head-Gordon Nu:       2.17
 Head-Gordon Nu_nl:    2.32
  
**************************************************
 RAS-CI total energy for state   5:   -571.844643214250
  Excitation energy (eV) =  2.673228976338
  State symmetry: B1    (C2v      )
  <S^2>      :  2.0000
  Dipole Moment:    0.0000 X    -0.0000 Y     1.8875 Z
  Trans. Moment:    0.0000 X    -0.0000 Y     0.5081 Z
  Strength   :  0.016907
  Natural transition orbitals ( 1 -> 5 ):
   e-/hole pair  1 alpha:  ampl =  0.594383 ( 35.3%)   [11 : 12]
   e-/hole pair  2 alpha:  ampl =  0.065934 (  0.4%)   [10 : 13]
   e-/hole pair  1 beta :  ampl =  0.663518 ( 44.0%)   [11 : 12]
   e-/hole pair  2 beta :  ampl =  0.120365 (  1.4%)   [10 : 13]
   Sum of square amplitudes: 0.82

 NATURAL OCCUPATION NUMBERS (higher than 1.0E-05)
            1           2           3           4           5           6
    1   2.0000000   2.0000000   2.0000000   2.0000000   2.0000000   2.0000000
            7           8           9          10          11          12
    1   2.0000000   2.0000000   2.0000000   2.0000000   2.0000000   2.0000000
           13          14          15          16          17          18
    1   2.0000000   2.0000000   2.0000000   2.0000000   2.0000000   2.0000000
           19          20          21          22          23          24
    1   2.0000000   2.0000000   2.0000000   2.0000000   1.9999964   1.9999953
           25          26          27          28          29          30
    1   1.9999952   1.9999900   1.9999884   1.9999861   1.9999859   1.9999805
           31          32          33          34          35          36
    1   1.9999766   1.9999720   1.9999708   1.9999508   1.9999422   1.9999321
           37          38          39          40          41          42
    1   1.9998066   1.9996833   1.9996076   1.9995968   1.9993558   1.9991764
           43          44          45          46          47          48
    1   1.9949357   1.9801974   1.9326992   1.6827672   1.3375823   0.6859373
           49          50          51          52          53          54
    1   0.3214814   0.0637418   0.0011739   0.0006980   0.0005423   0.0004391
           55          56          57          58          59          60
    1   0.0002335   0.0002218   0.0001165   0.0000957   0.0000823   0.0000534
           61          62          63          64
    1   0.0000250   0.0000208   0.0000153   0.0000104

 Head-Gordon Nu:    2.15
 Head-Gordon Nu_nl: 2.21

  Amplitudes : 
  
 | HOLE  | ALPHA       | BETA        | PART  |    AMPLITUDE 
--------------------------------------------------
 |       | 11111010000 | 11110000000 |       |    -5.8566742669028E-01
 |  41   | 11111100000 | 11111000000 |       |     6.6414651205041E-01
 |  41   | 11111100000 | 11110001000 |       |     1.0585490346447E-01
 |  41   | 11111010000 | 11111000000 |       |    -2.5706642403879E-01
 |  42   | 11111010000 | 11110100000 |       |     1.0684221307871E-01
 |  40   | 11111001000 | 11111000000 |       |    -1.3161487522095E-01
 |  42   | 11111001000 | 11111000000 |       |     1.5398682437138E-01
--------------------------------------------------
*** Contributions RASCI wfn    Active:  35.18
                                 Hole:  64.42
                                 Part:   0.41

      Mulliken population analysis 
 ---------------------------------------------------
   Atom    Charge (a.u.)   Spin (a.u.)  
 ---------------------------------------------------
   1  C    0.071244        0.122359 
   2  O   -0.497416        0.099131 
   3  C    0.142799        0.140578 
   4  C    0.142799        0.140578 
   5  C    0.142410        0.093121 
   6  C   -0.209781        0.185238 
   7  C   -0.023760        0.161367 
   8  C   -0.293809        0.200707 
   9  C   -0.110613        0.107655 
  10  H    0.153310       -0.000481 
  11  H    0.134328        0.000940 
  12  H    0.141921        0.000119 
  13  H    0.136279        0.000011 
  14  C    0.142410        0.093121 
  15  C   -0.209781        0.185238 
  16  C   -0.293809        0.200707 
  17  C   -0.023760        0.161367 
  18  C   -0.110613        0.107655 
  19  H    0.134328        0.000940 
  20  H    0.153310       -0.000481 
  21  H    0.141921        0.000119 
  22  H    0.136279        0.000011 
 ---------------------------------------------------
   Sum:    0.000000        2.000000 
 ---------------------------------------------------
 
  
 NATURAL OCCUPATION NUMBERS (higher than 1.0E-05)
            1           2           3           4           5           6
    1   2.0000000   2.0000000   2.0000000   2.0000000   2.0000000   2.0000000
            7           8           9          10          11          12
    1   2.0000000   2.0000000   2.0000000   2.0000000   2.0000000   2.0000000
           13          14          15          16          17          18
    1   2.0000000   2.0000000   2.0000000   2.0000000   2.0000000   2.0000000
           19          20          21          22          23          24
    1   2.0000000   2.0000000   2.0000000   2.0000000   1.9999964   1.9999953
           25          26          27          28          29          30
    1   1.9999952   1.9999900   1.9999884   1.9999861   1.9999859   1.9999805
           31          32          33          34          35          36
    1   1.9999766   1.9999720   1.9999708   1.9999508   1.9999422   1.9999321
           37          38          39          40          41          42
    1   1.9998066   1.9996833   1.9996076   1.9995968   1.9993558   1.9991764
           43          44          45          46          47          48
    1   1.9949357   1.9801974   1.9326992   1.6827672   1.3375823   0.6859373
           49          50          51          52          53          54
    1   0.3214814   0.0637418   0.0011739   0.0006980   0.0005423   0.0004391
           55          56          57          58          59          60
    1   0.0002335   0.0002218   0.0001165   0.0000957   0.0000823   0.0000534
           61          62          63          64
    1   0.0000250   0.0000208   0.0000153   0.0000104
  
*** Unpaired Electrons
 Yamaguchi Nd:         3.18
 Head-Gordon Nu:       2.15
 Head-Gordon Nu_nl:    2.21
  
**************************************************
 RAS-CI total energy for state   6:   -571.835701257319
  Excitation energy (eV) =  2.916552004333
  State symmetry: A1    (C2v      )
  <S^2>      :  2.0000
  Dipole Moment:   -0.0000 X    -0.0000 Y     1.5516 Z
  Trans. Moment:   -0.3774 X     0.0000 Y     0.0000 Z
  Strength   :  0.010178
  Natural transition orbitals ( 1 -> 6 ):
   e-/hole pair  1 alpha:  ampl =  0.371305 ( 13.8%)   [11 : 12]
   e-/hole pair  2 alpha:  ampl =  0.121208 (  1.5%)   [10 : 13]
   e-/hole pair  1 beta :  ampl =  0.835686 ( 69.8%)   [11 : 12]
   e-/hole pair  2 beta :  ampl =  0.103499 (  1.1%)   [10 : 13]
   Sum of square amplitudes: 0.87

 NATURAL OCCUPATION NUMBERS (higher than 1.0E-05)
            1           2           3           4           5           6
    1   2.0000000   2.0000000   2.0000000   2.0000000   2.0000000   2.0000000
            7           8           9          10          11          12
    1   2.0000000   2.0000000   2.0000000   2.0000000   2.0000000   2.0000000
           13          14          15          16          17          18
    1   2.0000000   2.0000000   2.0000000   2.0000000   2.0000000   2.0000000
           19          20          21          22          23          24
    1   2.0000000   2.0000000   2.0000000   2.0000000   1.9999989   1.9999976
           25          26          27          28          29          30
    1   1.9999972   1.9999954   1.9999933   1.9999895   1.9999892   1.9999868
           31          32          33          34          35          36
    1   1.9999863   1.9999840   1.9999804   1.9999793   1.9999550   1.9999359
           37          38          39          40          41          42
    1   1.9998591   1.9997565   1.9997454   1.9996818   1.9996792   1.9984552
           43          44          45          46          47          48
    1   1.9973492   1.9819281   1.9663141   1.7321825   1.2533813   0.8019383
           49          50          51          52          53          54
    1   0.1996708   0.0571095   0.0113473   0.0007762   0.0003314   0.0001914
           55          56          57          58          59          60
    1   0.0001901   0.0001836   0.0000404   0.0000288   0.0000204   0.0000177
           61          62
    1   0.0000140   0.0000110

 Head-Gordon Nu:    2.14
 Head-Gordon Nu_nl: 2.16

  Amplitudes : 
  
 | HOLE  | ALPHA       | BETA        | PART  |    AMPLITUDE 
--------------------------------------------------
 |       | 11111001000 | 11110000000 |       |    -3.2787034443306E-01
 |       | 11110110000 | 11110000000 |       |    -1.0943728481713E-01
 |  40   | 11111100000 | 11111000000 |       |     7.8804092772185E-01
 |  42   | 11111100000 | 11111000000 |       |    -2.8511606278202E-01
 |  42   | 11111010000 | 11111000000 |       |     1.2461600449777E-01
 |  41   | 11111001000 | 11111000000 |       |    -2.1689399757257E-01
 |  41   | 11110110000 | 11111000000 |       |    -1.2090882914696E-01
 |       | 11111000000 | 11110000000 |  56   |    -1.6808722275030E-01
--------------------------------------------------
*** Contributions RASCI wfn    Active:  11.96
                                 Hole:  84.98
                                 Part:   3.06

      Mulliken population analysis 
 ---------------------------------------------------
   Atom    Charge (a.u.)   Spin (a.u.)  
 ---------------------------------------------------
   1  C    0.060863        0.140221 
   2  O   -0.499363        0.145836 
   3  C    0.071163        0.181435 
   4  C    0.071163        0.181435 
   5  C    0.157397        0.184602 
   6  C   -0.126834        0.163970 
   7  C   -0.000736        0.168383 
   8  C   -0.283967        0.091515 
   9  C   -0.170602        0.065330 
  10  H    0.160940        0.000400 
  11  H    0.133205        0.000420 
  12  H    0.143309        0.000706 
  13  H    0.135375        0.000209 
  14  C    0.157397        0.184602 
  15  C   -0.126834        0.163970 
  16  C   -0.283967        0.091515 
  17  C   -0.000736        0.168383 
  18  C   -0.170602        0.065330 
  19  H    0.133205        0.000420 
  20  H    0.160940        0.000400 
  21  H    0.143309        0.000706 
  22  H    0.135375        0.000209 
 ---------------------------------------------------
   Sum:    0.000000        2.000000 
 ---------------------------------------------------
 
  
 NATURAL OCCUPATION NUMBERS (higher than 1.0E-05)
            1           2           3           4           5           6
    1   2.0000000   2.0000000   2.0000000   2.0000000   2.0000000   2.0000000
            7           8           9          10          11          12
    1   2.0000000   2.0000000   2.0000000   2.0000000   2.0000000   2.0000000
           13          14          15          16          17          18
    1   2.0000000   2.0000000   2.0000000   2.0000000   2.0000000   2.0000000
           19          20          21          22          23          24
    1   2.0000000   2.0000000   2.0000000   2.0000000   1.9999989   1.9999976
           25          26          27          28          29          30
    1   1.9999972   1.9999954   1.9999933   1.9999895   1.9999892   1.9999868
           31          32          33          34          35          36
    1   1.9999863   1.9999840   1.9999804   1.9999793   1.9999550   1.9999359
           37          38          39          40          41          42
    1   1.9998591   1.9997565   1.9997454   1.9996818   1.9996792   1.9984552
           43          44          45          46          47          48
    1   1.9973492   1.9819281   1.9663141   1.7321825   1.2533813   0.8019383
           49          50          51          52          53          54
    1   0.1996708   0.0571095   0.0113473   0.0007762   0.0003314   0.0001914
           55          56          57          58          59          60
    1   0.0001901   0.0001836   0.0000404   0.0000288   0.0000204   0.0000177
           61          62
    1   0.0000140   0.0000110
  
*** Unpaired Electrons
 Yamaguchi Nd:         2.97
 Head-Gordon Nu:       2.14
 Head-Gordon Nu_nl:    2.16
  
**************************************************
 RAS-CI total energy for state   7:   -571.807541512124
  Excitation energy (eV) =  3.682817657457
  State symmetry: B2    (C2v      )
  <S^2>      :  2.0000
  Dipole Moment:   -0.0000 X     0.0000 Y     0.4462 Z
  Trans. Moment:    0.0000 X     0.0000 Y    -0.0000 Z
  Strength   :  0.000000
  Natural transition orbitals ( 1 -> 7 ):
   e-/hole pair  1 alpha:  ampl =  0.021123 (  0.0%)   [11 : 12]
   e-/hole pair  2 alpha:  ampl =  0.007098 (  0.0%)   [10 : 13]
   e-/hole pair  1 beta :  ampl =  0.960815 ( 92.3%)   [11 : 12]
   e-/hole pair  2 beta :  ampl =  0.053019 (  0.3%)   [10 : 13]
   Sum of square amplitudes: 0.93

 NATURAL OCCUPATION NUMBERS (higher than 1.0E-05)
            1           2           3           4           5           6
    1   2.0000000   2.0000000   2.0000000   2.0000000   2.0000000   2.0000000
            7           8           9          10          11          12
    1   2.0000000   2.0000000   2.0000000   2.0000000   2.0000000   2.0000000
           13          14          15          16          17          18
    1   2.0000000   2.0000000   2.0000000   2.0000000   2.0000000   2.0000000
           19          20          21          22          23          24
    1   2.0000000   2.0000000   2.0000000   2.0000000   1.9999921   1.9999917
           25          26          27          28          29          30
    1   1.9999821   1.9999802   1.9999801   1.9999644   1.9999639   1.9999332
           31          32          33          34          35          36
    1   1.9999115   1.9999089   1.9999073   1.9997998   1.9995194   1.9994863
           37          38          39          40          41          42
    1   1.9994654   1.9993303   1.9992674   1.9988514   1.9975086   1.9960822
           43          44          45          46          47          48
    1   1.9957802   1.9954072   1.9885438   1.9513011   1.0077211   1.0046838
           49          50          51          52          53          54
    1   0.0302574   0.0271655   0.0065065   0.0008414   0.0008047   0.0006292
           55          56          57          58          59          60
    1   0.0003803   0.0003351   0.0001805   0.0001570   0.0001279   0.0001047
           61          62          63          64          65          66
    1   0.0000782   0.0000331   0.0000245   0.0000233   0.0000171   0.0000169
           67          68          69
    1   0.0000131   0.0000111   0.0000111

 Head-Gordon Nu:    2.14
 Head-Gordon Nu_nl: 2.02

  Amplitudes : 
  
 | HOLE  | ALPHA       | BETA        | PART  |    AMPLITUDE 
--------------------------------------------------
 |       | 11111100000 | 11100100000 |       |     9.2158282006076E-01
 |       | 11111100000 | 11100010000 |       |    -1.4505714419600E-01
 |       | 11111010000 | 11100100000 |       |    -1.0241551402407E-01
 |       | 11111000000 | 11100100000 |  59   |     1.0423056411618E-01
 |       | 11111100000 | 11100000000 |  59   |     1.4305788839163E-01
--------------------------------------------------
*** Contributions RASCI wfn    Active:  89.79
                                 Hole:   3.56
                                 Part:   6.65

      Mulliken population analysis 
 ---------------------------------------------------
   Atom    Charge (a.u.)   Spin (a.u.)  
 ---------------------------------------------------
   1  C   -0.243722        0.062591 
   2  O   -0.112317        0.676200 
   3  C    0.208136        0.293450 
   4  C    0.208136        0.293450 
   5  C    0.139778        0.108881 
   6  C   -0.252973       -0.005292 
   7  C   -0.027294        0.145781 
   8  C   -0.290467        0.054905 
   9  C   -0.123263        0.035135 
  10  H    0.132309       -0.002028 
  11  H    0.131405        0.001354 
  12  H    0.134502       -0.000371 
  13  H    0.125886       -0.001211 
  14  C    0.139778        0.108881 
  15  C   -0.252973       -0.005292 
  16  C   -0.290467        0.054905 
  17  C   -0.027294        0.145781 
  18  C   -0.123263        0.035135 
  19  H    0.131405        0.001354 
  20  H    0.132309       -0.002028 
  21  H    0.134502       -0.000371 
  22  H    0.125886       -0.001211 
 ---------------------------------------------------
   Sum:    0.000000        2.000000 
 ---------------------------------------------------
 
  
 NATURAL OCCUPATION NUMBERS (higher than 1.0E-05)
            1           2           3           4           5           6
    1   2.0000000   2.0000000   2.0000000   2.0000000   2.0000000   2.0000000
            7           8           9          10          11          12
    1   2.0000000   2.0000000   2.0000000   2.0000000   2.0000000   2.0000000
           13          14          15          16          17          18
    1   2.0000000   2.0000000   2.0000000   2.0000000   2.0000000   2.0000000
           19          20          21          22          23          24
    1   2.0000000   2.0000000   2.0000000   2.0000000   1.9999921   1.9999917
           25          26          27          28          29          30
    1   1.9999821   1.9999802   1.9999801   1.9999644   1.9999639   1.9999332
           31          32          33          34          35          36
    1   1.9999115   1.9999089   1.9999073   1.9997998   1.9995194   1.9994863
           37          38          39          40          41          42
    1   1.9994654   1.9993303   1.9992674   1.9988514   1.9975086   1.9960822
           43          44          45          46          47          48
    1   1.9957802   1.9954072   1.9885438   1.9513011   1.0077211   1.0046838
           49          50          51          52          53          54
    1   0.0302574   0.0271655   0.0065065   0.0008414   0.0008047   0.0006292
           55          56          57          58          59          60
    1   0.0003803   0.0003351   0.0001805   0.0001570   0.0001279   0.0001047
           61          62          63          64          65          66
    1   0.0000782   0.0000331   0.0000245   0.0000233   0.0000171   0.0000169
           67          68          69
    1   0.0000131   0.0000111   0.0000111
  
*** Unpaired Electrons
 Yamaguchi Nd:         2.29
 Head-Gordon Nu:       2.14
 Head-Gordon Nu_nl:    2.02
  
**************************************************
 RAS-CI total energy for state   8:   -571.801053132682
  Excitation energy (eV) =  3.859375445078
  State symmetry: A1    (C2v      )
  <S^2>      :  2.0000
  Dipole Moment:   -0.0000 X     0.0000 Y     1.3996 Z
  Trans. Moment:    1.3917 X     0.0000 Y    -0.0000 Z
  Strength   :  0.183130
  Natural transition orbitals ( 1 -> 8 ):
   e-/hole pair  1 alpha:  ampl =  0.747748 ( 55.9%)   [11 : 12]
   e-/hole pair  2 alpha:  ampl =  0.326050 ( 10.6%)   [10 : 13]
   e-/hole pair  1 beta :  ampl =  0.402678 ( 16.2%)   [11 : 12]
   e-/hole pair  2 beta :  ampl =  0.090921 (  0.8%)   [10 : 13]
   Sum of square amplitudes: 0.85

 NATURAL OCCUPATION NUMBERS (higher than 1.0E-05)
            1           2           3           4           5           6
    1   2.0000000   2.0000000   2.0000000   2.0000000   2.0000000   2.0000000
            7           8           9          10          11          12
    1   2.0000000   2.0000000   2.0000000   2.0000000   2.0000000   2.0000000
           13          14          15          16          17          18
    1   2.0000000   2.0000000   2.0000000   2.0000000   2.0000000   2.0000000
           19          20          21          22          23          24
    1   2.0000000   2.0000000   2.0000000   2.0000000   1.9999954   1.9999943
           25          26          27          28          29          30
    1   1.9999924   1.9999915   1.9999834   1.9999795   1.9999769   1.9999766
           31          32          33          34          35          36
    1   1.9999658   1.9999643   1.9999547   1.9999361   1.9999178   1.9998728
           37          38          39          40          41          42
    1   1.9995642   1.9994871   1.9994199   1.9988648   1.9988151   1.9984399
           43          44          45          46          47          48
    1   1.9976933   1.9692296   1.9443274   1.7963920   1.1240407   0.6117357
           49          50          51          52          53          54
    1   0.3597180   0.1824431   0.0153909   0.0025079   0.0007864   0.0003093
           55          56          57          58          59          60
    1   0.0002941   0.0002896   0.0002127   0.0001204   0.0001178   0.0000924
           61          62          63          64          65
    1   0.0000580   0.0000419   0.0000235   0.0000229   0.0000168

 Head-Gordon Nu:    2.35
 Head-Gordon Nu_nl: 2.30

  Amplitudes : 
  
 | HOLE  | ALPHA       | BETA        | PART  |    AMPLITUDE 
--------------------------------------------------
 |       | 11111001000 | 11110000000 |       |    -6.5400134949805E-01
 |       | 11110110000 | 11110000000 |       |     3.2113071203133E-01
 |  42   | 11111101000 | 11110000000 |       |    -1.5719414565242E-01
 |  40   | 11111100000 | 11111000000 |       |    -2.9582436032051E-01
 |  42   | 11111100000 | 11111000000 |       |    -2.6251658399755E-01
 |  40   | 11111010000 | 11111000000 |       |    -2.5441304946963E-01
 |  41   | 11111010000 | 11110100000 |       |    -1.2443460921906E-01
 |  41   | 11111001000 | 11111000000 |       |    -1.3086375612162E-01
 |  42   | 11111001000 | 11110100000 |       |     1.1035291327751E-01
 |       | 11111000000 | 11110000000 |  56   |     3.5437935464413E-01
--------------------------------------------------
*** Contributions RASCI wfn    Active:  53.13
                                 Hole:  33.64
                                 Part:  13.23

      Mulliken population analysis 
 ---------------------------------------------------
   Atom    Charge (a.u.)   Spin (a.u.)  
 ---------------------------------------------------
   1  C    0.146829        0.059601 
   2  O   -0.434624        0.061503 
   3  C    0.126196        0.252260 
   4  C    0.126196        0.252260 
   5  C    0.234261        0.131769 
   6  C   -0.293583        0.120919 
   7  C   -0.009829        0.175772 
   8  C   -0.365600        0.140287 
   9  C   -0.114100        0.118577 
  10  H    0.154844       -0.000568 
  11  H    0.133433        0.000703 
  12  H    0.143715        0.000222 
  13  H    0.134560       -0.000492 
  14  C    0.234261        0.131769 
  15  C   -0.293583        0.120919 
  16  C   -0.365600        0.140287 
  17  C   -0.009829        0.175772 
  18  C   -0.114100        0.118577 
  19  H    0.133433        0.000703 
  20  H    0.154844       -0.000568 
  21  H    0.143715        0.000222 
  22  H    0.134560       -0.000492 
 ---------------------------------------------------
   Sum:    0.000000        2.000000 
 ---------------------------------------------------
 
  
 NATURAL OCCUPATION NUMBERS (higher than 1.0E-05)
            1           2           3           4           5           6
    1   2.0000000   2.0000000   2.0000000   2.0000000   2.0000000   2.0000000
            7           8           9          10          11          12
    1   2.0000000   2.0000000   2.0000000   2.0000000   2.0000000   2.0000000
           13          14          15          16          17          18
    1   2.0000000   2.0000000   2.0000000   2.0000000   2.0000000   2.0000000
           19          20          21          22          23          24
    1   2.0000000   2.0000000   2.0000000   2.0000000   1.9999954   1.9999943
           25          26          27          28          29          30
    1   1.9999924   1.9999915   1.9999834   1.9999795   1.9999769   1.9999766
           31          32          33          34          35          36
    1   1.9999658   1.9999643   1.9999547   1.9999361   1.9999178   1.9998728
           37          38          39          40          41          42
    1   1.9995642   1.9994871   1.9994199   1.9988648   1.9988151   1.9984399
           43          44          45          46          47          48
    1   1.9976933   1.9692296   1.9443274   1.7963920   1.1240407   0.6117357
           49          50          51          52          53          54
    1   0.3597180   0.1824431   0.0153909   0.0025079   0.0007864   0.0003093
           55          56          57          58          59          60
    1   0.0002941   0.0002896   0.0002127   0.0001204   0.0001178   0.0000924
           61          62          63          64          65
    1   0.0000580   0.0000419   0.0000235   0.0000229   0.0000168
  
*** Unpaired Electrons
 Yamaguchi Nd:         3.35
 Head-Gordon Nu:       2.35
 Head-Gordon Nu_nl:    2.30
  
**************************************************
 RAS-CI total energy for state   9:   -571.774751698109
  Excitation energy (eV) =  4.575073893399
  State symmetry: B1    (C2v      )
  <S^2>      :  2.0000
  Dipole Moment:    0.0000 X     0.0000 Y     1.9010 Z
  Trans. Moment:    0.0000 X     0.0000 Y    -0.4354 Z
  Strength   :  0.021246
  Natural transition orbitals ( 1 -> 9 ):
   e-/hole pair  1 alpha:  ampl =  0.345884 ( 12.0%)   [11 : 12]
   e-/hole pair  2 alpha:  ampl =  0.260792 (  6.8%)   [10 : 13]
   e-/hole pair  1 beta :  ampl =  0.576929 ( 33.3%)   [11 : 12]
   e-/hole pair  2 beta :  ampl =  0.281266 (  7.9%)   [10 : 13]
   Sum of square amplitudes: 0.62

 NATURAL OCCUPATION NUMBERS (higher than 1.0E-05)
            1           2           3           4           5           6
    1   2.0000000   2.0000000   2.0000000   2.0000000   2.0000000   2.0000000
            7           8           9          10          11          12
    1   2.0000000   2.0000000   2.0000000   2.0000000   2.0000000   2.0000000
           13          14          15          16          17          18
    1   2.0000000   2.0000000   2.0000000   2.0000000   2.0000000   2.0000000
           19          20          21          22          23          24
    1   2.0000000   2.0000000   2.0000000   2.0000000   1.9999966   1.9999962
           25          26          27          28          29          30
    1   1.9999960   1.9999951   1.9999927   1.9999924   1.9999901   1.9999899
           31          32          33          34          35          36
    1   1.9999894   1.9999875   1.9999848   1.9999820   1.9999743   1.9999718
           37          38          39          40          41          42
    1   1.9997602   1.9997347   1.9997141   1.9992007   1.9991564   1.9979954
           43          44          45          46          47          48
    1   1.9737761   1.9448331   1.8038515   1.4892192   1.2265614   0.9899990
           49          50          51          52          53          54
    1   0.3162399   0.2059139   0.0496164   0.0029624   0.0006690   0.0003899
           55          56          57          58          59          60
    1   0.0001670   0.0001374   0.0001074   0.0000489   0.0000314   0.0000211
           61          62
    1   0.0000134   0.0000101

 Head-Gordon Nu:    3.13
 Head-Gordon Nu_nl: 3.05

  Amplitudes : 
  
 | HOLE  | ALPHA       | BETA        | PART  |    AMPLITUDE 
--------------------------------------------------
 |       | 11111010000 | 11110000000 |       |     1.0447576689803E-01
 |       | 11110101000 | 11110000000 |       |     3.3393831393665E-01
 |  42   | 11111110000 | 11110000000 |       |     1.2097930075486E-01
 |  38   | 11111100000 | 11111000000 |       |     2.0272053552543E-01
 |  41   | 11111100000 | 11111000000 |       |    -1.9059775313452E-01
 |  42   | 11111100000 | 11110100000 |       |     5.7365354798885E-01
 |  38   | 11111010000 | 11111000000 |       |    -1.0482519681983E-01
 |  41   | 11111010000 | 11111000000 |       |    -3.8031490493790E-01
 |  39   | 11111001000 | 11111000000 |       |     1.1084446380730E-01
 |  42   | 11111001000 | 11111000000 |       |     3.7155594581403E-01
 |  41   | 11110110000 | 11110100000 |       |     1.0855831738687E-01
 |  42   | 11110101000 | 11110100000 |       |    -1.2477341911430E-01
 |       | 11111000000 | 11110000000 |  59   |     2.2317432716086E-01
--------------------------------------------------
*** Contributions RASCI wfn    Active:  13.36
                                 Hole:  80.81
                                 Part:   5.84

      Mulliken population analysis 
 ---------------------------------------------------
   Atom    Charge (a.u.)   Spin (a.u.)  
 ---------------------------------------------------
   1  C    0.036676        0.062982 
   2  O   -0.457715        0.110994 
   3  C    0.179303        0.228526 
   4  C    0.179303        0.228526 
   5  C    0.132643        0.122902 
   6  C   -0.231916        0.102926 
   7  C   -0.084806        0.086420 
   8  C   -0.310043        0.172797 
   9  C   -0.046248        0.196754 
  10  H    0.160523        0.000039 
  11  H    0.132492        0.000951 
  12  H    0.141689        0.000417 
  13  H    0.136884        0.001281 
  14  C    0.132643        0.122902 
  15  C   -0.231916        0.102926 
  16  C   -0.310043        0.172797 
  17  C   -0.084806        0.086420 
  18  C   -0.046248        0.196754 
  19  H    0.132492        0.000951 
  20  H    0.160523        0.000039 
  21  H    0.141689        0.000417 
  22  H    0.136884        0.001281 
 ---------------------------------------------------
   Sum:    0.000000        2.000000 
 ---------------------------------------------------
 
  
 NATURAL OCCUPATION NUMBERS (higher than 1.0E-05)
            1           2           3           4           5           6
    1   2.0000000   2.0000000   2.0000000   2.0000000   2.0000000   2.0000000
            7           8           9          10          11          12
    1   2.0000000   2.0000000   2.0000000   2.0000000   2.0000000   2.0000000
           13          14          15          16          17          18
    1   2.0000000   2.0000000   2.0000000   2.0000000   2.0000000   2.0000000
           19          20          21          22          23          24
    1   2.0000000   2.0000000   2.0000000   2.0000000   1.9999966   1.9999962
           25          26          27          28          29          30
    1   1.9999960   1.9999951   1.9999927   1.9999924   1.9999901   1.9999899
           31          32          33          34          35          36
    1   1.9999894   1.9999875   1.9999848   1.9999820   1.9999743   1.9999718
           37          38          39          40          41          42
    1   1.9997602   1.9997347   1.9997141   1.9992007   1.9991564   1.9979954
           43          44          45          46          47          48
    1   1.9737761   1.9448331   1.8038515   1.4892192   1.2265614   0.9899990
           49          50          51          52          53          54
    1   0.3162399   0.2059139   0.0496164   0.0029624   0.0006690   0.0003899
           55          56          57          58          59          60
    1   0.0001670   0.0001374   0.0001074   0.0000489   0.0000314   0.0000211
           61          62
    1   0.0000134   0.0000101
  
*** Unpaired Electrons
 Yamaguchi Nd:         4.24
 Head-Gordon Nu:       3.13
 Head-Gordon Nu_nl:    3.05
  
**************************************************
 RAS-CI total energy for state  10:   -571.773561162129
  Excitation energy (eV) =  4.607470025679
  State symmetry: A1    (C2v      )
  <S^2>      :  2.0000
  Dipole Moment:   -0.0000 X     0.0000 Y     1.6124 Z
  Trans. Moment:    0.2257 X    -0.0000 Y     0.0000 Z
  Strength   :  0.005751
  Natural transition orbitals ( 1 -> 10 ):
   e-/hole pair  1 alpha:  ampl =  0.394289 ( 15.5%)   [11 : 12]
   e-/hole pair  2 alpha:  ampl =  0.272792 (  7.4%)   [10 : 13]
   e-/hole pair  1 beta :  ampl =  0.322375 ( 10.4%)   [11 : 12]
   e-/hole pair  2 beta :  ampl =  0.231368 (  5.4%)   [10 : 13]
   Sum of square amplitudes: 0.40

 NATURAL OCCUPATION NUMBERS (higher than 1.0E-05)
            1           2           3           4           5           6
    1   2.0000000   2.0000000   2.0000000   2.0000000   2.0000000   2.0000000
            7           8           9          10          11          12
    1   2.0000000   2.0000000   2.0000000   2.0000000   2.0000000   2.0000000
           13          14          15          16          17          18
    1   2.0000000   2.0000000   2.0000000   2.0000000   2.0000000   2.0000000
           19          20          21          22          23          24
    1   2.0000000   2.0000000   2.0000000   2.0000000   1.9999955   1.9999951
           25          26          27          28          29          30
    1   1.9999940   1.9999923   1.9999907   1.9999903   1.9999902   1.9999886
           31          32          33          34          35          36
    1   1.9999822   1.9999802   1.9999767   1.9999765   1.9999703   1.9999583
           37          38          39          40          41          42
    1   1.9997311   1.9997009   1.9996950   1.9991835   1.9990160   1.9961450
           43          44          45          46          47          48
    1   1.9906478   1.9697468   1.7572281   1.5209052   1.4301979   0.7140662
           49          50          51          52          53          54
    1   0.3799168   0.1766344   0.0643592   0.0015428   0.0005990   0.0002998
           55          56          57          58          59          60
    1   0.0001703   0.0001419   0.0001148   0.0000571   0.0000404   0.0000179
           61
    1   0.0000157

 Head-Gordon Nu:    2.68
 Head-Gordon Nu_nl: 2.72

  Amplitudes : 
  
 | HOLE  | ALPHA       | BETA        | PART  |    AMPLITUDE 
--------------------------------------------------
 |       | 11110110000 | 11110000000 |       |    -3.8365499355876E-01
 |  42   | 11111100000 | 11111000000 |       |    -2.0016358593825E-01
 |  41   | 11111100000 | 11110100000 |       |     3.1409440045469E-01
 |  39   | 11111010000 | 11111000000 |       |    -1.8479390987502E-01
 |  42   | 11111010000 | 11111000000 |       |    -6.2078992404824E-01
 |  38   | 11111001000 | 11111000000 |       |     1.3612744958055E-01
 |  41   | 11111001000 | 11111000000 |       |     3.3783497069738E-01
 |  42   | 11110110000 | 11110100000 |       |     1.2680391264231E-01
 |       | 11111000000 | 11110000000 |  56   |     2.5911339153681E-01
--------------------------------------------------
*** Contributions RASCI wfn    Active:  15.51
                                 Hole:  77.27
                                 Part:   7.22

      Mulliken population analysis 
 ---------------------------------------------------
   Atom    Charge (a.u.)   Spin (a.u.)  
 ---------------------------------------------------
   1  C    0.132723        0.034092 
   2  O   -0.414770        0.049111 
   3  C    0.193334        0.130490 
   4  C    0.193334        0.130490 
   5  C    0.130265        0.097696 
   6  C   -0.283853        0.146426 
   7  C   -0.128043        0.123868 
   8  C   -0.328614        0.245951 
   9  C   -0.013439        0.210423 
  10  H    0.159689        0.000019 
  11  H    0.132822        0.001693 
  12  H    0.140823        0.000643 
  13  H    0.138039        0.001189 
  14  C    0.130265        0.097696 
  15  C   -0.283853        0.146426 
[...]
142 A1  130 B1   61 A2   62 A2  143 A1   71 B2  131 B1  144 A1                 
  4.563   4.568   4.601   4.610   4.637   4.645   4.655   4.666
 63 A2   72 B2  145 A1   64 A2  132 B1   65 A2   73 B2  133 B1                 
  4.696   4.744   4.777   4.790   4.790   4.817   4.839   4.903
134 B1  146 A1  135 B1  147 A1   66 A2  136 B1  148 A1   74 B2                 
  4.938   4.979   5.003   5.003   5.059   5.088   5.107   5.126
149 A1   75 B2  150 A1  137 B1  138 B1  151 A1   67 A2  152 A1                 
  5.132   5.139   5.161   5.183   5.264   5.273   5.317   5.345
 68 A2  139 B1  153 A1  140 B1  154 A1  141 B1  155 A1  142 B1                 
  5.379   5.408   5.436   5.509   5.630   5.635   5.658   5.669
143 B1  156 A1  144 B1  157 A1  158 A1  145 B1  159 A1  146 B1                 
  5.678   5.695   5.766   5.800   5.907   5.930   5.955   6.036
 76 B2  147 B1  148 B1  160 A1  161 A1  149 B1  162 A1  150 B1                 
  6.090   6.127   6.253   6.370   6.654   6.937   6.975   7.158
 69 A2  151 B1  163 A1  152 B1   77 B2   70 A2  164 A1  165 A1                 
  7.310   7.369   7.653   7.736  22.987  23.570  23.588  23.691
153 B1   78 B2  166 A1  154 B1  167 A1  155 B1  168 A1  156 B1                 
 23.718  23.766  23.787  24.020  24.075  24.243  24.500  24.643
169 A1  170 A1  157 B1  171 A1  158 B1  159 B1  172 A1  173 A1                 
 24.737  45.603
160 B1  174 A1                                                                 
 
 Beta MOs, Restricted
 -- Doubly Occupied --           
-20.506 -11.302 -11.271 -11.271 -11.271 -11.270 -11.264 -11.264
  1 A1    2 A1    3 A1    1 B1    4 A1    2 B1    5 A1    3 B1                 
-11.265 -11.265 -11.259 -11.259 -11.249 -11.249  -1.347  -1.214
  4 B1    6 A1    5 B1    7 A1    8 A1    6 B1    9 A1   10 A1                 
 -1.163  -1.101  -1.065  -1.044  -0.996  -0.934  -0.888  -0.832
  7 B1   11 A1   12 A1    8 B1    9 B1   13 A1   14 A1   10 B1                 
 -0.807  -0.782  -0.721  -0.708  -0.676  -0.647  -0.639  -0.623
 11 B1   15 A1   16 A1   12 B1   17 A1   18 A1   13 B1   14 B1                 
 -0.616  -0.608  -0.588  -0.605  -0.551  -0.516  -0.522  -0.430
 19 A1   15 B1   20 A1    1 B2   16 B1    1 A2    2 B2    3 B2                 
 -0.381  -0.392  -0.544  -0.510  -0.505  -0.402
  2 A2    4 B2   21 A1   22 A1   17 B1   18 B1                                 
 -- Singly Occupied (Vacant) --  
 -0.324  -0.228
  3 A2    5 B2                                                                 
 -- Virtual --                   
  0.062   0.091   0.181   0.212   0.216   0.140   0.150   0.141
  6 B2    4 A2   19 B1   20 B1   23 A1   24 A1   21 B1    5 A2                 
  0.162   0.186   0.180   0.200   0.232   0.237   0.258   0.290
 25 A1   26 A1    7 B2   27 A1   22 B1   23 B1   28 A1   29 A1                 
  0.286   0.299   0.309   0.304   0.314   0.320   0.326   0.319
  8 B2   30 A1   24 B1    9 B2   31 A1   25 B1    6 A2    7 A2                 
  0.346   0.347   0.356   0.366   0.368   0.377   0.379   0.391
 32 A1   26 B1   10 B2   33 A1   11 B2   27 B1    8 A2   34 A1                 
  0.411   0.431   0.434   0.437   0.448   0.452   0.449   0.454
 28 B1    9 A2   29 B1   35 A1   12 B2   36 A1   13 B2   37 A1                 
  0.470   0.482   0.495   0.492   0.497   0.509   0.510   0.518
 38 A1   30 B1   39 A1   10 A2   31 B1   40 A1   32 B1   14 B2                 
  0.522   0.528   0.541   0.544   0.557   0.561   0.563   0.577
 11 A2   33 B1   34 B1   41 A1   35 B1   42 A1   15 B2   36 B1                 
  0.584   0.590   0.599   0.610   0.612   0.637   0.642   0.650
 43 A1   44 A1   12 A2   37 B1   45 A1   46 A1   38 B1   47 A1                 
  0.655   0.665   0.674   0.683   0.703   0.707   0.723   0.738
 39 B1   16 B2   40 B1   48 A1   41 B1   42 B1   49 A1   43 B1                 
  0.742   0.760   0.789   0.798   0.803   0.818   0.818   0.833
 17 B2   13 A2   50 A1   44 B1   51 A1   45 B1   52 A1   46 B1                 
  0.835   0.839   0.847   0.852   0.866   0.876   0.898   0.908
 18 B2   53 A1   14 A2   54 A1   47 B1   55 A1   15 A2   48 B1                 
  0.908   0.907   0.927   0.934   0.947   0.963   0.963   0.972
 56 A1   19 B2   49 B1   20 B2   50 B1   51 B1   57 A1   58 A1                 
  0.994   0.994   0.998   0.996   1.037   1.041   1.039   1.049
 59 A1   21 B2   52 B1   16 A2   60 A1   53 B1   22 B2   54 B1                 
  1.068   1.081   1.094   1.104   1.126   1.137   1.160   1.165
 61 A1   17 A2   55 B1   62 A1   56 B1   63 A1   57 B1   64 A1                 
  1.169   1.198   1.206   1.226   1.241   1.265   1.266   1.268
 18 A2   65 A1   23 B2   66 A1   19 A2   58 B1   24 B2   59 B1                 
  1.276   1.328   1.332   1.365   1.366   1.372   1.394   1.398
 67 A1   25 B2   20 A2   68 A1   21 A2   60 B1   69 A1   26 B2                 
  1.401   1.415   1.429   1.446   1.446   1.452   1.460   1.475
 61 B1   70 A1   71 A1   62 B1   27 B2   63 B1   72 A1   64 B1                 
  1.489   1.515   1.546   1.552   1.565   1.571   1.583   1.583
 73 A1   22 A2   65 B1   74 A1   66 B1   23 A2   75 A1   28 B2                 
  1.597   1.613   1.648   1.654   1.657   1.664   1.687   1.700
 67 B1   76 A1   68 B1   77 A1   24 A2   29 B2   69 B1   78 A1                 
  1.733   1.758   1.762   1.776   1.781   1.788   1.794   1.801
 25 A2   30 B2   31 B2   70 B1   26 A2   79 A1   71 B1   80 A1                 
  1.806   1.825   1.830   1.868   1.874   1.892   1.910   1.918
 81 A1   32 B2   72 B1   73 B1   27 A2   33 B2   82 A1   28 A2                 
  1.924   1.950   1.953   1.958   1.975   1.977   1.988   2.004
 83 A1   84 A1   34 B2   74 B1   35 B2   85 A1   29 A2   75 B1                 
  2.015   2.020   2.037   2.064   2.099   2.112   2.131   2.139
 30 A2   76 B1   86 A1   77 B1   36 B2   31 A2   87 A1   37 B2                 
  2.144   2.179   2.187   2.205   2.260   2.260   2.267   2.305
 32 A2   38 B2   33 A2   88 A1   78 B1   39 B2   34 A2   89 A1                 
  2.311   2.318   2.339   2.351   2.382   2.385   2.386   2.390
 35 A2   79 B1   90 A1   80 B1   91 A1   92 A1   81 B1   40 B2                 
  2.418   2.425   2.466   2.467   2.477   2.494   2.513   2.517
 82 B1   93 A1   94 A1   83 B1   95 A1   84 B1   85 B1   96 A1                 
  2.561   2.585   2.605   2.627   2.629   2.631   2.635   2.701
 86 B1   41 B2   97 A1   87 B1   36 A2   42 B2   98 A1   88 B1                 
  2.705   2.730   2.735   2.747   2.749   2.765   2.797   2.841
 99 A1  100 A1   37 A2   89 B1  101 A1   90 B1   43 B2  102 A1                 
  2.852   2.872   2.885   2.895   2.899   2.909   2.913   2.919
 91 B1   92 B1  103 A1   44 B2  104 A1   93 B1  105 A1   94 B1                 
  2.924   2.946   2.953   2.957   2.967   2.993   2.997   3.010
 38 A2  106 A1   39 A2   45 B2   95 B1   46 B2   96 B1   40 A2                 
  3.010   3.015   3.032   3.034   3.041   3.046   3.049   3.077
 47 B2   97 B1  107 A1   41 A2   98 B1  108 A1   48 B2  109 A1                 
  3.088   3.111   3.115   3.126   3.128   3.135   3.169   3.169
 49 B2   99 B1   42 A2  100 B1  110 A1   50 B2  101 B1  111 A1                 
  3.180   3.183   3.199   3.210   3.226   3.234   3.242   3.251
112 A1   43 A2  102 B1   44 A2  113 A1   51 B2  103 B1   52 B2                 
  3.263   3.268   3.295   3.315   3.317   3.322   3.327   3.347
104 B1  114 A1  115 A1   45 A2  116 A1  105 B1   53 B2   46 A2                 
  3.356   3.357   3.372   3.382   3.409   3.417   3.443   3.445
 54 B2   47 A2  117 A1   55 B2  118 A1   56 B2  106 B1  119 A1                 
  3.456   3.463   3.465   3.476   3.484   3.491   3.498   3.501
107 B1   48 A2  120 A1  108 B1   57 B2  121 A1  109 B1   49 A2                 
  3.511   3.542   3.549   3.555   3.572   3.574   3.593   3.604
 50 A2   58 B2  110 B1  122 A1   51 A2  111 B1   59 B2  123 A1                 
  3.607   3.623   3.630   3.662   3.665   3.666   3.678   3.688
112 B1  124 A1   60 B2   52 A2  125 A1  113 B1  114 B1   61 B2                 
  3.691   3.719   3.725   3.731   3.734   3.752   3.753   3.771
126 A1   62 B2   53 A2  115 B1  127 A1  128 A1   63 B2  116 B1                 
  3.793   3.796   3.803   3.833   3.833   3.849   3.862   3.860
129 A1   54 A2  117 B1   64 B2   55 A2  130 A1  118 B1   56 A2                 
  3.868   3.873   3.879   3.887   3.892   3.907   3.908   3.930
131 A1  119 B1  120 B1   57 A2   65 B2  132 A1   58 A2  133 A1                 
  3.947   3.995   3.997   4.012   4.036   4.090   4.111   4.140
121 B1  134 A1  122 B1   66 B2   59 A2  123 B1  135 A1   60 A2                 
  4.149   4.169   4.186   4.210   4.230   4.234   4.251   4.270
 67 B2  124 B1  136 A1  137 A1  125 B1   68 B2  126 B1  138 A1                 
  4.281   4.302   4.344   4.376   4.382   4.394   4.400   4.407
127 B1  139 A1  140 A1   69 B2  141 A1   70 B2  128 B1  129 B1                 
  4.434   4.459   4.458   4.480   4.504   4.526   4.540   4.549
142 A1  130 B1   61 A2   62 A2  143 A1   71 B2  131 B1  144 A1                 
  4.563   4.568   4.601   4.610   4.637   4.645   4.655   4.666
 63 A2   72 B2  145 A1   64 A2  132 B1   65 A2   73 B2  133 B1                 
  4.696   4.744   4.777   4.790   4.790   4.817   4.839   4.903
134 B1  146 A1  135 B1  147 A1   66 A2  136 B1  148 A1   74 B2                 
  4.938   4.979   5.003   5.003   5.059   5.088   5.107   5.126
149 A1   75 B2  150 A1  137 B1  138 B1  151 A1   67 A2  152 A1                 
  5.132   5.139   5.161   5.183   5.264   5.273   5.317   5.345
 68 A2  139 B1  153 A1  140 B1  154 A1  141 B1  155 A1  142 B1                 
  5.379   5.408   5.436   5.509   5.630   5.635   5.658   5.669
143 B1  156 A1  144 B1  157 A1  158 A1  145 B1  159 A1  146 B1                 
  5.678   5.695   5.766   5.800   5.907   5.930   5.955   6.036
 76 B2  147 B1  148 B1  160 A1  161 A1  149 B1  162 A1  150 B1                 
  6.090   6.127   6.253   6.370   6.654   6.937   6.975   7.158
 69 A2  151 B1  163 A1  152 B1   77 B2   70 A2  164 A1  165 A1                 
  7.310   7.369   7.653   7.736  22.987  23.570  23.588  23.691
153 B1   78 B2  166 A1  154 B1  167 A1  155 B1  168 A1  156 B1                 
 23.718  23.766  23.787  24.020  24.075  24.243  24.500  24.643
169 A1  170 A1  157 B1  171 A1  158 B1  159 B1  172 A1  173 A1                 
 24.737  45.603
160 B1  174 A1                                                                 
 --------------------------------------------------------------
 
          Ground-State Mulliken Net Atomic Charges

     Atom                 Charge (a.u.)
  ----------------------------------------
      1 C                     0.048296
      2 O                    -0.522280
      3 C                     0.179457
      4 C                     0.179457
      5 C                     0.163321
      6 C                    -0.246173
      7 C                    -0.039740
      8 C                    -0.300029
      9 C                    -0.093856
     10 H                     0.162416
     11 H                     0.132563
     12 H                     0.142790
     13 H                     0.136243
     14 C                     0.163321
     15 C                    -0.246173
     16 C                    -0.300029
     17 C                    -0.039740
     18 C                    -0.093856
     19 H                     0.132563
     20 H                     0.162416
     21 H                     0.142790
     22 H                     0.136243
  ----------------------------------------
  Sum of atomic charges =     0.000000

  Do orbital-by-orbital Lowdin population analysis
 
 
 Partial Mulliken analysis unavailable for frozen orbitals
 
 -----------------------------------------------------------------
                    Cartesian Multipole Moments
 -----------------------------------------------------------------
    Charge (ESU x 10^10)
                 0.0000
    Dipole Moment (Debye)
         X      -0.0000      Y      -0.0000      Z      -5.5022
       Tot       5.5022
    Quadrupole Moments (Debye-Ang)
        XX     -58.8230     XY      -0.0000     YY     -86.3019
        XZ      -0.0000     YZ       0.0000     ZZ     -87.8825
    Octopole Moments (Debye-Ang^2)
       XXX      -0.0000    XXY      -0.0000    XYY       0.0000
       YYY      -0.0000    XXZ       0.0872    XYZ       0.0000
       YYZ       7.1837    XZZ      -0.0000    YZZ      -0.0000
       ZZZ     -59.8950
    Hexadecapole Moments (Debye-Ang^3)
      XXXX   -1996.0826   XXXY      -0.0000   XXYY    -471.8630
      XYYY      -0.0000   YYYY    -100.4056   XXXZ       0.0000
      XXYZ      -0.0000   XYYZ      -0.0000   YYYZ       0.0000
      XXZZ    -507.0481   XYZZ      -0.0000   YYZZ    -201.2668
      XZZZ      -0.0000   YZZZ       0.0000   ZZZZ   -1116.8750
 -----------------------------------------------------------------
 Mayer SCF Bond Order, atomic valence on the diagonal:

            1           2           3           4           5           6
    1   1.2578620   0.5731216  -0.1842222  -0.0789331   0.0560598   0.0112118
    2   0.5731216   1.9549857  -0.1508639  -0.1508639   0.0092258   0.0569838
    3  -0.1842222  -0.1508639   3.3674822  -0.0840716  -0.0425123   0.0214808
    4  -0.0789331  -0.1508639  -0.0840716   3.3674822   1.1430623   1.2963282
    5   0.0560598   0.0092258  -0.0425123   1.1430623   3.5904600  -0.0595007
    6   0.0112118   0.0569838   0.0214808   1.2963282  -0.0595007   3.9562183
    7  -0.0134861   0.0098473   0.0087921   0.0418027  -0.0172973   1.5954863
    8  -0.0164161   0.0037546   0.0136726  -0.0064907   1.1490834   0.0578263
    9  -0.0014572   0.0048619   0.0181934   0.0052203  -0.0511972   0.0386308
   10   0.0019759   0.0067283   0.0000492   0.0018492   0.0059326   0.9691315
   11  -0.0002318   0.0005756  -0.0000414   0.0070727  -0.0217604   0.0008223
   12  -0.0070913  -0.0000723   0.0001863   0.0052381   0.0006754  -0.0092829
   13   0.0003200   0.0001303   0.0001226   0.0007108   0.0061226   0.0048912
   14  -0.0026179   0.0092258   1.1430623  -0.0425123   1.4009461   0.0112248
   15   0.0183320   0.0569838   1.2963282   0.0214808   0.0112248   0.0016806
   16  -0.0088466   0.0037546  -0.0064907   0.0136726  -0.0450678  -0.0003453
   17  -0.0112860   0.0098473   0.0418027   0.0087921   0.0249352   0.0021677
   18  -0.0006398   0.0048619   0.0052203   0.0181934   0.0310884   0.0020229
   19  -0.0004566   0.0005756   0.0070727  -0.0000414   0.0045777   0.0000815
   20  -0.0067101   0.0067283   0.0018492   0.0000492   0.0006014  -0.0000614
   21   0.0014171  -0.0000723   0.0052381   0.0001863   0.0007583   0.0000767
   22   0.0003209   0.0001303   0.0007108   0.0001226   0.0013927   0.0001929
            7           8           9          10          11          12
    1  -0.0134861  -0.0164161  -0.0014572   0.0019759  -0.0002318  -0.0070913
    2   0.0098473   0.0037546   0.0048619   0.0067283   0.0005756  -0.0000723
    3   0.0087921   0.0136726   0.0181934   0.0000492  -0.0000414   0.0001863
    4   0.0418027  -0.0064907   0.0052203   0.0018492   0.0070727   0.0052381
    5  -0.0172973   1.1490834  -0.0511972   0.0059326  -0.0217604   0.0006754
    6   1.5954863   0.0578263   0.0386308   0.9691315   0.0008223  -0.0092829
    7   3.8259034   0.0598247   1.1165313  -0.0233152   0.0065385   0.9804596
    8   0.0598247   3.9808398   1.7562539   0.0004677   0.9725527   0.0044415
    9   1.1165313   1.7562539   3.9177860   0.0069900   0.0028491  -0.0162440
   10  -0.0233152   0.0004677   0.0069900   0.9718318   0.0000906   0.0000464
   11   0.0065385   0.9725527   0.0028491   0.0000906   0.9765596   0.0005017
   12   0.9804596   0.0044415  -0.0162440   0.0000464   0.0005017   0.9672851
   13  -0.0158989  -0.0059209   0.9791397   0.0004372  -0.0002268  -0.0003611
   14   0.0249352  -0.0450678   0.0310884   0.0006014   0.0045777   0.0007583
   15   0.0021677  -0.0003453   0.0020229  -0.0000614   0.0000815   0.0000767
   16   0.0015364   0.0028857   0.0029544   0.0001222   0.0021166  -0.0000911
   17   0.0054941   0.0015364   0.0079897   0.0000286  -0.0001051   0.0000225
   18   0.0079897   0.0029544   0.0069364   0.0000327   0.0003266   0.0000728
   19  -0.0001051   0.0021166   0.0003266   0.0000042   0.0004071   0.0000225
   20   0.0000286   0.0001222   0.0000327   0.0000055   0.0000042   0.0000001
   21   0.0000225  -0.0000911   0.0000728   0.0000001   0.0000225   0.0000024
   22   0.0000291   0.0000184   0.0000617   0.0000060   0.0000102   0.0000011
           13          14          15          16          17          18
    1   0.0003200  -0.0026179   0.0183320  -0.0088466  -0.0112860  -0.0006398
    2   0.0001303   0.0092258   0.0569838   0.0037546   0.0098473   0.0048619
    3   0.0001226   1.1430623   1.2963282  -0.0064907   0.0418027   0.0052203
    4   0.0007108  -0.0425123   0.0214808   0.0136726   0.0087921   0.0181934
    5   0.0061226   1.4009461   0.0112248  -0.0450678   0.0249352   0.0310884
    6   0.0048912   0.0112248   0.0016806  -0.0003453   0.0021677   0.0020229
    7  -0.0158989   0.0249352   0.0021677   0.0015364   0.0054941   0.0079897
    8  -0.0059209  -0.0450678  -0.0003453   0.0028857   0.0015364   0.0029544
    9   0.9791397   0.0310884   0.0020229   0.0029544   0.0079897   0.0069364
   10   0.0004372   0.0006014  -0.0000614   0.0001222   0.0000286   0.0000327
   11  -0.0002268   0.0045777   0.0000815   0.0021166  -0.0001051   0.0003266
   12  -0.0003611   0.0007583   0.0000767  -0.0000911   0.0000225   0.0000728
   13   0.9709516   0.0013927   0.0001929   0.0000184   0.0000291   0.0000617
   14   0.0013927   3.5904600  -0.0595007   1.1490834  -0.0172973  -0.0511972
   15   0.0001929  -0.0595007   3.9562183   0.0578263   1.5954863   0.0386308
   16   0.0000184   1.1490834   0.0578263   3.9808398   0.0598248   1.7562539
   17   0.0000291  -0.0172973   1.5954863   0.0598248   3.8259034   1.1165313
   18   0.0000617  -0.0511972   0.0386308   1.7562539   1.1165313   3.9177860
   19   0.0000102  -0.0217604   0.0008223   0.9725527   0.0065385   0.0028491
   20   0.0000060   0.0059326   0.9691315   0.0004677  -0.0233152   0.0069900
   21   0.0000011   0.0006754  -0.0092829   0.0044415   0.9804596  -0.0162440
   22   0.0000051   0.0061226   0.0048912  -0.0059209  -0.0158989   0.9791397
           19          20          21          22
    1  -0.0004566  -0.0067101   0.0014171   0.0003209
    2   0.0005756   0.0067283  -0.0000723   0.0001303
    3   0.0070727   0.0018492   0.0052381   0.0007108
    4  -0.0000414   0.0000492   0.0001863   0.0001226
    5   0.0045777   0.0006014   0.0007583   0.0013927
    6   0.0000815  -0.0000614   0.0000767   0.0001929
    7  -0.0001051   0.0000286   0.0000225   0.0000291
    8   0.0021166   0.0001222  -0.0000911   0.0000184
    9   0.0003266   0.0000327   0.0000728   0.0000617
   10   0.0000042   0.0000055   0.0000001   0.0000060
   11   0.0004071   0.0000042   0.0000225   0.0000102
   12   0.0000225   0.0000001   0.0000024   0.0000011
   13   0.0000102   0.0000060   0.0000011   0.0000051
   14  -0.0217604   0.0059326   0.0006754   0.0061226
   15   0.0008223   0.9691315  -0.0092829   0.0048912
   16   0.9725527   0.0004677   0.0044415  -0.0059209
   17   0.0065385  -0.0233152   0.9804596  -0.0158989
   18   0.0028491   0.0069900  -0.0162440   0.9791397
   19   0.9765596   0.0000906   0.0005017  -0.0002268
   20   0.0000906   0.9718318   0.0000464   0.0004372
   21   0.0005017   0.0000464   0.9672851  -0.0003611
   22  -0.0002268   0.0004372  -0.0003611   0.9709516


 Total job time:  183202.55s(wall), 156263.44s(cpu) 
 Wed Nov 29 17:29:32 2023

        *************************************************************
        *                                                           *
        *  Thank you very much for using Q-Chem.  Have a nice day.  *
        *                                                           *
        *************************************************************


