                  Welcome to Q-Chem
     A Quantum Leap Into The Future Of Chemistry


 Q-Chem 6.0 (devel), Q-Chem, Inc., Pleasanton, CA (2022)

 E. Epifanovsky,  A. T. B. Gilbert,  Xintian Feng,  Joonho Lee,  Yuezhi Mao,  
 N. Mardirossian,  P. Pokhilko,  A. White,  M. Wormit,  M. P. Coons,  
 A. L. Dempwolff,  Zhengting Gan,  D. Hait,  P. R. Horn,  L. D. Jacobson,  
 I. Kaliman,  J. Kussmann,  A. W. Lange,  Ka Un Lao,  D. S. Levine,  Jie Liu,  
 S. C. McKenzie,  A. F. Morrison,  K. Nanda,  F. Plasser,  D. R. Rehn,  
 M. L. Vidal,  Zhi-Qiang You,  Ying Zhu,  B. Alam,  B. Albrecht,  
 A. Aldossary,  E. Alguire,  J. H. Andersen,  V. Athavale,  D. Barton,  
 K. Begam,  A. Behn,  N. Bellonzi,  Y. A. Bernard,  E. J. Berquist,  
 H. Burton,  A. Carreras,  K. Carter-Fenk,  Romit Chakraborty,  
 Chandrima Chakravarty,  Junhan Chen,  A. D. Chien,  K. D. Closser,  
 V. Cofer-Shabica,  L. Cunha,  S. Dasgupta,  Jia Deng,  M. de Wergifosse,  
 M. Diedenhofen,  Hainam Do,  S. Ehlert,  Po-Tung Fang,  S. Fatehi,  
 Qingguo Feng,  T. Friedhoff,  B. Ganoe,  J. Gayvert,  Qinghui Ge,  
 G. Gidofalvi,  M. Goldey,  J. Gomes,  C. Gonzalez-Espinoza,  S. Gulania,  
 A. Gunina,  J. A. Gyamfi,  M. W. D. Hanson-Heine,  P. H. P. Harbach,  
 A. W. Hauser,  M. F. Herbst,  M. Hernandez Vera,  M. Hodecker,  
 Z. C. Holden,  S. Houck,  Xunkun Huang,  Kerwin Hui,  B. C. Huynh,  
 K. Ikeda,  M. Ivanov,  Hyunjun Ji,  Zuxin Jin,  Hanjie Jiang,  B. Kaduk,  
 S. Kaehler,  R. Kang,  K. Khistyaev,  Jaehoon Kim,  Yongbin Kim,  
 P. Klunzinger,  Z. Koczor-Benda,  Joong Hoon Koh,  D. Kosenkov,  
 Saikiran Kotaru,  L. Koulias,  T. Kowalczyk,  C. M. Krauter,  K. Kue,  
 A. Kunitsa,  T. Kus,  A. Landau,  K. V. Lawler,  D. Lefrancois,  S. Lehtola,  
 Rain Li,  Shaozhi Li,  Yi-Pei Li,  Jiashu Liang,  M. Liebenthal,  
 Hung-Hsuan Lin,  You-Sheng Lin,  Fenglai Liu,  Kuan-Yu Liu,  
 M. Loipersberger,  A. Luenser,  C. Malbon,  A. Manjanath,  P. Manohar,  
 E. Mansoor,  S. F. Manzer,  Shan-Ping Mao,  A. V. Marenich,  T. Markovich,  
 S. Mason,  F. Matz,  S. A. Maurer,  P. F. McLaughlin,  M. F. S. J. Menger,  
 J.-M. Mewes,  S. A. Mewes,  P. Morgante,  Mohammad Mostafanejad,  
 J. W. Mullinax,  K. J. Oosterbaan,  G. Paran,  V. Parravicini,  
 Alexander C. Paul,  Suranjan K. Paul,  F. Pavosevic,  Zheng Pei,  S. Prager,  
 E. I. Proynov,  E. Ramos,  B. Rana,  A. E. Rask,  A. Rettig,  R. M. Richard,  
 F. Rob,  E. Rossomme,  T. Scheele,  M. Scheurer,  M. Schneider,  
 P. E. Schneider,  N. Sergueev,  S. M. Sharada,  Hengyuan Shen,  
 W. Skomorowski,  D. W. Small,  C. J. Stein,  Yingli Su,  Yu-Chuan Su,  
 E. J. Sundstrom,  Zhen Tao,  J. Thirman,  Hung-Yi Tsai,  T. Tsuchimochi,  
 N. M. Tubman,  C. Utku,  S. P. Veccham,  O. Vydrov,  J. Wenzel,  
 Jonathan Wong,  J. Witte,  A. Yamada,  Chou-Hsun Yang,  Kun Yao,  
 S. Yeganeh,  S. R. Yost,  A. Zech,  F. Zeller,  Igor Ying Zhang,  
 Xing Zhang,  Yu Zhang,  D. Zuev,  A. Aspuru-Guzik,  A. T. Bell,  
 N. A. Besley,  K. B. Bravaya,  B. R. Brooks,  D. Casanova,  Jeng-Da Chai,  
 Hsing-Ta Chen,  S. Coriani,  C. J. Cramer,  A. E. DePrince, III,  
 R. A. DiStasio Jr.,  A. Dreuw,  B. D. Dunietz,  T. R. Furlani,  
 W. A. Goddard III,  S. Grimme,  S. Hammes-Schiffer,  T. Head-Gordon,  
 W. J. Hehre,  Chao-Ping Hsu,  T.-C. Jagau,  Yousung Jung,  A. Klamt,  
 Jing Kong,  D. S. Lambrecht,  Xiangyuan Li,  WanZhen Liang,  N. J. Mayhall,  
 C. W. McCurdy,  J. B. Neaton,  T. Neudecker,  C. Ochsenfeld,  
 J. A. Parkhill,  R. Peverati,  V. A. Rassolov,  Haisheng Ren,  Yihan Shao,  
 L. V. Slipchenko,  R. P. Steele,  J. E. Subotnik,  A. J. W. Thom,  
 A. Tkatchenko,  D. G. Truhlar,  T. Van Voorhis,  Fan Wang,  
 T. A. Wesolowski,  K. B. Whaley,  H. L. Woodcock III,  P. M. Zimmerman,  
 S. Faraji,  P. M. W. Gill,  M. Head-Gordon,  J. M. Herbert,  A. I. Krylov

 Contributors to earlier versions of Q-Chem not listed above: 
 R. D. Adamson,  B. Austin,  R. Baer,  J. Baker,  G. J. O. Beran,  
 K. Brandhorst,  S. T. Brown,  E. F. C. Byrd,  Arup K. Chakraborty,  
 G. K. L. Chan,  Chun-Min Chang,  Yunqing Chen,  C.-L. Cheng,  
 Siu Hung Chien,  D. M. Chipman,  D. L. Crittenden,  H. Dachsel,  
 R. J. Doerksen,  A. D. Dutoi,  R. G. Edgar,  J. Fosso-Tande,  
 L. Fusti-Molnar,  D. Ghosh,  A. Ghysels,  A. Golubeva-Zadorozhnaya,  
 J. Gonthier,  M. S. Gordon,  S. R. Gwaltney,  G. Hawkins,  J. E. Herr,  
 A. Heyden,  S. Hirata,  E. G. Hohenstein,  G. Kedziora,  F. J. Keil,  
 C. Kelley,  Jihan Kim,  R. A. King,  R. Z. Khaliullin,  P. P. Korambath,  
 W. Kurlancheek,  A. Laurent,  A. M. Lee,  M. S. Lee,  S. V. Levchenko,  
 Ching Yeh Lin,  D. Liotard,  E. Livshits,  R. C. Lochan,  I. Lotan,  
 L. A. Martinez-Martinez,  P. E. Maslen,  N. Nair,  D. P. O'Neill,  
 D. Neuhauser,  E. Neuscamman,  C. M. Oana,  R. Olivares-Amaya,  R. Olson,  
 T. M. Perrine,  B. Peters,  P. A. Pieniazek,  A. Prociuk,  Y. M. Rhee,  
 J. Ritchie,  M. A. Rohrdanz,  E. Rosta,  N. J. Russ,  H. F. Schaefer III,  
 M. W. Schmidt,  N. E. Schultz,  S. Sharma,  N. Shenvi,  C. D. Sherrill,  
 A. C. Simmonett,  A. Sodt,  T. Stein,  D. Stuck,  K. S. Thanthiriwatte,  
 V. Vanovschi,  L. Vogt,  Tao Wang,  A. Warshel,  M. A. Watson,  
 C. F. Williams,  Q. Wu,  X. Xu,  Jun Yang,  W. Zhang,  Yan Zhao

   Please cite Q-Chem as follows:
  "Software for the frontiers of quantum chemistry:
   An overview of developments in the Q-Chem 5 package"
   J. Chem. Phys. 155, 084801 (2021)
   https://doi.org/10.1063/5.0055522 (open access)

 Q-Chem 6.0.1 for Intel X86 EM64T Linux

 Parts of Q-Chem use Armadillo 9.900.5 (Nocturnal Misbehaviour).
 http://arma.sourceforge.net/

 Q-Chem begins on Fri Sep 22 17:31:39 2023  

 Host: atlas-114
0

     Scratch files written to ./qchem28387//
 Processing $rem in /scratch/abel/SOFTWARE/qchem/config/preferences:
 Processing $rem in /dipc/acebg/.qchemrc:

 Checking the input file for inconsistencies... 	...done.

--------------------------------------------------------------
User input:
--------------------------------------------------------------
$comment
 RAS-SF CALCULATION
$end

$molecule
 READ fluorenone.molecule
$end

$rem
!**CALCULATION TYPE***     
JOBTYPE            sp    
EXCHANGE           HF
CORRELATION        RASCI    !RASCI=Casanova; RASCI2=Zimmerman
BASIS              def2-TZVP
BASIS2             STO-3G

!***SCF REFERENCE***
INPUT_BOHR          TRUE
!SKIP_SCFMAN        FALSE
UNRESTRICTED       FALSE
!SCF_GUESS          core
!SCF_GUESS_MIX      FALSE
!SCF_GUESS_ALWAYS   FALSE
MAX_SCF_CYCLES     999
!SCF_CONVERGENCE    8
SCF_ALGORITHM      DIIS_GDM !DIIS,DM,DIIS_DM,GDM,DIIS_GDM,GD

!SYMMETRY           TRUE   !use of symmetry for calculating integrals
!SYM_IGNORE         FALSE  !turn off using symmetry
!SYM_TOL            5      !tolerance for determining point group
!USE_ABELIAN_SUBGROUP      !define to use abelian group

!THRESH             14
SCF_FINAL_PRINT     1 !0,1,2,3

!****RAS-SF****
RAS_ROOTS          30       !number of RAS-CI roots to be computed
SET_ITER           150     !number of iterations in RASCI
RAS_ELEC           8       !number of electrons in RAS2
RAS_ELEC_ALPHA     5       !spin-α electrons in RAS2 
RAS_ELEC_BETA      3       !spin-β electrons in RAS2

RAS_ACT            8       !number of orbitals in RAS2 
RAS_ACT_ORB  [44,45,46,47,48,49,50,53]  !user-selected RAS2 orbitals
RAS_OCC            43       !number of orbitals in RAS1
N_FROZEN_CORE      20     !Number of frozen core orbitals
N_FROZEN_VIRTUAL   410    !Number of frozen virtual orbitals

RAS_DO_HOLE        TRUE   !presence of hole excitations in RAS-CI wave function
RAS_DO_PART        TRUE   !presence of particle excitations
!RAS_AMPL_PRINT     10     !threshold (×10 2 ) for the CI amplitudes

!RAS_GUESS_CS       0      !number of closed shell guess conﬁgurations
!RAS_SPIN_MULT      0      !spin multiplicity. Only for Ms = 0 
!RAS_SRDFT          FALSE  !short-range density functional RAS-CI
!RAS_NFRAG          0     !fragments of excitation analysis in RASCI

RAS_PRINT          2      !level of information
RAS_NATORB         TRUE   !computation of the natural orbital occupancies
!RAS_NATORB_STATE  0      !Saves NO of i RAS computed state in .fchk ﬁle
!RAS_FOD            TRUE

!****RAS-SOC****
CALC_SOC           TRUE   !calculate SOC for EOM-CC, RAS-CI, ADC, TDDFT/TDA and TDDFT
!RAS_SOC_2E        TRUE   !two-electron mean-ﬁeld contribution, default=true
RAS_SOC_SYM_DENS   TRUE   !averaging of α and β densities

!****MEMORY****
MEM_TOTAL          70000 !Default 2000 MB
MEM_STATIC         15000  !Default 64 MB

!**Molecular Properties and Analysis **                                                                                          
POP_MULLIKEN       TRUE   !Run Mulliken population analysis
LOWDIN_POPULATION  TRUE   !Run Löwdin population analysis
GUI                2       !Checkpoints generation
STATE_ANALYSIS     TRUE

!**Wave function analysis of RAS-CI states: MOLDEN**
!PLOTS = 0     ! Note: This can be omitted, default is 0
!NTO_PAIRS = 2 ! Note: This can be omitted, default is 2
!GUI 0
!MOLDEN_FORMAT      TRUE
!PRINT_ORBITALS     15

!**Wave function analysis of RAS-CI state: CUBE**
!NTO_PAIRS = 2 ! Note: This can be omitted, default is 2
!PLOTS = 1
!GUI 0

!**SR-DFT**
!RAS_SRDFT           TRUE !Perform short-range density functional RAS-CI
!RAS_SRDFT_EXC       0 !EX functional. 0=HF. 
!RAS_SRDFT_ONLY_COR  TRUE !No use of EXC functional
!RAS_SRDFT_COR       srPBE !short-range correlation functional
!ras_srdft_0         TRUE !true: no iteration (one-shot); false: iteration
!RAS_OMEGA           400 !Coulomb range-separation parameter. def=400
!RAS_SRDFT_DAMP     0.5 !dumping factor. def=0.5
$end

!$plots
!   grid_points 100 100 100
!   grid_range  (-10,10) (-10,10) (-10,10)
!$end

--------------------------------------------------------------
 ----------------------------------------------------------------
             Standard Nuclear Orientation (Bohr)
    I     Atom           X                Y                Z
 ----------------------------------------------------------------
    1      C      -0.0000000000    -0.0000000000     3.0318066276
    2      O      -0.0000000000    -0.0000000000     5.3638644743
    3      C      -2.1864624130    -0.0000000000     1.3211263669
    4      C       2.1864624130     0.0000000000     1.3211263669
    5      C       1.3222785792     0.0000000000    -1.3152461482
    6      C       4.7555386627     0.0000000000     1.8776505802
    7      C       6.4695983050     0.0000000000    -0.0972082822
    8      C       3.1392439890     0.0000000000    -3.3016694193
    9      C       5.6496513315     0.0000000000    -2.6924387954
   10      H       5.3730975132     0.0000000000     3.8295121100
   11      H       2.5395104465     0.0000000000    -5.2593503586
   12      H       8.4790954600     0.0000000000     0.2945733557
   13      H       7.0667355415     0.0000000000    -4.1688986988
   14      C      -1.3222785792    -0.0000000000    -1.3152461482
   15      C      -4.7555386627    -0.0000000000     1.8776505802
   16      C      -3.1392439890    -0.0000000000    -3.3016694193
   17      C      -6.4695983050    -0.0000000000    -0.0972082822
   18      C      -5.6496513315    -0.0000000000    -2.6924387954
   19      H      -2.5395104465    -0.0000000000    -5.2593503586
   20      H      -5.3730975132    -0.0000000000     3.8295121100
   21      H      -8.4790954600    -0.0000000000     0.2945733557
   22      H      -7.0667355415    -0.0000000000    -4.1688986988
 ----------------------------------------------------------------
 Molecular Point Group                 C2v   NOp =  4
 Largest Abelian Subgroup              C2v   NOp =  4
 Nuclear Repulsion Energy =         775.12034816 hartrees
 There are       48 alpha and       46 beta electrons
 Requested basis set is def2-TZVP
 There are 186 shells and 482 basis functions

 Q-Chem warning in module libmdc/get_mega.C, line 167:

 Allowed MEM_STATIC has been capped at MEM_STATIC=8191.
 Reduce the value of MEM_STATIC to silence this warning.


 Total QAlloc Memory Limit  70000 MB
 Mega-Array Size      8007 MB
 MEM_STATIC part      8191 MB

 A cutoff of  1.0D-09 yielded  13341 shell pairs
 There are     89641 function pairs (    116642 Cartesian)
 Smallest overlap matrix eigenvalue = 7.88E-06

 Q-Chem warning in module stvman/mkSTV.C, line 313:

 Overlap eigenvalue is smaller than square root of threshold
 Use THRESH >= 12 to get rid of this warning


 Scale SEOQF with 1.000000e-01/1.000000e+00/1.000000e-01

 Standard Electronic Orientation quadrupole field applied
 Nucleus-field energy     =    -0.0000000045 hartrees
 Requested basis set is STO-3G
 There are 36 shells and 78 basis functions
 A cutoff of  1.0D-09 yielded    508 shell pairs
 There are      2824 function pairs
 Smallest overlap matrix eigenvalue = 1.76E-01
 Constructing guess Fock matrix from core Hamiltonian
 Applying Wolfsberg-Helmholtz approximation
 A restricted Hartree-Fock SCF calculation will be
 performed using Geometric Direct Minimization
 SCF converges when RMS gradient is below 1.0E-04
 ---------------------------------------
  Cycle       Energy        RMS Gradient
 ---------------------------------------
    1    -562.9071884020      5.40E-01 Descent step
    2    -563.4687844878      3.98E-01 Descent step
    3    -563.9065938671      2.32E-01 Descent step
    4    -564.2366040034      1.45E-01 Descent step
    5    -564.4695535386      8.16E-02 Descent step
    6    -564.6116778141      5.24E-02 Dog-leg BFGS step
    7    -564.6679870182      2.32E-02 Normal BFGS step
    8    -564.6702340444      9.19E-03 Normal BFGS step
    9    -564.6705084635      3.00E-03 Normal BFGS step
   10    -564.6705718159      1.54E-03 Normal BFGS step
   11    -564.6705774858      5.91E-04 Normal BFGS step
   12    -564.6705785197      2.39E-04 Normal BFGS step
   13    -564.6705787715      1.08E-04 Normal BFGS step
   14    -564.6705788166      3.43E-05 Convergence criterion met
 ---------------------------------------
 One-Electron    Energy = -2309.3889407721
 Total Coulomb   Energy =  1048.2627072027
 Alpha Exchange  Energy =   -39.9845107568
 Beta  Exchange  Energy =   -38.6801826422
 DFT   Exchange  Energy =     0.0000000000
 DFT Correlation Energy =     0.0000000000
 Nuclear Repu.   Energy =   775.1203481517
 Nuclear Attr.   Energy = -2869.0559405023
 Kinetic         Energy =   559.6669997302
 SCF time:  CPU 1.98 s  wall 2.65 s
 SCF   energy in the small basis set = -564.67057882
 Total energy in the small basis set = -564.67057882
 ----------------------------------------------------
  Cycle       Energy    
 ----------------------------------------------------
    1     -70.8912839774     -7.09E+01
 A restricted Hartree-Fock SCF calculation will be
 performed using Geometric Direct Minimization
 SCF converges when RMS gradient is below 1.0E-05
 ---------------------------------------
  Cycle       Energy        RMS Gradient
 ---------------------------------------
    1    -571.6538726055      3.32E-01 Descent step
    2    -571.8116593413      9.92E-02 Descent step
    3    -571.9032318624      4.53E-02 Normal BFGS step
    4    -571.9223098008      2.25E-02 Normal BFGS step
    5    -571.9247201919      1.27E-02 Normal BFGS step
    6    -571.9252359201      8.63E-03 Normal BFGS step
    7    -571.9255113145      4.10E-03 Normal BFGS step
    8    -571.9255879012      1.83E-03 Normal BFGS step
    9    -571.9256014489      1.28E-03 Normal BFGS step
   10    -571.9256069452      4.08E-04 Normal BFGS step
   11    -571.9256078801      1.77E-04 Normal BFGS step
   12    -571.9256081325      4.46E-05 Normal BFGS step
   13    -571.9256076297      7.19E-06 Convergence criterion met
 ---------------------------------------
 One-Electron    Energy = -2313.5360403654
 Total Coulomb   Energy =  1045.0564390602
 Alpha Exchange  Energy =   -39.7460934076
 Beta  Exchange  Energy =   -38.8202610687
 DFT   Exchange  Energy =     0.0000000000
 DFT Correlation Energy =     0.0000000000
 Nuclear Repu.   Energy =   775.1203481517
 Nuclear Attr.   Energy = -2884.7512949044
 Kinetic         Energy =   571.2152545390
 SCF time:  CPU 1178.02 s  wall 1184.98 s
 SCF   energy in the final basis set = -571.92560763
 Total energy in the final basis set = -571.92560763
  
     ##========================================##
     ||                                        ||
     ||              R A S M A N 2             ||
     ||________________________________________||
     ||                                        ||
     ||  Author:                               ||
     ||                                        ||
     ||        David Casanova (2010)           ||
     ||                                        ||
     ##========================================##
  
Setting single-point xc-functionals (if necessary)

  ***************************************************
  *  RAS-CI Dimensions:                             *
  *                                                 *
  *  Active Elec.:   8 ( 5, 3)   Active Orb.:   8   *
  *  Doubly Occ. :  43           Doubly Vir.: 431   *
  *  Frozen Occ. :  20           Frozen Vir.: 410   *
  *                                                 *
  *  Total CI configurations:    244608             * 
  *    Active configurations:      3136             * 
  *      Hole configurations:    126224             * 
  *  Particle configurations:    115248             * 
  *                                                 *
  *   Requested states:       30                    *
  *  Spin multiplicity: Any multiplicity            *
  *                                                 *
  ***************************************************
-----------------------------------------
    Memory requirements of RASCI

 Each CI-vector requires      1.87 MiB 
 Max. subspace vectors           4500      

 Reduced Lists                0.00 MiB 
 Excitation Lists             0.00 MiB 
 Excitation Lists Sign        0.00 MiB 
 CI-space (Max)            8608.47 MiB 
 Integrals                  231.64 MiB 
 Memory required (Max)     8608.48 MiB 
 Memory available          7811.55 MiB 

 Q-Chem warning in module rasman2/ras_mem_check.C, line 162:

 Static memory may be insufficient to store the subspace vectors


    Disk requirements of RASCI

 Fock matrix                  3.54 MiB 
 2-electron integrals         2.77 MiB 
 CI-space                 16795.90 MiB 
 Disk required            16802.22 MiB 
-----------------------------------------
  
RAS1 HF-like energy:           -563.8594066359
 Computing integrals
 Computing J and K matrices
 Computing addressing
 Making amplitude guesses
 
Direct CI diagonalization
 ---------------------------------------------------
 Iter    Rts Conv    Rts Left    Ttl Dev     Max Dev
 ---------------------------------------------------
   1         0          30      0.012900    0.000540
   2         0          30      0.006824    0.000319
   3         0          30      0.004628    0.000232
   4         0          30      0.004055    0.000506
   5         0          30      0.004042    0.000342
   6         0          30      0.003619    0.000252
   7         0          30      0.003576    0.000305
   8         0          30      0.002968    0.000231
   9         0          30      0.002614    0.000192
  10         0          30      0.002122    0.000192
  11         1          29      0.001747    0.000144
  12         1          29      0.001317    0.000122
  13         2          28      0.000986    0.000106
  14         5          25      0.000734    0.000083
  15         5          25      0.000553    0.000061
  16         7          23      0.000407    0.000058
  17         8          22      0.000291    0.000049
  18        10          20      0.000206    0.000038
  19        12          18      0.000202    0.000072
  20        16          14      0.000148    0.000057
  21        16          14      0.000107    0.000042
  22        19          11      0.000078    0.000031
  23        22           8      0.000055    0.000021
  24        23           7      0.000040    0.000015
  25        25           5      0.000031    0.000010
  26        25           5      0.000025    0.000007
  27        27           3      0.000021    0.000005
  28        27           3      0.000019    0.000004
  29        27           3      0.000017    0.000004
  30        28           2      0.000016    0.000003
  31        28           2      0.000015    0.000003
  32        29           1      0.000015    0.000004
  33        29           1      0.000017    0.000005
  34        28           2      0.000098    0.000079
  35        28           2      0.000117    0.000083
  36        28           2      0.000111    0.000080
  37        28           2      0.000088    0.000070
  38        29           1      0.000072    0.000057
  39        29           1      0.000060    0.000047
  40        28           2      0.000051    0.000039
  41        29           1      0.000044    0.000032
  42        29           1      0.000040    0.000028
  43        29           1      0.000035    0.000023
  44        29           1      0.000030    0.000019
  45        29           1      0.000027    0.000016
  46        29           1      0.000025    0.000014
  47        29           1      0.000023    0.000012
  48        29           1      0.000022    0.000011
  49        29           1      0.000020    0.000009
  50        29           1      0.000018    0.000007
  51        29           1      0.000016    0.000005
  52        29           1      0.000014    0.000003
  53        29           1      0.000013    0.000002
  54        29           1      0.000012    0.000002
  55        29           1      0.000012    0.000001
  56        29           1      0.000012    0.000001
  57        30           0      0.000011    0.000001    Roots Converged
 ---------------------------------------------------
   
**************************************************
 RAS-CI total energy for state   1:   -571.995267020016
  Excitation energy (eV) =  0.000000000000
  State symmetry: B1    (C2v      )
  <S^2>      :  2.0000
  Dipole Moment:    0.0000 X     0.0000 Y     2.0844 Z
 NATURAL OCCUPATION NUMBERS (higher than 1.0E-05)
            1           2           3           4           5           6
    1   2.0000000   2.0000000   2.0000000   2.0000000   2.0000000   2.0000000
            7           8           9          10          11          12
    1   2.0000000   2.0000000   2.0000000   2.0000000   2.0000000   2.0000000
           13          14          15          16          17          18
    1   2.0000000   2.0000000   2.0000000   2.0000000   2.0000000   2.0000000
           19          20          21          22          23          24
    1   2.0000000   2.0000000   2.0000000   2.0000000   2.0000000   2.0000000
           25          26          27          28          29          30
    1   2.0000000   2.0000000   2.0000000   2.0000000   2.0000000   2.0000000
           31          32          33          34          35          36
    1   2.0000000   2.0000000   2.0000000   2.0000000   2.0000000   2.0000000
           37          38          39          40          41          42
    1   2.0000000   2.0000000   2.0000000   2.0000000   1.9980288   1.9937591
           43          44          45          46          47          48
    1   1.9887118   1.9522436   1.9470903   1.9328171   1.0245735   0.9764549
           49          50          51          52          53          54
    1   0.0648103   0.0600708   0.0412514   0.0116027   0.0041454   0.0031763
           55          56
    1   0.0007094   0.0005548
Natural Orbitals stored in FCHK

  Amplitudes : 
  
 | HOLE  | ALPHA    | BETA     | PART  |    AMPLITUDE 
--------------------------------------------------
 |       | 11111000 | 11100000 |       |     9.2891385986631E-01
 |       | 11110010 | 11010000 |       |    -1.0205813393212E-01
--------------------------------------------------
*** Contributions RASCI wfn    Active:  95.45
                                 Hole:   2.33
                                 Part:   2.22

      Mulliken population analysis 
 ---------------------------------------------------
   Atom    Charge (a.u.)   Spin (a.u.)  
 ---------------------------------------------------
   1  C    0.056631        0.138379 
   2  O   -0.513990        0.154399 
   3  C    0.165849        0.330998 
   4  C    0.165849        0.330998 
   5  C    0.169169        0.222833 
   6  C   -0.232013       -0.078868 
   7  C   -0.055100        0.262268 
   8  C   -0.308515        0.025532 
   9  C   -0.084285        0.088932 
  10  H    0.162401       -0.000426 
  11  H    0.132424        0.000165 
  12  H    0.142550        0.001598 
  13  H    0.136199        0.000579 
  14  C    0.169169        0.222833 
  15  C   -0.232013       -0.078868 
  16  C   -0.308515        0.025532 
  17  C   -0.055100        0.262268 
  18  C   -0.084285        0.088932 
  19  H    0.132424        0.000165 
  20  H    0.162401       -0.000426 
  21  H    0.142550        0.001598 
  22  H    0.136199        0.000579 
 ---------------------------------------------------
   Sum:    0.000000        2.000000 
 ---------------------------------------------------
 
  
 NATURAL OCCUPATION NUMBERS (higher than 1.0E-05)
            1           2           3           4           5           6
    1   2.0000000   2.0000000   2.0000000   2.0000000   2.0000000   2.0000000
            7           8           9          10          11          12
    1   2.0000000   2.0000000   2.0000000   2.0000000   2.0000000   2.0000000
           13          14          15          16          17          18
    1   2.0000000   2.0000000   2.0000000   2.0000000   2.0000000   2.0000000
           19          20          21          22          23          24
    1   2.0000000   2.0000000   2.0000000   2.0000000   2.0000000   2.0000000
           25          26          27          28          29          30
    1   2.0000000   2.0000000   2.0000000   2.0000000   2.0000000   2.0000000
           31          32          33          34          35          36
    1   2.0000000   2.0000000   2.0000000   2.0000000   2.0000000   2.0000000
           37          38          39          40          41          42
    1   2.0000000   2.0000000   2.0000000   2.0000000   1.9980288   1.9937591
           43          44          45          46          47          48
    1   1.9887118   1.9522436   1.9470903   1.9328171   1.0245735   0.9764549
           49          50          51          52          53          54
    1   0.0648103   0.0600708   0.0412514   0.0116027   0.0041454   0.0031763
           55          56
    1   0.0007094   0.0005548
  
*** Unpaired Electrons
 Yamaguchi Nd:         2.73
 Head-Gordon Nu:       2.33
 Head-Gordon Nu_nl:    2.07
  
**************************************************
 RAS-CI total energy for state   2:   -571.927937882130
  Excitation energy (eV) =  1.832119057182
  State symmetry: B1    (C2v      )
  <S^2>      :  2.0000
  Dipole Moment:   -0.0000 X    -0.0000 Y     1.8140 Z
  Trans. Moment:    0.0000 X    -0.0000 Y    -0.2183 Z
  Strength   :  0.002140
  Natural transition orbitals ( 1 -> 2 ):
   e-/hole pair  1 alpha:  ampl =  0.660041 ( 43.6%)   [8 : 9]
   e-/hole pair  2 alpha:  ampl =  0.108604 (  1.2%)   [7 : 10]
   e-/hole pair  1 beta :  ampl =  0.564081 ( 31.8%)   [8 : 9]
   e-/hole pair  2 beta :  ampl =  0.122904 (  1.5%)   [7 : 10]
   Sum of square amplitudes: 0.80

 NATURAL OCCUPATION NUMBERS (higher than 1.0E-05)
            1           2           3           4           5           6
    1   2.0000000   2.0000000   2.0000000   2.0000000   2.0000000   2.0000000
            7           8           9          10          11          12
    1   2.0000000   2.0000000   2.0000000   2.0000000   2.0000000   2.0000000
           13          14          15          16          17          18
    1   2.0000000   2.0000000   2.0000000   2.0000000   2.0000000   2.0000000
           19          20          21          22          23          24
    1   2.0000000   2.0000000   2.0000000   2.0000000   2.0000000   2.0000000
           25          26          27          28          29          30
    1   2.0000000   2.0000000   2.0000000   2.0000000   2.0000000   2.0000000
           31          32          33          34          35          36
    1   2.0000000   2.0000000   2.0000000   2.0000000   2.0000000   2.0000000
           37          38          39          40          41          42
    1   2.0000000   2.0000000   2.0000000   2.0000000   1.9970312   1.9887529
           43          44          45          46          47          48
    1   1.9793517   1.9301672   1.8992620   1.5877023   1.3915545   0.5866846
           49          50          51          52          53          54
    1   0.4638055   0.0858159   0.0640212   0.0146905   0.0056700   0.0038090
           55          56
    1   0.0009344   0.0007470
Natural Orbitals stored in FCHK

  Amplitudes : 
  
 | HOLE  | ALPHA    | BETA     | PART  |    AMPLITUDE 
--------------------------------------------------
 |       | 11111000 | 10110000 |       |     5.5385917251575E-01
 |       | 11110100 | 11100000 |       |     6.3564864646822E-01
 |       | 11110100 | 11001000 |       |    -1.4272787389783E-01
 |       | 11110010 | 11010000 |       |     1.3379952188852E-01
 |       | 11110001 | 01110000 |       |    -1.3008821703375E-01
 |       | 11011100 | 11100000 |       |     1.5391905551035E-01
--------------------------------------------------
*** Contributions RASCI wfn    Active:  93.16
                                 Hole:   4.06
                                 Part:   2.78

      Mulliken population analysis 
 ---------------------------------------------------
   Atom    Charge (a.u.)   Spin (a.u.)  
 ---------------------------------------------------
   1  C    0.099405        0.076063 
   2  O   -0.481498        0.059440 
   3  C    0.154563        0.160239 
   4  C    0.154563        0.160239 
   5  C    0.174240        0.127854 
   6  C   -0.231493        0.181917 
   7  C   -0.089749        0.180473 
   8  C   -0.333118        0.197646 
   9  C   -0.055711        0.079637 
  10  H    0.162016        0.001240 
  11  H    0.131836        0.001434 
  12  H    0.142139        0.001270 
  13  H    0.136322        0.000538 
  14  C    0.174240        0.127854 
  15  C   -0.231493        0.181917 
  16  C   -0.333118        0.197646 
  17  C   -0.089749        0.180473 
  18  C   -0.055711        0.079637 
  19  H    0.131836        0.001434 
  20  H    0.162016        0.001240 
  21  H    0.142139        0.001270 
  22  H    0.136322        0.000538 
 ---------------------------------------------------
   Sum:    0.000000        2.000000 
 ---------------------------------------------------
 
  
 NATURAL OCCUPATION NUMBERS (higher than 1.0E-05)
            1           2           3           4           5           6
    1   2.0000000   2.0000000   2.0000000   2.0000000   2.0000000   2.0000000
            7           8           9          10          11          12
    1   2.0000000   2.0000000   2.0000000   2.0000000   2.0000000   2.0000000
           13          14          15          16          17          18
    1   2.0000000   2.0000000   2.0000000   2.0000000   2.0000000   2.0000000
           19          20          21          22          23          24
    1   2.0000000   2.0000000   2.0000000   2.0000000   2.0000000   2.0000000
           25          26          27          28          29          30
    1   2.0000000   2.0000000   2.0000000   2.0000000   2.0000000   2.0000000
           31          32          33          34          35          36
    1   2.0000000   2.0000000   2.0000000   2.0000000   2.0000000   2.0000000
           37          38          39          40          41          42
    1   2.0000000   2.0000000   2.0000000   2.0000000   1.9970312   1.9887529
           43          44          45          46          47          48
    1   1.9793517   1.9301672   1.8992620   1.5877023   1.3915545   0.5866846
           49          50          51          52          53          54
    1   0.4638055   0.0858159   0.0640212   0.0146905   0.0056700   0.0038090
           55          56
    1   0.0009344   0.0007470
  
*** Unpaired Electrons
 Yamaguchi Nd:         3.78
 Head-Gordon Nu:       2.45
 Head-Gordon Nu_nl:    2.44
  
**************************************************
 RAS-CI total energy for state   3:   -571.927670526560
  Excitation energy (eV) =  1.839394172383
  State symmetry: A1    (C2v      )
  <S^2>      :  2.0000
  Dipole Moment:    0.0000 X    -0.0000 Y     1.8669 Z
  Trans. Moment:   -0.3496 X    -0.0000 Y    -0.0000 Z
  Strength   :  0.005507
  Natural transition orbitals ( 1 -> 3 ):
   e-/hole pair  1 alpha:  ampl =  0.398279 ( 15.9%)   [8 : 9]
   e-/hole pair  2 alpha:  ampl =  0.112728 (  1.3%)   [7 : 10]
   e-/hole pair  1 beta :  ampl =  0.781871 ( 61.1%)   [8 : 9]
   e-/hole pair  2 beta :  ampl =  0.100421 (  1.0%)   [7 : 10]
   Sum of square amplitudes: 0.81

 NATURAL OCCUPATION NUMBERS (higher than 1.0E-05)
            1           2           3           4           5           6
    1   2.0000000   2.0000000   2.0000000   2.0000000   2.0000000   2.0000000
            7           8           9          10          11          12
    1   2.0000000   2.0000000   2.0000000   2.0000000   2.0000000   2.0000000
           13          14          15          16          17          18
    1   2.0000000   2.0000000   2.0000000   2.0000000   2.0000000   2.0000000
           19          20          21          22          23          24
    1   2.0000000   2.0000000   2.0000000   2.0000000   2.0000000   2.0000000
           25          26          27          28          29          30
    1   2.0000000   2.0000000   2.0000000   2.0000000   2.0000000   2.0000000
           31          32          33          34          35          36
    1   2.0000000   2.0000000   2.0000000   2.0000000   2.0000000   2.0000000
           37          38          39          40          41          42
    1   2.0000000   2.0000000   2.0000000   2.0000000   1.9977994   1.9885252
           43          44          45          46          47          48
    1   1.9864322   1.9503471   1.9284656   1.7079881   1.2415234   0.7939566
           49          50          51          52          53          54
    1   0.2596546   0.0787751   0.0435061   0.0130260   0.0048852   0.0036282
           55          56
    1   0.0008044   0.0006828
Natural Orbitals stored in FCHK

  Amplitudes : 
  
 | HOLE  | ALPHA    | BETA     | PART  |    AMPLITUDE 
--------------------------------------------------
 |       | 11111000 | 11010000 |       |     7.7514480720151E-01
 |       | 11111000 | 11000010 |       |     1.1639251332453E-01
 |       | 11111000 | 01110000 |       |     1.2403109446126E-01
 |       | 11110100 | 11010000 |       |    -1.2897530580169E-01
 |       | 11110010 | 11100000 |       |    -3.7977475761821E-01
 |       | 11110010 | 11001000 |       |     1.0377629741690E-01
 |       | 11110010 | 10110000 |       |     1.4376983532175E-01
 |       | 11101010 | 11010000 |       |    -1.1397255747484E-01
 |       | 11011010 | 11100000 |       |    -1.0135634156720E-01
--------------------------------------------------
*** Contributions RASCI wfn    Active:  93.34
                                 Hole:   3.76
                                 Part:   2.90

      Mulliken population analysis 
 ---------------------------------------------------
   Atom    Charge (a.u.)   Spin (a.u.)  
 ---------------------------------------------------
   1  C    0.038675        0.145053 
   2  O   -0.434504        0.241554 
   3  C    0.156622        0.260487 
   4  C    0.156622        0.260487 
   5  C    0.157912        0.139926 
   6  C   -0.226446        0.047579 
   7  C   -0.102544        0.048451 
   8  C   -0.308636        0.039649 
   9  C   -0.052127        0.268053 
  10  H    0.162360        0.000325 
  11  H    0.132431        0.000179 
  12  H    0.142311        0.000304 
  13  H    0.136033        0.001743 
  14  C    0.157912        0.139926 
  15  C   -0.226446        0.047579 
  16  C   -0.308636        0.039649 
  17  C   -0.102544        0.048451 
  18  C   -0.052127        0.268053 
  19  H    0.132431        0.000179 
  20  H    0.162360        0.000325 
  21  H    0.142311        0.000304 
  22  H    0.136033        0.001743 
 ---------------------------------------------------
   Sum:    0.000000        2.000000 
 ---------------------------------------------------
 
  
 NATURAL OCCUPATION NUMBERS (higher than 1.0E-05)
            1           2           3           4           5           6
    1   2.0000000   2.0000000   2.0000000   2.0000000   2.0000000   2.0000000
            7           8           9          10          11          12
    1   2.0000000   2.0000000   2.0000000   2.0000000   2.0000000   2.0000000
           13          14          15          16          17          18
    1   2.0000000   2.0000000   2.0000000   2.0000000   2.0000000   2.0000000
           19          20          21          22          23          24
    1   2.0000000   2.0000000   2.0000000   2.0000000   2.0000000   2.0000000
           25          26          27          28          29          30
    1   2.0000000   2.0000000   2.0000000   2.0000000   2.0000000   2.0000000
           31          32          33          34          35          36
    1   2.0000000   2.0000000   2.0000000   2.0000000   2.0000000   2.0000000
           37          38          39          40          41          42
    1   2.0000000   2.0000000   2.0000000   2.0000000   1.9977994   1.9885252
           43          44          45          46          47          48
    1   1.9864322   1.9503471   1.9284656   1.7079881   1.2415234   0.7939566
           49          50          51          52          53          54
    1   0.2596546   0.0787751   0.0435061   0.0130260   0.0048852   0.0036282
           55          56
    1   0.0008044   0.0006828
  
*** Unpaired Electrons
 Yamaguchi Nd:         3.42
 Head-Gordon Nu:       2.40
 Head-Gordon Nu_nl:    2.32
  
**************************************************
 RAS-CI total energy for state   4:   -571.907208611422
  Excitation energy (eV) =  2.396191212236
  State symmetry: B1    (C2v      )
  <S^2>      :  2.0000
  Dipole Moment:    0.0000 X     0.0000 Y     2.0584 Z
  Trans. Moment:    0.0000 X    -0.0000 Y     0.4323 Z
  Strength   :  0.010972
  Natural transition orbitals ( 1 -> 4 ):
   e-/hole pair  1 alpha:  ampl =  0.485685 ( 23.6%)   [8 : 9]
   e-/hole pair  2 alpha:  ampl =  0.046148 (  0.2%)   [7 : 10]
   e-/hole pair  1 beta :  ampl =  0.568061 ( 32.3%)   [8 : 9]
   e-/hole pair  2 beta :  ampl =  0.090798 (  0.8%)   [7 : 10]
   Sum of square amplitudes: 0.58

 NATURAL OCCUPATION NUMBERS (higher than 1.0E-05)
            1           2           3           4           5           6
    1   2.0000000   2.0000000   2.0000000   2.0000000   2.0000000   2.0000000
            7           8           9          10          11          12
    1   2.0000000   2.0000000   2.0000000   2.0000000   2.0000000   2.0000000
           13          14          15          16          17          18
    1   2.0000000   2.0000000   2.0000000   2.0000000   2.0000000   2.0000000
           19          20          21          22          23          24
    1   2.0000000   2.0000000   2.0000000   2.0000000   2.0000000   2.0000000
           25          26          27          28          29          30
    1   2.0000000   2.0000000   2.0000000   2.0000000   2.0000000   2.0000000
           31          32          33          34          35          36
    1   2.0000000   2.0000000   2.0000000   2.0000000   2.0000000   2.0000000
           37          38          39          40          41          42
    1   2.0000000   2.0000000   2.0000000   2.0000000   1.9973835   1.9920402
           43          44          45          46          47          48
    1   1.9865407   1.9398383   1.8534590   1.7994941   1.2234319   0.7918653
           49          50          51          52          53          54
    1   0.2174823   0.1316694   0.0451861   0.0142349   0.0034259   0.0025656
           55          56
    1   0.0007283   0.0006545
Natural Orbitals stored in FCHK

  Amplitudes : 
  
 | HOLE  | ALPHA    | BETA     | PART  |    AMPLITUDE 
--------------------------------------------------
 |       | 11111000 | 10110000 |       |     5.8340013024447E-01
 |       | 11110100 | 11100000 |       |    -4.6007787818259E-01
 |       | 11110100 | 10110000 |       |    -4.0533413498775E-01
 |       | 11110010 | 11010000 |       |     1.8971641913478E-01
 |       | 11110010 | 01110000 |       |    -1.3942445621036E-01
 |       | 11110001 | 01110000 |       |     1.3673929716588E-01
--------------------------------------------------
*** Contributions RASCI wfn    Active:  93.91
                                 Hole:   3.31
                                 Part:   2.79

      Mulliken population analysis 
 ---------------------------------------------------
   Atom    Charge (a.u.)   Spin (a.u.)  
 ---------------------------------------------------
   1  C    0.065524        0.110026 
   2  O   -0.491633        0.090717 
   3  C    0.123273        0.079992 
   4  C    0.123273        0.079992 
   5  C    0.182552        0.046037 
   6  C   -0.221347        0.284591 
   7  C   -0.043416        0.123992 
   8  C   -0.280300        0.248636 
   9  C   -0.120235        0.111337 
  10  H    0.161965        0.001851 
  11  H    0.132211        0.001588 
  12  H    0.142588        0.000744 
  13  H    0.135763        0.000859 
  14  C    0.182552        0.046037 
  15  C   -0.221347        0.284591 
  16  C   -0.280300        0.248636 
  17  C   -0.043416        0.123992 
  18  C   -0.120235        0.111337 
  19  H    0.132211        0.001588 
  20  H    0.161965        0.001851 
  21  H    0.142588        0.000744 
  22  H    0.135763        0.000859 
 ---------------------------------------------------
   Sum:    0.000000        2.000000 
 ---------------------------------------------------
 
  
 NATURAL OCCUPATION NUMBERS (higher than 1.0E-05)
            1           2           3           4           5           6
    1   2.0000000   2.0000000   2.0000000   2.0000000   2.0000000   2.0000000
            7           8           9          10          11          12
    1   2.0000000   2.0000000   2.0000000   2.0000000   2.0000000   2.0000000
           13          14          15          16          17          18
    1   2.0000000   2.0000000   2.0000000   2.0000000   2.0000000   2.0000000
           19          20          21          22          23          24
    1   2.0000000   2.0000000   2.0000000   2.0000000   2.0000000   2.0000000
           25          26          27          28          29          30
    1   2.0000000   2.0000000   2.0000000   2.0000000   2.0000000   2.0000000
           31          32          33          34          35          36
    1   2.0000000   2.0000000   2.0000000   2.0000000   2.0000000   2.0000000
           37          38          39          40          41          42
    1   2.0000000   2.0000000   2.0000000   2.0000000   1.9973835   1.9920402
           43          44          45          46          47          48
    1   1.9865407   1.9398383   1.8534590   1.7994941   1.2234319   0.7918653
           49          50          51          52          53          54
    1   0.2174823   0.1316694   0.0451861   0.0142349   0.0034259   0.0025656
           55          56
    1   0.0007283   0.0006545
  
*** Unpaired Electrons
 Yamaguchi Nd:         3.47
 Head-Gordon Nu:       2.42
 Head-Gordon Nu_nl:    2.26
  
**************************************************
 RAS-CI total energy for state   5:   -571.904396918300
  Excitation energy (eV) =  2.472701274808
  State symmetry: A1    (C2v      )
  <S^2>      :  2.0000
  Dipole Moment:    0.0000 X     0.0000 Y     1.7495 Z
  Trans. Moment:   -0.3750 X     0.0000 Y     0.0000 Z
  Strength   :  0.008520
  Natural transition orbitals ( 1 -> 5 ):
   e-/hole pair  1 alpha:  ampl =  0.405023 ( 16.4%)   [8 : 9]
   e-/hole pair  2 alpha:  ampl =  0.159486 (  2.5%)   [7 : 10]
   e-/hole pair  1 beta :  ampl =  0.756372 ( 57.2%)   [8 : 9]
   e-/hole pair  2 beta :  ampl =  0.122889 (  1.5%)   [7 : 10]
   Sum of square amplitudes: 0.80

 NATURAL OCCUPATION NUMBERS (higher than 1.0E-05)
            1           2           3           4           5           6
    1   2.0000000   2.0000000   2.0000000   2.0000000   2.0000000   2.0000000
            7           8           9          10          11          12
    1   2.0000000   2.0000000   2.0000000   2.0000000   2.0000000   2.0000000
           13          14          15          16          17          18
    1   2.0000000   2.0000000   2.0000000   2.0000000   2.0000000   2.0000000
           19          20          21          22          23          24
    1   2.0000000   2.0000000   2.0000000   2.0000000   2.0000000   2.0000000
           25          26          27          28          29          30
    1   2.0000000   2.0000000   2.0000000   2.0000000   2.0000000   2.0000000
           31          32          33          34          35          36
    1   2.0000000   2.0000000   2.0000000   2.0000000   2.0000000   2.0000000
           37          38          39          40          41          42
    1   2.0000000   2.0000000   2.0000000   2.0000000   1.9978109   1.9865925
           43          44          45          46          47          48
    1   1.9857433   1.9193998   1.9087220   1.6540264   1.3168490   0.7609023
           49          50          51          52          53          54
    1   0.2507094   0.1298235   0.0654982   0.0127319   0.0062590   0.0033617
           55          56
    1   0.0008724   0.0006978
Natural Orbitals stored in FCHK

  Amplitudes : 
  
 | HOLE  | ALPHA    | BETA     | PART  |    AMPLITUDE 
--------------------------------------------------
 |       | 11111000 | 11010000 |       |    -1.8657542891933E-01
 |       | 11111000 | 01110000 |       |     7.2781751230558E-01
 |       | 11110100 | 11010000 |       |     1.3637482066707E-01
 |       | 11110010 | 11100000 |       |    -2.1668760950451E-01
 |       | 11110010 | 10110000 |       |    -1.7536928404722E-01
 |       | 11110001 | 11100000 |       |    -3.1972095789311E-01
 |       | 11101100 | 11100000 |       |    -1.3708352472631E-01
 |       | 11101100 | 10110000 |       |    -1.0114419079210E-01
--------------------------------------------------
*** Contributions RASCI wfn    Active:  91.63
                                 Hole:   4.98
                                 Part:   3.39

      Mulliken population analysis 
 ---------------------------------------------------
   Atom    Charge (a.u.)   Spin (a.u.)  
 ---------------------------------------------------
   1  C    0.080897        0.103258 
   2  O   -0.498367        0.116385 
   3  C    0.097733        0.126663 
   4  C    0.097733        0.126663 
   5  C    0.176714        0.236143 
   6  C   -0.157559        0.161030 
   7  C   -0.070651        0.230312 
   8  C   -0.296870        0.062095 
   9  C   -0.113650        0.070643 
  10  H    0.162586        0.000865 
  11  H    0.132499        0.000323 
  12  H    0.142084        0.001465 
  13  H    0.135849        0.000640 
  14  C    0.176714        0.236143 
  15  C   -0.157559        0.161030 
  16  C   -0.296870        0.062095 
  17  C   -0.070651        0.230312 
  18  C   -0.113650        0.070643 
  19  H    0.132499        0.000323 
  20  H    0.162586        0.000865 
  21  H    0.142084        0.001465 
  22  H    0.135849        0.000640 
 ---------------------------------------------------
   Sum:    0.000000        2.000000 
 ---------------------------------------------------
 
  
 NATURAL OCCUPATION NUMBERS (higher than 1.0E-05)
            1           2           3           4           5           6
    1   2.0000000   2.0000000   2.0000000   2.0000000   2.0000000   2.0000000
            7           8           9          10          11          12
    1   2.0000000   2.0000000   2.0000000   2.0000000   2.0000000   2.0000000
           13          14          15          16          17          18
    1   2.0000000   2.0000000   2.0000000   2.0000000   2.0000000   2.0000000
           19          20          21          22          23          24
    1   2.0000000   2.0000000   2.0000000   2.0000000   2.0000000   2.0000000
           25          26          27          28          29          30
    1   2.0000000   2.0000000   2.0000000   2.0000000   2.0000000   2.0000000
           31          32          33          34          35          36
    1   2.0000000   2.0000000   2.0000000   2.0000000   2.0000000   2.0000000
           37          38          39          40          41          42
    1   2.0000000   2.0000000   2.0000000   2.0000000   1.9978109   1.9865925
           43          44          45          46          47          48
    1   1.9857433   1.9193998   1.9087220   1.6540264   1.3168490   0.7609023
           49          50          51          52          53          54
    1   0.2507094   0.1298235   0.0654982   0.0127319   0.0062590   0.0033617
           55          56
    1   0.0008724   0.0006978
  
*** Unpaired Electrons
 Yamaguchi Nd:         3.66
 Head-Gordon Nu:       2.46
 Head-Gordon Nu_nl:    2.35
  
**************************************************
 RAS-CI total energy for state   6:   -571.876466215617
  Excitation energy (eV) =  3.232734364075
  State symmetry: A1    (C2v      )
  <S^2>      :  2.0000
  Dipole Moment:    0.0000 X     0.0000 Y     1.4384 Z
  Trans. Moment:   -0.2697 X     0.0000 Y     0.0000 Z
  Strength   :  0.005759
  Natural transition orbitals ( 1 -> 6 ):
   e-/hole pair  1 alpha:  ampl =  0.515001 ( 26.5%)   [8 : 9]
   e-/hole pair  2 alpha:  ampl =  0.185601 (  3.4%)   [7 : 10]
   e-/hole pair  1 beta :  ampl =  0.116564 (  1.4%)   [8 : 9]
   e-/hole pair  2 beta :  ampl =  0.086846 (  0.8%)   [7 : 10]
   Sum of square amplitudes: 0.33

 NATURAL OCCUPATION NUMBERS (higher than 1.0E-05)
            1           2           3           4           5           6
    1   2.0000000   2.0000000   2.0000000   2.0000000   2.0000000   2.0000000
            7           8           9          10          11          12
    1   2.0000000   2.0000000   2.0000000   2.0000000   2.0000000   2.0000000
           13          14          15          16          17          18
    1   2.0000000   2.0000000   2.0000000   2.0000000   2.0000000   2.0000000
           19          20          21          22          23          24
    1   2.0000000   2.0000000   2.0000000   2.0000000   2.0000000   2.0000000
           25          26          27          28          29          30
    1   2.0000000   2.0000000   2.0000000   2.0000000   2.0000000   2.0000000
           31          32          33          34          35          36
    1   2.0000000   2.0000000   2.0000000   2.0000000   2.0000000   2.0000000
           37          38          39          40          41          42
    1   2.0000000   2.0000000   2.0000000   2.0000000   1.9955067   1.9852681
           43          44          45          46          47          48
    1   1.9838950   1.9368235   1.8756514   1.5470091   1.4070670   0.5121517
           49          50          51          52          53          54
    1   0.5079543   0.1713194   0.0532882   0.0110536   0.0075796   0.0040090
           55          56
    1   0.0007511   0.0006720
Natural Orbitals stored in FCHK

  Amplitudes : 
  
 | HOLE  | ALPHA    | BETA     | PART  |    AMPLITUDE 
--------------------------------------------------
 |       | 11110100 | 11010000 |       |    -3.3704394572374E-01
 |       | 11110100 | 01110000 |       |     4.7836279701772E-01
 |       | 11110010 | 11100000 |       |     3.8304551185780E-01
 |       | 11110010 | 10110000 |       |     2.5408453483558E-01
 |       | 11110001 | 11100000 |       |    -3.1641111555313E-01
 |       | 11110001 | 10110000 |       |    -3.0752911922840E-01
 |       | 11101100 | 11100000 |       |    -1.7764439260778E-01
--------------------------------------------------
*** Contributions RASCI wfn    Active:  92.20
                                 Hole:   4.95
                                 Part:   2.85

      Mulliken population analysis 
 ---------------------------------------------------
   Atom    Charge (a.u.)   Spin (a.u.)  
 ---------------------------------------------------
   1  C    0.153997        0.027763 
   2  O   -0.440668        0.025862 
   3  C    0.104581        0.085320 
   4  C    0.104581        0.085320 
   5  C    0.203517        0.093758 
   6  C   -0.242607        0.293713 
   7  C   -0.056908        0.196420 
   8  C   -0.339249        0.276645 
   9  C   -0.097298        0.021310 
  10  H    0.161429        0.002258 
  11  H    0.131434        0.002224 
  12  H    0.142400        0.001260 
  13  H    0.136038        0.000279 
  14  C    0.203517        0.093758 
  15  C   -0.242607        0.293713 
  16  C   -0.339249        0.276645 
  17  C   -0.056908        0.196420 
  18  C   -0.097298        0.021310 
  19  H    0.131434        0.002224 
  20  H    0.161429        0.002258 
  21  H    0.142400        0.001260 
  22  H    0.136038        0.000279 
 ---------------------------------------------------
   Sum:    0.000000        2.000000 
 ---------------------------------------------------
 
  
 NATURAL OCCUPATION NUMBERS (higher than 1.0E-05)
            1           2           3           4           5           6
    1   2.0000000   2.0000000   2.0000000   2.0000000   2.0000000   2.0000000
            7           8           9          10          11          12
    1   2.0000000   2.0000000   2.0000000   2.0000000   2.0000000   2.0000000
           13          14          15          16          17          18
    1   2.0000000   2.0000000   2.0000000   2.0000000   2.0000000   2.0000000
           19          20          21          22          23          24
    1   2.0000000   2.0000000   2.0000000   2.0000000   2.0000000   2.0000000
           25          26          27          28          29          30
    1   2.0000000   2.0000000   2.0000000   2.0000000   2.0000000   2.0000000
           31          32          33          34          35          36
    1   2.0000000   2.0000000   2.0000000   2.0000000   2.0000000   2.0000000
           37          38          39          40          41          42
    1   2.0000000   2.0000000   2.0000000   2.0000000   1.9955067   1.9852681
           43          44          45          46          47          48
    1   1.9838950   1.9368235   1.8756514   1.5470091   1.4070670   0.5121517
           49          50          51          52          53          54
    1   0.5079543   0.1713194   0.0532882   0.0110536   0.0075796   0.0040090
           55          56
    1   0.0007511   0.0006720
  
*** Unpaired Electrons
 Yamaguchi Nd:         3.95
 Head-Gordon Nu:       2.54
 Head-Gordon Nu_nl:    2.52
  
**************************************************
 RAS-CI total energy for state   7:   -571.870919254600
  Excitation energy (eV) =  3.383674852964
  State symmetry: A2    (C2v      )
  <S^2>      :  2.0000
  Dipole Moment:   -0.0000 X    -0.0000 Y     0.0115 Z
  Trans. Moment:    0.0000 X     0.0425 Y     0.0000 Z
  Strength   :  0.000150
  Natural transition orbitals ( 1 -> 7 ):
   e-/hole pair  1 alpha:  ampl =  0.010533 (  0.0%)   [8 : 9]
   e-/hole pair  2 alpha:  ampl =  0.007585 (  0.0%)   [7 : 10]
   e-/hole pair  1 beta :  ampl =  0.852755 ( 72.7%)   [8 : 9]
   e-/hole pair  2 beta :  ampl =  0.037452 (  0.1%)   [7 : 10]
   Sum of square amplitudes: 0.73

 NATURAL OCCUPATION NUMBERS (higher than 1.0E-05)
            1           2           3           4           5           6
    1   2.0000000   2.0000000   2.0000000   2.0000000   2.0000000   2.0000000
            7           8           9          10          11          12
    1   2.0000000   2.0000000   2.0000000   2.0000000   2.0000000   2.0000000
           13          14          15          16          17          18
    1   2.0000000   2.0000000   2.0000000   2.0000000   2.0000000   2.0000000
           19          20          21          22          23          24
    1   2.0000000   2.0000000   2.0000000   2.0000000   2.0000000   1.9999991
           25          26          27          28          29          30
    1   1.9999988   1.9999976   1.9999960   1.9999944   1.9999934   1.9999933
           31          32          33          34          35          36
    1   1.9999913   1.9999886   1.9999694   1.9999504   1.9999291   1.9998916
           37          38          39          40          41          42
    1   1.9994718   1.9991180   1.9986102   1.9972001   1.9924583   1.9913471
           43          44          45          46          47          48
    1   1.9752502   1.9680801   1.9617417   1.9395898   1.0222099   1.0126562
           49          50          51          52          53
    1   0.0586461   0.0498600   0.0339583   0.0000828   0.0000152
Natural Orbitals stored in FCHK

  Amplitudes : 
  
 | HOLE  | ALPHA    | BETA     | PART  |    AMPLITUDE 
--------------------------------------------------
 |  43   | 11111000 | 11110000 |       |     8.5578250945439E-01
 |  43   | 11111000 | 11011000 |       |     3.2543323473332E-01
 |  43   | 11110100 | 11110000 |       |    -1.7338328874440E-01
--------------------------------------------------
*** Contributions RASCI wfn    Active:   0.00
                                 Hole:  99.99
                                 Part:   0.01

      Mulliken population analysis 
 ---------------------------------------------------
   Atom    Charge (a.u.)   Spin (a.u.)  
 ---------------------------------------------------
   1  C    0.132771        0.285494 
   2  O   -0.135351        0.566053 
   3  C    0.050147        0.188348 
   4  C    0.050147        0.188348 
   5  C    0.133543        0.128438 
   6  C   -0.240633        0.107579 
   7  C   -0.140934        0.007295 
   8  C   -0.310793        0.008022 
   9  C   -0.070577        0.125688 
  10  H    0.165053        0.003438 
  11  H    0.135288        0.002769 
  12  H    0.143441        0.001285 
  13  H    0.136755        0.001364 
  14  C    0.133543        0.128438 
  15  C   -0.240633        0.107579 
  16  C   -0.310793        0.008022 
  17  C   -0.140934        0.007295 
  18  C   -0.070577        0.125688 
  19  H    0.135288        0.002769 
  20  H    0.165053        0.003438 
  21  H    0.143441        0.001285 
  22  H    0.136755        0.001364 
 ---------------------------------------------------
   Sum:    0.000000        2.000000 
 ---------------------------------------------------
 
  
 NATURAL OCCUPATION NUMBERS (higher than 1.0E-05)
            1           2           3           4           5           6
    1   2.0000000   2.0000000   2.0000000   2.0000000   2.0000000   2.0000000
            7           8           9          10          11          12
    1   2.0000000   2.0000000   2.0000000   2.0000000   2.0000000   2.0000000
           13          14          15          16          17          18
    1   2.0000000   2.0000000   2.0000000   2.0000000   2.0000000   2.0000000
           19          20          21          22          23          24
    1   2.0000000   2.0000000   2.0000000   2.0000000   2.0000000   1.9999991
           25          26          27          28          29          30
    1   1.9999988   1.9999976   1.9999960   1.9999944   1.9999934   1.9999933
           31          32          33          34          35          36
    1   1.9999913   1.9999886   1.9999694   1.9999504   1.9999291   1.9998916
           37          38          39          40          41          42
    1   1.9994718   1.9991180   1.9986102   1.9972001   1.9924583   1.9913471
           43          44          45          46          47          48
    1   1.9752502   1.9680801   1.9617417   1.9395898   1.0222099   1.0126562
           49          50          51          52          53
    1   0.0586461   0.0498600   0.0339583   0.0000828   0.0000152
  
*** Unpaired Electrons
 Yamaguchi Nd:         2.63
 Head-Gordon Nu:       2.29
 Head-Gordon Nu_nl:    2.05
  
**************************************************
 RAS-CI total energy for state   8:   -571.866146957721
  Excitation energy (eV) =  3.513535658144
  State symmetry: B1    (C2v      )
  <S^2>      :  2.0000
  Dipole Moment:    0.0000 X     0.0000 Y     1.5665 Z
  Trans. Moment:   -0.0000 X    -0.0000 Y    -0.3177 Z
  Strength   :  0.008689
  Natural transition orbitals ( 1 -> 8 ):
   e-/hole pair  1 alpha:  ampl =  0.352747 ( 12.4%)   [8 : 9]
   e-/hole pair  2 alpha:  ampl =  0.100842 (  1.0%)   [7 : 10]
   e-/hole pair  1 beta :  ampl =  0.366452 ( 13.4%)   [8 : 9]
   e-/hole pair  2 beta :  ampl =  0.085025 (  0.7%)   [7 : 10]
   Sum of square amplitudes: 0.29

 NATURAL OCCUPATION NUMBERS (higher than 1.0E-05)
            1           2           3           4           5           6
    1   2.0000000   2.0000000   2.0000000   2.0000000   2.0000000   2.0000000
            7           8           9          10          11          12
    1   2.0000000   2.0000000   2.0000000   2.0000000   2.0000000   2.0000000
           13          14          15          16          17          18
    1   2.0000000   2.0000000   2.0000000   2.0000000   2.0000000   2.0000000
           19          20          21          22          23          24
    1   2.0000000   2.0000000   2.0000000   2.0000000   2.0000000   2.0000000
           25          26          27          28          29          30
    1   2.0000000   2.0000000   2.0000000   2.0000000   2.0000000   2.0000000
           31          32          33          34          35          36
    1   2.0000000   2.0000000   2.0000000   2.0000000   2.0000000   2.0000000
           37          38          39          40          41          42
    1   2.0000000   2.0000000   2.0000000   2.0000000   1.9960032   1.9887359
           43          44          45          46          47          48
    1   1.9830544   1.9478930   1.8677904   1.8074839   1.1821223   0.8403862
           49          50          51          52          53          54
    1   0.1803234   0.1243913   0.0542604   0.0156625   0.0052887   0.0050496
           55          56
    1   0.0009352   0.0006195
Natural Orbitals stored in FCHK

  Amplitudes : 
  
 | HOLE  | ALPHA    | BETA     | PART  |    AMPLITUDE 
--------------------------------------------------
 |       | 11111000 | 10110000 |       |    -3.2066608253785E-01
 |       | 11110100 | 11100000 |       |     3.4223814294423E-01
 |       | 11110100 | 10110000 |       |    -6.4477090975407E-01
 |       | 11110100 | 10011000 |       |    -1.8859940046978E-01
 |       | 11110010 | 11010000 |       |     1.5257860754189E-01
 |       | 11110001 | 11010000 |       |    -2.4778073937291E-01
 |       | 11110001 | 01110000 |       |     1.0727898400892E-01
 |       | 11011100 | 11100000 |       |     1.1312429163592E-01
 |       | 11011100 | 10110000 |       |    -1.0631837247977E-01
--------------------------------------------------
*** Contributions RASCI wfn    Active:  91.38
                                 Hole:   5.52
                                 Part:   3.10

      Mulliken population analysis 
 ---------------------------------------------------
   Atom    Charge (a.u.)   Spin (a.u.)  
 ---------------------------------------------------
   1  C    0.144716        0.012815 
   2  O   -0.459982       -0.011442 
   3  C    0.159660        0.154354 
   4  C    0.159660        0.154354 
   5  C    0.154488        0.051632 
   6  C   -0.200796        0.234692 
   7  C   -0.181321        0.108656 
   8  C   -0.366191        0.287840 
   9  C    0.020189        0.156438 
  10  H    0.161993        0.001662 
  11  H    0.131293        0.002230 
  12  H    0.141497        0.001015 
  13  H    0.136822        0.000795 
  14  C    0.154488        0.051632 
  15  C   -0.200796        0.234692 
  16  C   -0.366191        0.287840 
  17  C   -0.181321        0.108656 
  18  C    0.020189        0.156438 
  19  H    0.131293        0.002230 
  20  H    0.161993        0.001662 
  21  H    0.141497        0.001015 
  22  H    0.136822        0.000795 
 ---------------------------------------------------
   Sum:    0.000000        2.000000 
 ---------------------------------------------------
 
  
 NATURAL OCCUPATION NUMBERS (higher than 1.0E-05)
            1           2           3           4           5           6
    1   2.0000000   2.0000000   2.0000000   2.0000000   2.0000000   2.0000000
            7           8           9          10          11          12
    1   2.0000000   2.0000000   2.0000000   2.0000000   2.0000000   2.0000000
           13          14          15          16          17          18
    1   2.0000000   2.0000000   2.0000000   2.0000000   2.0000000   2.0000000
           19          20          21          22          23          24
    1   2.0000000   2.0000000   2.0000000   2.0000000   2.0000000   2.0000000
           25          26          27          28          29          30
    1   2.0000000   2.0000000   2.0000000   2.0000000   2.0000000   2.0000000
           31          32          33          34          35          36
    1   2.0000000   2.0000000   2.0000000   2.0000000   2.0000000   2.0000000
           37          38          39          40          41          42
    1   2.0000000   2.0000000   2.0000000   2.0000000   1.9960032   1.9887359
           43          44          45          46          47          48
    1   1.9830544   1.9478930   1.8677904   1.8074839   1.1821223   0.8403862
           49          50          51          52          53          54
    1   0.1803234   0.1243913   0.0542604   0.0156625   0.0052887   0.0050496
           55          56
    1   0.0009352   0.0006195
  
*** Unpaired Electrons
 Yamaguchi Nd:         3.42
 Head-Gordon Nu:       2.45
 Head-Gordon Nu_nl:    2.25
  
**************************************************
 RAS-CI total energy for state   9:   -571.853258102891
  Excitation energy (eV) =  3.864259242330
  State symmetry: A1    (C2v      )
  <S^2>      :  2.0000
  Dipole Moment:    0.0000 X    -0.0000 Y     1.4352 Z
  Trans. Moment:   -1.1310 X     0.0000 Y     0.0000 Z
  Strength   :  0.121106
  Natural transition orbitals ( 1 -> 9 ):
   e-/hole pair  1 alpha:  ampl =  0.584727 ( 34.2%)   [8 : 9]
   e-/hole pair  2 alpha:  ampl =  0.154421 (  2.4%)   [7 : 10]
   e-/hole pair  1 beta :  ampl =  0.427524 ( 18.3%)   [8 : 9]
   e-/hole pair  2 beta :  ampl =  0.158145 (  2.5%)   [7 : 10]
   Sum of square amplitudes: 0.59

 NATURAL OCCUPATION NUMBERS (higher than 1.0E-05)
            1           2           3           4           5           6
    1   2.0000000   2.0000000   2.0000000   2.0000000   2.0000000   2.0000000
            7           8           9          10          11          12
    1   2.0000000   2.0000000   2.0000000   2.0000000   2.0000000   2.0000000
           13          14          15          16          17          18
    1   2.0000000   2.0000000   2.0000000   2.0000000   2.0000000   2.0000000
           19          20          21          22          23          24
    1   2.0000000   2.0000000   2.0000000   2.0000000   2.0000000   2.0000000
           25          26          27          28          29          30
    1   2.0000000   2.0000000   2.0000000   2.0000000   2.0000000   2.0000000
           31          32          33          34          35          36
    1   2.0000000   2.0000000   2.0000000   2.0000000   2.0000000   2.0000000
           37          38          39          40          41          42
    1   2.0000000   2.0000000   2.0000000   2.0000000   1.9908550   1.9877772
           43          44          45          46          47          48
    1   1.9811237   1.9013672   1.8526473   1.6122392   1.4067003   0.5025661
           49          50          51          52          53          54
    1   0.4488496   0.2004480   0.0729425   0.0302222   0.0057320   0.0050211
           55          56
    1   0.0008390   0.0006696
Natural Orbitals stored in FCHK

  Amplitudes : 
  
 | HOLE  | ALPHA    | BETA     | PART  |    AMPLITUDE 
--------------------------------------------------
 |       | 11111000 | 11010000 |       |     3.9776632539861E-01
 |       | 11111000 | 10101000 |       |    -1.5542863939586E-01
 |       | 11110100 | 11010000 |       |     3.4141854202504E-01
 |       | 11110100 | 01110000 |       |    -1.2910632854762E-01
 |       | 11110010 | 11100000 |       |     5.4733185079345E-01
 |       | 11110010 | 11001000 |       |    -1.4873206450793E-01
 |       | 11110010 | 10110000 |       |    -1.6405121253534E-01
 |       | 11110001 | 11100000 |       |    -1.3374017778499E-01
 |       | 11110001 | 10110000 |       |     2.2440077260795E-01
 |       | 11101100 | 11100000 |       |    -1.3704692293447E-01
 |       | 11011100 | 11010000 |       |     1.0453354467180E-01
 |       | 11011010 | 11100000 |       |     1.5674965599236E-01
 |  42   | 11110100 | 11110000 |       |    -1.0228389072248E-01
 |       | 11110000 | 11010000 |  57   |     1.1794570194727E-01
--------------------------------------------------
*** Contributions RASCI wfn    Active:  88.81
                                 Hole:   5.88
                                 Part:   5.32

      Mulliken population analysis 
 ---------------------------------------------------
   Atom    Charge (a.u.)   Spin (a.u.)  
 ---------------------------------------------------
   1  C    0.087792        0.080755 
   2  O   -0.419698        0.106636 
   3  C    0.141801        0.264329 
   4  C    0.141801        0.264329 
   5  C    0.191679        0.082545 
   6  C   -0.236443        0.097959 
   7  C   -0.090661        0.106103 
   8  C   -0.370182        0.160386 
   9  C   -0.042149        0.190619 
  10  H    0.161905        0.000898 
  11  H    0.131535        0.001403 
  12  H    0.142319        0.000719 
  13  H    0.136149        0.001342 
  14  C    0.191679        0.082545 
  15  C   -0.236443        0.097959 
  16  C   -0.370182        0.160386 
  17  C   -0.090661        0.106103 
  18  C   -0.042149        0.190619 
  19  H    0.131535        0.001403 
  20  H    0.161905        0.000898 
  21  H    0.142319        0.000719 
  22  H    0.136149        0.001342 
 ---------------------------------------------------
   Sum:    0.000000        2.000000 
 ---------------------------------------------------
 
  
 NATURAL OCCUPATION NUMBERS (higher than 1.0E-05)
            1           2           3           4           5           6
    1   2.0000000   2.0000000   2.0000000   2.0000000   2.0000000   2.0000000
            7           8           9          10          11          12
    1   2.0000000   2.0000000   2.0000000   2.0000000   2.0000000   2.0000000
           13          14          15          16          17          18
    1   2.0000000   2.0000000   2.0000000   2.0000000   2.0000000   2.0000000
           19          20          21          22          23          24
    1   2.0000000   2.0000000   2.0000000   2.0000000   2.0000000   2.0000000
           25          26          27          28          29          30
    1   2.0000000   2.0000000   2.0000000   2.0000000   2.0000000   2.0000000
           31          32          33          34          35          36
    1   2.0000000   2.0000000   2.0000000   2.0000000   2.0000000   2.0000000
           37          38          39          40          41          42
    1   2.0000000   2.0000000   2.0000000   2.0000000   1.9908550   1.9877772
           43          44          45          46          47          48
    1   1.9811237   1.9013672   1.8526473   1.6122392   1.4067003   0.5025661
           49          50          51          52          53          54
    1   0.4488496   0.2004480   0.0729425   0.0302222   0.0057320   0.0050211
           55          56
    1   0.0008390   0.0006696
  
*** Unpaired Electrons
 Yamaguchi Nd:         4.03
 Head-Gordon Nu:       2.53
 Head-Gordon Nu_nl:    2.40
  
**************************************************
 RAS-CI total energy for state  10:   -571.849465273222
  Excitation energy (eV) =  3.967467388704
  State symmetry: A1    (C2v      )
  <S^2>      :  2.0000
  Dipole Moment:    0.0000 X    -0.0000 Y     1.9417 Z
  Trans. Moment:    0.5424 X     0.0000 Y     0.0000 Z
  Strength   :  0.028597
  Natural transition orbitals ( 1 -> 10 ):
   e-/hole pair  1 alpha:  ampl =  0.450025 ( 20.3%)   [8 : 9]
   e-/hole pair  2 alpha:  ampl =  0.374299 ( 14.0%)   [7 : 10]
   e-/hole pair  1 beta :  ampl =  0.241426 (  5.8%)   [8 : 9]
   e-/hole pair  2 beta :  ampl =  0.176180 (  3.1%)   [7 : 10]
   Sum of square amplitudes: 0.44

 NATURAL OCCUPATION NUMBERS (higher than 1.0E-05)
            1           2           3           4           5           6
    1   2.0000000   2.0000000   2.0000000   2.0000000   2.0000000   2.0000000
            7           8           9          10          11          12
    1   2.0000000   2.0000000   2.0000000   2.0000000   2.0000000   2.0000000
           13          14          15          16          17          18
    1   2.0000000   2.0000000   2.0000000   2.0000000   2.0000000   2.0000000
           19          20          21          22          23          24
    1   2.0000000   2.0000000   2.0000000   2.0000000   2.0000000   2.0000000
           25          26          27          28          29          30
    1   2.0000000   2.0000000   2.0000000   2.0000000   2.0000000   2.0000000
           31          32          33          34          35          36
    1   2.0000000   2.0000000   2.0000000   2.0000000   2.0000000   2.0000000
           37          38          39          40          41          42
    1   2.0000000   2.0000000   2.0000000   2.0000000   1.9965157   1.9784346
           43          44          45          46          47          48
    1   1.9660340   1.8966917   1.8476272   1.5779254   1.2281658   0.6497996
           49          50          51          52          53          54
    1   0.4605318   0.2420191   0.1147740   0.0263421   0.0095446   0.0039192
           55          56
    1   0.0008396   0.0008358
Natural Orbitals stored in FCHK

  Amplitudes : 
  
 | HOLE  | ALPHA    | BETA     | PART  |    AMPLITUDE 
--------------------------------------------------
 |       | 11111000 | 10101000 |       |    -1.4466464750754E-01
 |       | 11111000 | 01110000 |       |    -2.3948960840489E-01
 |       | 11110100 | 11010000 |       |     3.4411231852598E-01
 |       | 11110100 | 01110000 |       |     3.7119479812438E-01
 |       | 11110010 | 11100000 |       |    -1.2111433502428E-01
 |       | 11110010 | 10110000 |       |    -2.1831652367839E-01
 |       | 11110001 | 11100000 |       |    -3.2921474852943E-01
 |       | 11101100 | 11100000 |       |     4.3614840791125E-01
 |       | 11101100 | 10110000 |       |     1.0517635671150E-01
 |  42   | 11110100 | 11110000 |       |    -1.1423367902411E-01
 |  41   | 11110010 | 11110000 |       |     1.0074327113203E-01
 |  41   | 11110001 | 11110000 |       |    -1.0194138446850E-01
--------------------------------------------------
*** Contributions RASCI wfn    Active:  86.06
                                 Hole:   9.64
                                 Part:   4.30

      Mulliken population analysis 
 ---------------------------------------------------
   Atom    Charge (a.u.)   Spin (a.u.)  
 ---------------------------------------------------
   1  C    0.087287        0.084659 
   2  O   -0.470929        0.082255 
   3  C    0.149975        0.037807 
   4  C    0.149975        0.037807 
   5  C    0.192767        0.152698 
   6  C   -0.280178        0.193487 
   7  C   -0.039330        0.187803 
   8  C   -0.354413        0.153550 
   9  C   -0.048539        0.185825 
  10  H    0.161619        0.001486 
  11  H    0.131616        0.001285 
  12  H    0.142204        0.001310 
  13  H    0.136099        0.001292 
  14  C    0.192767        0.152698 
  15  C   -0.280178        0.193487 
  16  C   -0.354413        0.153550 
  17  C   -0.039330        0.187803 
  18  C   -0.048539        0.185825 
  19  H    0.131616        0.001285 
  20  H    0.161619        0.001486 
  21  H    0.142204        0.001310 
  22  H    0.136099        0.001292 
 ---------------------------------------------------
   Sum:    0.000000        2.000000 
 ---------------------------------------------------
 
  
 NATURAL OCCUPATION NUMBERS (higher than 1.0E-05)
            1           2           3           4           5           6
    1   2.0000000   2.0000000   2.0000000   2.0000000   2.0000000   2.0000000
            7           8           9          10          11          12
    1   2.0000000   2.0000000   2.0000000   2.0000000   2.0000000   2.0000000
           13          14          15          16          17          18
    1   2.0000000   2.0000000   2.0000000   2.0000000   2.0000000   2.0000000
           19          20          21          22          23          24
    1   2.0000000   2.0000000   2.0000000   2.0000000   2.0000000   2.0000000
           25          26          27          28          29          30
    1   2.0000000   2.0000000   2.0000000   2.0000000   2.0000000   2.0000000
           31          32          33          34          35          36
    1   2.0000000   2.0000000   2.0000000   2.0000000   2.0000000   2.0000000
           37          38          39          40          41          42
    1   2.0000000   2.0000000   2.0000000   2.0000000   1.9965157   1.9784346
           43          44          45          46          47          48
    1   1.9660340   1.8966917   1.8476272   1.5779254   1.2281658   0.6497996
           49          50          51          52          53          54
    1   0.4605318   0.2420191   0.1147740   0.0263421   0.0095446   0.0039192
           55          56
    1   0.0008396   0.0008358
  
*** Unpaired Electrons
 Yamaguchi Nd:         4.52
 Head-Gordon Nu:       3.02
 Head-Gordon Nu_nl:    2.97
  
**************************************************
 RAS-CI total energy for state  11:   -571.839852956907
  Excitation energy (eV) =  4.229031823599
  State symmetry: B1    (C2v      )
  <S^2>      :  2.0000
  Dipole Moment:    0.0000 X    -0.0000 Y     2.0405 Z
  Trans. Moment:   -0.0000 X     0.0000 Y    -0.2445 Z
  Strength   :  0.006196
  Natural transition orbitals ( 1 -> 11 ):
   e-/hole pair  1 alpha:  ampl =  0.343713 ( 11.8%)   [8 : 9]
   e-/hole pair  2 alpha:  ampl =  0.307546 (  9.5%)   [7 : 10]
   e-/hole pair  1 beta :  ampl =  0.565599 ( 32.0%)   [8 : 9]
   e-/hole pair  2 beta :  ampl =  0.357663 ( 12.8%)   [7 : 10]
   Sum of square amplitudes: 0.71

 NATURAL OCCUPATION NUMBERS (higher than 1.0E-05)
            1           2           3           4           5           6
    1   2.0000000   2.0000000   2.0000000   2.0000000   2.0000000   2.0000000
            7           8           9          10          11          12
    1   2.0000000   2.0000000   2.0000000   2.0000000   2.0000000   2.0000000
           13          14          15          16          17          18
    1   2.0000000   2.0000000   2.0000000   2.0000000   2.0000000   2.0000000
           19          20          21          22          23          24
    1   2.0000000   2.0000000   2.0000000   2.0000000   2.0000000   2.0000000
           25          26          27          28          29          30
[...]
142 A1  130 B1   61 A2   62 A2  143 A1   71 B2  131 B1  144 A1                 
  4.563   4.568   4.601   4.610   4.637   4.645   4.655   4.666
 63 A2   72 B2  145 A1   64 A2  132 B1   65 A2   73 B2  133 B1                 
  4.696   4.744   4.777   4.790   4.790   4.817   4.839   4.903
134 B1  146 A1  135 B1  147 A1   66 A2  136 B1  148 A1   74 B2                 
  4.938   4.979   5.003   5.003   5.059   5.088   5.107   5.126
149 A1   75 B2  150 A1  137 B1  138 B1  151 A1   67 A2  152 A1                 
  5.132   5.139   5.161   5.183   5.264   5.273   5.317   5.345
 68 A2  139 B1  153 A1  140 B1  154 A1  141 B1  155 A1  142 B1                 
  5.379   5.408   5.436   5.509   5.630   5.635   5.658   5.669
143 B1  156 A1  144 B1  157 A1  158 A1  145 B1  159 A1  146 B1                 
  5.678   5.695   5.766   5.800   5.907   5.930   5.955   6.036
 76 B2  147 B1  148 B1  160 A1  161 A1  149 B1  162 A1  150 B1                 
  6.090   6.127   6.253   6.370   6.654   6.937   6.975   7.158
 69 A2  151 B1  163 A1  152 B1   77 B2   70 A2  164 A1  165 A1                 
  7.310   7.369   7.653   7.736  22.987  23.570  23.588  23.691
153 B1   78 B2  166 A1  154 B1  167 A1  155 B1  168 A1  156 B1                 
 23.718  23.766  23.787  24.020  24.075  24.243  24.500  24.643
169 A1  170 A1  157 B1  171 A1  158 B1  159 B1  172 A1  173 A1                 
 24.737  45.603
160 B1  174 A1                                                                 
 
 Beta MOs, Restricted
 -- Doubly Occupied --           
-20.506 -11.302 -11.271 -11.271 -11.271 -11.270 -11.264 -11.264
  1 A1    2 A1    3 A1    1 B1    4 A1    2 B1    5 A1    3 B1                 
-11.265 -11.265 -11.259 -11.259 -11.249 -11.249  -1.347  -1.214
  4 B1    6 A1    5 B1    7 A1    8 A1    6 B1    9 A1   10 A1                 
 -1.163  -1.101  -1.065  -1.044  -0.996  -0.934  -0.888  -0.832
  7 B1   11 A1   12 A1    8 B1    9 B1   13 A1   14 A1   10 B1                 
 -0.807  -0.782  -0.721  -0.708  -0.676  -0.647  -0.639  -0.623
 11 B1   15 A1   16 A1   12 B1   17 A1   18 A1   13 B1   14 B1                 
 -0.616  -0.608  -0.588  -0.605  -0.551  -0.544  -0.510  -0.505
 19 A1   15 B1   20 A1    1 B2   16 B1   21 A1   22 A1   17 B1                 
 -0.516  -0.522  -0.402  -0.430  -0.381  -0.392
  1 A2    2 B2   18 B1    3 B2    2 A2    4 B2                                 
 -- Singly Occupied (Vacant) --  
 -0.324  -0.228
  3 A2    5 B2                                                                 
 -- Virtual --                   
  0.062   0.091   0.141   0.140   0.150   0.162   0.181   0.186
  6 B2    4 A2    5 A2   23 A1   19 B1   24 A1   20 B1   25 A1                 
  0.180   0.200   0.212   0.216   0.232   0.237   0.258   0.290
  7 B2   26 A1   21 B1   27 A1   22 B1   23 B1   28 A1   29 A1                 
  0.286   0.299   0.309   0.304   0.314   0.320   0.326   0.319
  8 B2   30 A1   24 B1    9 B2   31 A1   25 B1    6 A2    7 A2                 
  0.346   0.347   0.356   0.366   0.368   0.377   0.379   0.391
 32 A1   26 B1   10 B2   33 A1   11 B2   27 B1    8 A2   34 A1                 
  0.411   0.431   0.434   0.437   0.448   0.452   0.449   0.454
 28 B1    9 A2   29 B1   35 A1   12 B2   36 A1   13 B2   37 A1                 
  0.470   0.482   0.495   0.492   0.497   0.509   0.510   0.518
 38 A1   30 B1   39 A1   10 A2   31 B1   40 A1   32 B1   14 B2                 
  0.522   0.528   0.541   0.544   0.557   0.561   0.563   0.577
 11 A2   33 B1   34 B1   41 A1   35 B1   42 A1   15 B2   36 B1                 
  0.584   0.590   0.599   0.610   0.612   0.637   0.642   0.650
 43 A1   44 A1   12 A2   37 B1   45 A1   46 A1   38 B1   47 A1                 
  0.655   0.665   0.674   0.683   0.703   0.707   0.723   0.738
 39 B1   16 B2   40 B1   48 A1   41 B1   42 B1   49 A1   43 B1                 
  0.742   0.760   0.789   0.798   0.803   0.818   0.818   0.833
 17 B2   13 A2   50 A1   44 B1   51 A1   45 B1   52 A1   46 B1                 
  0.835   0.839   0.847   0.852   0.866   0.876   0.898   0.908
 18 B2   53 A1   14 A2   54 A1   47 B1   55 A1   15 A2   48 B1                 
  0.908   0.907   0.927   0.934   0.947   0.963   0.963   0.972
 56 A1   19 B2   49 B1   20 B2   50 B1   51 B1   57 A1   58 A1                 
  0.994   0.994   0.998   0.996   1.037   1.041   1.039   1.049
 59 A1   21 B2   52 B1   16 A2   60 A1   53 B1   22 B2   54 B1                 
  1.068   1.081   1.094   1.104   1.126   1.137   1.160   1.165
 61 A1   17 A2   55 B1   62 A1   56 B1   63 A1   57 B1   64 A1                 
  1.169   1.198   1.206   1.226   1.241   1.265   1.266   1.268
 18 A2   65 A1   23 B2   66 A1   19 A2   58 B1   24 B2   59 B1                 
  1.276   1.328   1.332   1.365   1.366   1.372   1.394   1.398
 67 A1   25 B2   20 A2   68 A1   21 A2   60 B1   69 A1   26 B2                 
  1.401   1.415   1.429   1.446   1.446   1.452   1.460   1.475
 61 B1   70 A1   71 A1   62 B1   27 B2   63 B1   72 A1   64 B1                 
  1.489   1.515   1.546   1.552   1.565   1.571   1.583   1.583
 73 A1   22 A2   65 B1   74 A1   66 B1   23 A2   75 A1   28 B2                 
  1.597   1.613   1.648   1.654   1.657   1.664   1.687   1.700
 67 B1   76 A1   68 B1   77 A1   24 A2   29 B2   69 B1   78 A1                 
  1.733   1.758   1.762   1.776   1.781   1.788   1.794   1.801
 25 A2   30 B2   31 B2   70 B1   26 A2   79 A1   71 B1   80 A1                 
  1.806   1.825   1.830   1.868   1.874   1.892   1.910   1.918
 81 A1   32 B2   72 B1   73 B1   27 A2   33 B2   82 A1   28 A2                 
  1.924   1.950   1.953   1.958   1.975   1.977   1.988   2.004
 83 A1   84 A1   34 B2   74 B1   35 B2   85 A1   29 A2   75 B1                 
  2.015   2.020   2.037   2.064   2.099   2.112   2.131   2.139
 30 A2   76 B1   86 A1   77 B1   36 B2   31 A2   87 A1   37 B2                 
  2.144   2.179   2.187   2.205   2.260   2.260   2.267   2.305
 32 A2   38 B2   33 A2   88 A1   78 B1   39 B2   34 A2   89 A1                 
  2.311   2.318   2.339   2.351   2.382   2.385   2.386   2.390
 35 A2   79 B1   90 A1   80 B1   91 A1   92 A1   81 B1   40 B2                 
  2.418   2.425   2.466   2.467   2.477   2.494   2.513   2.517
 82 B1   93 A1   94 A1   83 B1   95 A1   84 B1   85 B1   96 A1                 
  2.561   2.585   2.605   2.627   2.629   2.631   2.635   2.701
 86 B1   41 B2   97 A1   87 B1   36 A2   42 B2   98 A1   88 B1                 
  2.705   2.730   2.735   2.747   2.749   2.765   2.797   2.841
 99 A1  100 A1   37 A2   89 B1  101 A1   90 B1   43 B2  102 A1                 
  2.852   2.872   2.885   2.895   2.899   2.909   2.913   2.919
 91 B1   92 B1  103 A1   44 B2  104 A1   93 B1  105 A1   94 B1                 
  2.924   2.946   2.953   2.957   2.967   2.993   2.997   3.010
 38 A2  106 A1   39 A2   45 B2   95 B1   46 B2   96 B1   40 A2                 
  3.010   3.015   3.032   3.034   3.041   3.046   3.049   3.077
 47 B2   97 B1  107 A1   41 A2   98 B1  108 A1   48 B2  109 A1                 
  3.088   3.111   3.115   3.126   3.128   3.135   3.169   3.169
 49 B2   99 B1   42 A2  100 B1  110 A1   50 B2  101 B1  111 A1                 
  3.180   3.183   3.199   3.210   3.226   3.234   3.242   3.251
112 A1   43 A2  102 B1   44 A2  113 A1   51 B2  103 B1   52 B2                 
  3.263   3.268   3.295   3.315   3.317   3.322   3.327   3.347
104 B1  114 A1  115 A1   45 A2  116 A1  105 B1   53 B2   46 A2                 
  3.356   3.357   3.372   3.382   3.409   3.417   3.443   3.445
 54 B2   47 A2  117 A1   55 B2  118 A1   56 B2  106 B1  119 A1                 
  3.456   3.463   3.465   3.476   3.484   3.491   3.498   3.501
107 B1   48 A2  120 A1  108 B1   57 B2  121 A1  109 B1   49 A2                 
  3.511   3.542   3.549   3.555   3.572   3.574   3.593   3.604
 50 A2   58 B2  110 B1  122 A1   51 A2  111 B1   59 B2  123 A1                 
  3.607   3.623   3.630   3.662   3.665   3.666   3.678   3.688
112 B1  124 A1   60 B2   52 A2  125 A1  113 B1  114 B1   61 B2                 
  3.691   3.719   3.725   3.731   3.734   3.752   3.753   3.771
126 A1   62 B2   53 A2  115 B1  127 A1  128 A1   63 B2  116 B1                 
  3.793   3.796   3.803   3.833   3.833   3.849   3.862   3.860
129 A1   54 A2  117 B1   64 B2   55 A2  130 A1  118 B1   56 A2                 
  3.868   3.873   3.879   3.887   3.892   3.907   3.908   3.930
131 A1  119 B1  120 B1   57 A2   65 B2  132 A1   58 A2  133 A1                 
  3.947   3.995   3.997   4.012   4.036   4.090   4.111   4.140
121 B1  134 A1  122 B1   66 B2   59 A2  123 B1  135 A1   60 A2                 
  4.149   4.169   4.186   4.210   4.230   4.234   4.251   4.270
 67 B2  124 B1  136 A1  137 A1  125 B1   68 B2  126 B1  138 A1                 
  4.281   4.302   4.344   4.376   4.382   4.394   4.400   4.407
127 B1  139 A1  140 A1   69 B2  141 A1   70 B2  128 B1  129 B1                 
  4.434   4.459   4.458   4.480   4.504   4.526   4.540   4.549
142 A1  130 B1   61 A2   62 A2  143 A1   71 B2  131 B1  144 A1                 
  4.563   4.568   4.601   4.610   4.637   4.645   4.655   4.666
 63 A2   72 B2  145 A1   64 A2  132 B1   65 A2   73 B2  133 B1                 
  4.696   4.744   4.777   4.790   4.790   4.817   4.839   4.903
134 B1  146 A1  135 B1  147 A1   66 A2  136 B1  148 A1   74 B2                 
  4.938   4.979   5.003   5.003   5.059   5.088   5.107   5.126
149 A1   75 B2  150 A1  137 B1  138 B1  151 A1   67 A2  152 A1                 
  5.132   5.139   5.161   5.183   5.264   5.273   5.317   5.345
 68 A2  139 B1  153 A1  140 B1  154 A1  141 B1  155 A1  142 B1                 
  5.379   5.408   5.436   5.509   5.630   5.635   5.658   5.669
143 B1  156 A1  144 B1  157 A1  158 A1  145 B1  159 A1  146 B1                 
  5.678   5.695   5.766   5.800   5.907   5.930   5.955   6.036
 76 B2  147 B1  148 B1  160 A1  161 A1  149 B1  162 A1  150 B1                 
  6.090   6.127   6.253   6.370   6.654   6.937   6.975   7.158
 69 A2  151 B1  163 A1  152 B1   77 B2   70 A2  164 A1  165 A1                 
  7.310   7.369   7.653   7.736  22.987  23.570  23.588  23.691
153 B1   78 B2  166 A1  154 B1  167 A1  155 B1  168 A1  156 B1                 
 23.718  23.766  23.787  24.020  24.075  24.243  24.500  24.643
169 A1  170 A1  157 B1  171 A1  158 B1  159 B1  172 A1  173 A1                 
 24.737  45.603
160 B1  174 A1                                                                 
 --------------------------------------------------------------
 
          Ground-State Mulliken Net Atomic Charges

     Atom                 Charge (a.u.)
  ----------------------------------------
      1 C                     0.048296
      2 O                    -0.522280
      3 C                     0.179457
      4 C                     0.179457
      5 C                     0.163321
      6 C                    -0.246173
      7 C                    -0.039740
      8 C                    -0.300029
      9 C                    -0.093856
     10 H                     0.162416
     11 H                     0.132563
     12 H                     0.142790
     13 H                     0.136243
     14 C                     0.163321
     15 C                    -0.246173
     16 C                    -0.300029
     17 C                    -0.039740
     18 C                    -0.093856
     19 H                     0.132563
     20 H                     0.162416
     21 H                     0.142790
     22 H                     0.136243
  ----------------------------------------
  Sum of atomic charges =     0.000000

  Do orbital-by-orbital Lowdin population analysis
 
 
 Partial Mulliken analysis unavailable for frozen orbitals
 
 -----------------------------------------------------------------
                    Cartesian Multipole Moments
 -----------------------------------------------------------------
    Charge (ESU x 10^10)
                 0.0000
    Dipole Moment (Debye)
         X      -0.0000      Y      -0.0000      Z      -5.5022
       Tot       5.5022
    Quadrupole Moments (Debye-Ang)
        XX     -58.8230     XY      -0.0000     YY     -86.3019
        XZ      -0.0000     YZ       0.0000     ZZ     -87.8825
    Octopole Moments (Debye-Ang^2)
       XXX      -0.0000    XXY      -0.0000    XYY       0.0000
       YYY      -0.0000    XXZ       0.0872    XYZ       0.0000
       YYZ       7.1837    XZZ      -0.0000    YZZ      -0.0000
       ZZZ     -59.8950
    Hexadecapole Moments (Debye-Ang^3)
      XXXX   -1996.0826   XXXY      -0.0000   XXYY    -471.8630
      XYYY      -0.0000   YYYY    -100.4056   XXXZ       0.0000
      XXYZ      -0.0000   XYYZ      -0.0000   YYYZ       0.0000
      XXZZ    -507.0481   XYZZ      -0.0000   YYZZ    -201.2668
      XZZZ      -0.0000   YZZZ       0.0000   ZZZZ   -1116.8750
 -----------------------------------------------------------------
 Mayer SCF Bond Order, atomic valence on the diagonal:

            1           2           3           4           5           6
    1   1.2578620   0.5731216  -0.1842222  -0.0789331   0.0560598   0.0112118
    2   0.5731216   1.9549857  -0.1508639  -0.1508639   0.0092258   0.0569838
    3  -0.1842222  -0.1508639   3.3674822  -0.0840716  -0.0425123   0.0214808
    4  -0.0789331  -0.1508639  -0.0840716   3.3674822   1.1430623   1.2963282
    5   0.0560598   0.0092258  -0.0425123   1.1430623   3.5904600  -0.0595007
    6   0.0112118   0.0569838   0.0214808   1.2963282  -0.0595007   3.9562183
    7  -0.0134861   0.0098473   0.0087921   0.0418027  -0.0172973   1.5954863
    8  -0.0164161   0.0037546   0.0136726  -0.0064907   1.1490834   0.0578263
    9  -0.0014572   0.0048619   0.0181934   0.0052203  -0.0511972   0.0386308
   10   0.0019759   0.0067283   0.0000492   0.0018492   0.0059326   0.9691315
   11  -0.0002318   0.0005756  -0.0000414   0.0070727  -0.0217604   0.0008223
   12  -0.0070913  -0.0000723   0.0001863   0.0052381   0.0006754  -0.0092829
   13   0.0003200   0.0001303   0.0001226   0.0007108   0.0061226   0.0048912
   14  -0.0026179   0.0092258   1.1430623  -0.0425123   1.4009461   0.0112248
   15   0.0183320   0.0569838   1.2963282   0.0214808   0.0112248   0.0016806
   16  -0.0088466   0.0037546  -0.0064907   0.0136726  -0.0450678  -0.0003453
   17  -0.0112860   0.0098473   0.0418027   0.0087921   0.0249352   0.0021677
   18  -0.0006398   0.0048619   0.0052203   0.0181934   0.0310884   0.0020229
   19  -0.0004566   0.0005756   0.0070727  -0.0000414   0.0045777   0.0000815
   20  -0.0067101   0.0067283   0.0018492   0.0000492   0.0006014  -0.0000614
   21   0.0014171  -0.0000723   0.0052381   0.0001863   0.0007583   0.0000767
   22   0.0003209   0.0001303   0.0007108   0.0001226   0.0013927   0.0001929
            7           8           9          10          11          12
    1  -0.0134861  -0.0164161  -0.0014572   0.0019759  -0.0002318  -0.0070913
    2   0.0098473   0.0037546   0.0048619   0.0067283   0.0005756  -0.0000723
    3   0.0087921   0.0136726   0.0181934   0.0000492  -0.0000414   0.0001863
    4   0.0418027  -0.0064907   0.0052203   0.0018492   0.0070727   0.0052381
    5  -0.0172973   1.1490834  -0.0511972   0.0059326  -0.0217604   0.0006754
    6   1.5954863   0.0578263   0.0386308   0.9691315   0.0008223  -0.0092829
    7   3.8259034   0.0598247   1.1165313  -0.0233152   0.0065385   0.9804596
    8   0.0598247   3.9808398   1.7562539   0.0004677   0.9725527   0.0044415
    9   1.1165313   1.7562539   3.9177860   0.0069900   0.0028491  -0.0162440
   10  -0.0233152   0.0004677   0.0069900   0.9718318   0.0000906   0.0000464
   11   0.0065385   0.9725527   0.0028491   0.0000906   0.9765596   0.0005017
   12   0.9804596   0.0044415  -0.0162440   0.0000464   0.0005017   0.9672851
   13  -0.0158989  -0.0059209   0.9791397   0.0004372  -0.0002268  -0.0003611
   14   0.0249352  -0.0450678   0.0310884   0.0006014   0.0045777   0.0007583
   15   0.0021677  -0.0003453   0.0020229  -0.0000614   0.0000815   0.0000767
   16   0.0015364   0.0028857   0.0029544   0.0001222   0.0021166  -0.0000911
   17   0.0054941   0.0015364   0.0079897   0.0000286  -0.0001051   0.0000225
   18   0.0079897   0.0029544   0.0069364   0.0000327   0.0003266   0.0000728
   19  -0.0001051   0.0021166   0.0003266   0.0000042   0.0004071   0.0000225
   20   0.0000286   0.0001222   0.0000327   0.0000055   0.0000042   0.0000001
   21   0.0000225  -0.0000911   0.0000728   0.0000001   0.0000225   0.0000024
   22   0.0000291   0.0000184   0.0000617   0.0000060   0.0000102   0.0000011
           13          14          15          16          17          18
    1   0.0003200  -0.0026179   0.0183320  -0.0088466  -0.0112860  -0.0006398
    2   0.0001303   0.0092258   0.0569838   0.0037546   0.0098473   0.0048619
    3   0.0001226   1.1430623   1.2963282  -0.0064907   0.0418027   0.0052203
    4   0.0007108  -0.0425123   0.0214808   0.0136726   0.0087921   0.0181934
    5   0.0061226   1.4009461   0.0112248  -0.0450678   0.0249352   0.0310884
    6   0.0048912   0.0112248   0.0016806  -0.0003453   0.0021677   0.0020229
    7  -0.0158989   0.0249352   0.0021677   0.0015364   0.0054941   0.0079897
    8  -0.0059209  -0.0450678  -0.0003453   0.0028857   0.0015364   0.0029544
    9   0.9791397   0.0310884   0.0020229   0.0029544   0.0079897   0.0069364
   10   0.0004372   0.0006014  -0.0000614   0.0001222   0.0000286   0.0000327
   11  -0.0002268   0.0045777   0.0000815   0.0021166  -0.0001051   0.0003266
   12  -0.0003611   0.0007583   0.0000767  -0.0000911   0.0000225   0.0000728
   13   0.9709516   0.0013927   0.0001929   0.0000184   0.0000291   0.0000617
   14   0.0013927   3.5904600  -0.0595007   1.1490834  -0.0172973  -0.0511972
   15   0.0001929  -0.0595007   3.9562183   0.0578263   1.5954863   0.0386308
   16   0.0000184   1.1490834   0.0578263   3.9808398   0.0598248   1.7562539
   17   0.0000291  -0.0172973   1.5954863   0.0598248   3.8259034   1.1165313
   18   0.0000617  -0.0511972   0.0386308   1.7562539   1.1165313   3.9177860
   19   0.0000102  -0.0217604   0.0008223   0.9725527   0.0065385   0.0028491
   20   0.0000060   0.0059326   0.9691315   0.0004677  -0.0233152   0.0069900
   21   0.0000011   0.0006754  -0.0092829   0.0044415   0.9804596  -0.0162440
   22   0.0000051   0.0061226   0.0048912  -0.0059209  -0.0158989   0.9791397
           19          20          21          22
    1  -0.0004566  -0.0067101   0.0014171   0.0003209
    2   0.0005756   0.0067283  -0.0000723   0.0001303
    3   0.0070727   0.0018492   0.0052381   0.0007108
    4  -0.0000414   0.0000492   0.0001863   0.0001226
    5   0.0045777   0.0006014   0.0007583   0.0013927
    6   0.0000815  -0.0000614   0.0000767   0.0001929
    7  -0.0001051   0.0000286   0.0000225   0.0000291
    8   0.0021166   0.0001222  -0.0000911   0.0000184
    9   0.0003266   0.0000327   0.0000728   0.0000617
   10   0.0000042   0.0000055   0.0000001   0.0000060
   11   0.0004071   0.0000042   0.0000225   0.0000102
   12   0.0000225   0.0000001   0.0000024   0.0000011
   13   0.0000102   0.0000060   0.0000011   0.0000051
   14  -0.0217604   0.0059326   0.0006754   0.0061226
   15   0.0008223   0.9691315  -0.0092829   0.0048912
   16   0.9725527   0.0004677   0.0044415  -0.0059209
   17   0.0065385  -0.0233152   0.9804596  -0.0158989
   18   0.0028491   0.0069900  -0.0162440   0.9791397
   19   0.9765596   0.0000906   0.0005017  -0.0002268
   20   0.0000906   0.9718318   0.0000464   0.0004372
   21   0.0005017   0.0000464   0.9672851  -0.0003611
   22  -0.0002268   0.0004372  -0.0003611   0.9709516


 Total job time:  40964.41s(wall), 30704.87s(cpu) 
 Sat Sep 23 04:54:24 2023

        *************************************************************
        *                                                           *
        *  Thank you very much for using Q-Chem.  Have a nice day.  *
        *                                                           *
        *************************************************************


