                  Welcome to Q-Chem
     A Quantum Leap Into The Future Of Chemistry


 Q-Chem 6.0 (devel), Q-Chem, Inc., Pleasanton, CA (2022)

 E. Epifanovsky,  A. T. B. Gilbert,  Xintian Feng,  Joonho Lee,  Yuezhi Mao,  
 N. Mardirossian,  P. Pokhilko,  A. White,  M. Wormit,  M. P. Coons,  
 A. L. Dempwolff,  Zhengting Gan,  D. Hait,  P. R. Horn,  L. D. Jacobson,  
 I. Kaliman,  J. Kussmann,  A. W. Lange,  Ka Un Lao,  D. S. Levine,  Jie Liu,  
 S. C. McKenzie,  A. F. Morrison,  K. Nanda,  F. Plasser,  D. R. Rehn,  
 M. L. Vidal,  Zhi-Qiang You,  Ying Zhu,  B. Alam,  B. Albrecht,  
 A. Aldossary,  E. Alguire,  J. H. Andersen,  V. Athavale,  D. Barton,  
 K. Begam,  A. Behn,  N. Bellonzi,  Y. A. Bernard,  E. J. Berquist,  
 H. Burton,  A. Carreras,  K. Carter-Fenk,  Romit Chakraborty,  
 Chandrima Chakravarty,  Junhan Chen,  A. D. Chien,  K. D. Closser,  
 V. Cofer-Shabica,  L. Cunha,  S. Dasgupta,  Jia Deng,  M. de Wergifosse,  
 M. Diedenhofen,  Hainam Do,  S. Ehlert,  Po-Tung Fang,  S. Fatehi,  
 Qingguo Feng,  T. Friedhoff,  B. Ganoe,  J. Gayvert,  Qinghui Ge,  
 G. Gidofalvi,  M. Goldey,  J. Gomes,  C. Gonzalez-Espinoza,  S. Gulania,  
 A. Gunina,  J. A. Gyamfi,  M. W. D. Hanson-Heine,  P. H. P. Harbach,  
 A. W. Hauser,  M. F. Herbst,  M. Hernandez Vera,  M. Hodecker,  
 Z. C. Holden,  S. Houck,  Xunkun Huang,  Kerwin Hui,  B. C. Huynh,  
 K. Ikeda,  M. Ivanov,  Hyunjun Ji,  Zuxin Jin,  Hanjie Jiang,  B. Kaduk,  
 S. Kaehler,  R. Kang,  K. Khistyaev,  Jaehoon Kim,  Yongbin Kim,  
 P. Klunzinger,  Z. Koczor-Benda,  Joong Hoon Koh,  D. Kosenkov,  
 Saikiran Kotaru,  L. Koulias,  T. Kowalczyk,  C. M. Krauter,  K. Kue,  
 A. Kunitsa,  T. Kus,  A. Landau,  K. V. Lawler,  D. Lefrancois,  S. Lehtola,  
 Rain Li,  Shaozhi Li,  Yi-Pei Li,  Jiashu Liang,  M. Liebenthal,  
 Hung-Hsuan Lin,  You-Sheng Lin,  Fenglai Liu,  Kuan-Yu Liu,  
 M. Loipersberger,  A. Luenser,  C. Malbon,  A. Manjanath,  P. Manohar,  
 E. Mansoor,  S. F. Manzer,  Shan-Ping Mao,  A. V. Marenich,  T. Markovich,  
 S. Mason,  F. Matz,  S. A. Maurer,  P. F. McLaughlin,  M. F. S. J. Menger,  
 J.-M. Mewes,  S. A. Mewes,  P. Morgante,  Mohammad Mostafanejad,  
 J. W. Mullinax,  K. J. Oosterbaan,  G. Paran,  V. Parravicini,  
 Alexander C. Paul,  Suranjan K. Paul,  F. Pavosevic,  Zheng Pei,  S. Prager,  
 E. I. Proynov,  E. Ramos,  B. Rana,  A. E. Rask,  A. Rettig,  R. M. Richard,  
 F. Rob,  E. Rossomme,  T. Scheele,  M. Scheurer,  M. Schneider,  
 P. E. Schneider,  N. Sergueev,  S. M. Sharada,  Hengyuan Shen,  
 W. Skomorowski,  D. W. Small,  C. J. Stein,  Yingli Su,  Yu-Chuan Su,  
 E. J. Sundstrom,  Zhen Tao,  J. Thirman,  Hung-Yi Tsai,  T. Tsuchimochi,  
 N. M. Tubman,  C. Utku,  S. P. Veccham,  O. Vydrov,  J. Wenzel,  
 Jonathan Wong,  J. Witte,  A. Yamada,  Chou-Hsun Yang,  Kun Yao,  
 S. Yeganeh,  S. R. Yost,  A. Zech,  F. Zeller,  Igor Ying Zhang,  
 Xing Zhang,  Yu Zhang,  D. Zuev,  A. Aspuru-Guzik,  A. T. Bell,  
 N. A. Besley,  K. B. Bravaya,  B. R. Brooks,  D. Casanova,  Jeng-Da Chai,  
 Hsing-Ta Chen,  S. Coriani,  C. J. Cramer,  A. E. DePrince, III,  
 R. A. DiStasio Jr.,  A. Dreuw,  B. D. Dunietz,  T. R. Furlani,  
 W. A. Goddard III,  S. Grimme,  S. Hammes-Schiffer,  T. Head-Gordon,  
 W. J. Hehre,  Chao-Ping Hsu,  T.-C. Jagau,  Yousung Jung,  A. Klamt,  
 Jing Kong,  D. S. Lambrecht,  Xiangyuan Li,  WanZhen Liang,  N. J. Mayhall,  
 C. W. McCurdy,  J. B. Neaton,  T. Neudecker,  C. Ochsenfeld,  
 J. A. Parkhill,  R. Peverati,  V. A. Rassolov,  Haisheng Ren,  Yihan Shao,  
 L. V. Slipchenko,  R. P. Steele,  J. E. Subotnik,  A. J. W. Thom,  
 A. Tkatchenko,  D. G. Truhlar,  T. Van Voorhis,  Fan Wang,  
 T. A. Wesolowski,  K. B. Whaley,  H. L. Woodcock III,  P. M. Zimmerman,  
 S. Faraji,  P. M. W. Gill,  M. Head-Gordon,  J. M. Herbert,  A. I. Krylov

 Contributors to earlier versions of Q-Chem not listed above: 
 R. D. Adamson,  B. Austin,  R. Baer,  J. Baker,  G. J. O. Beran,  
 K. Brandhorst,  S. T. Brown,  E. F. C. Byrd,  Arup K. Chakraborty,  
 G. K. L. Chan,  Chun-Min Chang,  Yunqing Chen,  C.-L. Cheng,  
 Siu Hung Chien,  D. M. Chipman,  D. L. Crittenden,  H. Dachsel,  
 R. J. Doerksen,  A. D. Dutoi,  R. G. Edgar,  J. Fosso-Tande,  
 L. Fusti-Molnar,  D. Ghosh,  A. Ghysels,  A. Golubeva-Zadorozhnaya,  
 J. Gonthier,  M. S. Gordon,  S. R. Gwaltney,  G. Hawkins,  J. E. Herr,  
 A. Heyden,  S. Hirata,  E. G. Hohenstein,  G. Kedziora,  F. J. Keil,  
 C. Kelley,  Jihan Kim,  R. A. King,  R. Z. Khaliullin,  P. P. Korambath,  
 W. Kurlancheek,  A. Laurent,  A. M. Lee,  M. S. Lee,  S. V. Levchenko,  
 Ching Yeh Lin,  D. Liotard,  E. Livshits,  R. C. Lochan,  I. Lotan,  
 L. A. Martinez-Martinez,  P. E. Maslen,  N. Nair,  D. P. O'Neill,  
 D. Neuhauser,  E. Neuscamman,  C. M. Oana,  R. Olivares-Amaya,  R. Olson,  
 T. M. Perrine,  B. Peters,  P. A. Pieniazek,  A. Prociuk,  Y. M. Rhee,  
 J. Ritchie,  M. A. Rohrdanz,  E. Rosta,  N. J. Russ,  H. F. Schaefer III,  
 M. W. Schmidt,  N. E. Schultz,  S. Sharma,  N. Shenvi,  C. D. Sherrill,  
 A. C. Simmonett,  A. Sodt,  T. Stein,  D. Stuck,  K. S. Thanthiriwatte,  
 V. Vanovschi,  L. Vogt,  Tao Wang,  A. Warshel,  M. A. Watson,  
 C. F. Williams,  Q. Wu,  X. Xu,  Jun Yang,  W. Zhang,  Yan Zhao

   Please cite Q-Chem as follows:
  "Software for the frontiers of quantum chemistry:
   An overview of developments in the Q-Chem 5 package"
   J. Chem. Phys. 155, 084801 (2021)
   https://doi.org/10.1063/5.0055522 (open access)

 Q-Chem 6.0.1 for Intel X86 EM64T Linux

 Parts of Q-Chem use Armadillo 9.900.5 (Nocturnal Misbehaviour).
 http://arma.sourceforge.net/

 Q-Chem begins on Thu Sep  7 12:52:55 2023  

 Host: atlas-143
0

     Scratch files written to ./qchem152526//
 Processing $rem in /scratch/abel/SOFTWARE/qchem/config/preferences:
 Processing $rem in /dipc/acebg/.qchemrc:

 Checking the input file for inconsistencies... 	...done.

--------------------------------------------------------------
User input:
--------------------------------------------------------------
$comment
 RAS-SF CALCULATION
$end

$molecule
 READ naphthalene.molecule
$end

$rem
!**CALCULATION TYPE***     
JOBTYPE            sp    
EXCHANGE           HF
CORRELATION        RASCI    !RASCI=Casanova; RASCI2=Zimmerman
BASIS              def2-TZVP
BASIS2             STO-3G

!***SCF REFERENCE***
INPUT_BOHR          TRUE
!SKIP_SCFMAN        FALSE
UNRESTRICTED       FALSE
!SCF_GUESS          core
!SCF_GUESS_MIX      FALSE
!SCF_GUESS_ALWAYS   FALSE
MAX_SCF_CYCLES     999
SCF_CONVERGENCE    10
SCF_ALGORITHM      DIIS_GDM !DIIS,DM,DIIS_DM,GDM,DIIS_GDM,GD

!SYMMETRY           TRUE   !use of symmetry for calculating integrals
!SYM_IGNORE         FALSE  !turn off using symmetry
!SYM_TOL            5      !tolerance for determining point group
!USE_ABELIAN_SUBGROUP      !define to use abelian group

!THRESH             14
SCF_FINAL_PRINT     1 !0,1,2,3

!****RAS-SF****
RAS_ROOTS          10       !number of RAS-CI roots to be computed
SET_ITER           100     !number of iterations in RASCI
RAS_ELEC           10       !number of electrons in RAS2
RAS_ELEC_ALPHA     6       !spin-α electrons in RAS2 
RAS_ELEC_BETA      4       !spin-β electrons in RAS2

RAS_ACT            9       !number of orbitals in RAS2 
RAS_ACT_ORB  [28,31,32,33,34,35,36,37,45]  !user-selected RAS2 orbitals
RAS_OCC            29       !number of orbitals in RAS1
N_FROZEN_CORE      FC     !Number of frozen core orbitals
N_FROZEN_VIRTUAL   290      !Number of frozen virtual orbitals

RAS_DO_HOLE        TRUE   !presence of hole excitations in RAS-CI wave function
RAS_DO_PART        TRUE   !presence of particle excitations
!RAS_AMPL_PRINT     10     !threshold (×10 2 ) for the CI amplitudes

!RAS_GUESS_CS       0      !number of closed shell guess conﬁgurations
!RAS_SPIN_MULT      0      !spin multiplicity. Only for Ms = 0 
!RAS_SRDFT          FALSE  !short-range density functional RAS-CI
!RAS_NFRAG          0     !fragments of excitation analysis in RASCI

RAS_PRINT          2      !level of information
RAS_NATORB         TRUE   !computation of the natural orbital occupancies
!RAS_NATORB_STATE  0      !Saves NO of i RAS computed state in .fchk ﬁle
!RAS_FOD            TRUE

!****RAS-SOC****
CALC_SOC           TRUE   !calculate SOC for EOM-CC, RAS-CI, ADC, TDDFT/TDA and TDDFT
!RAS_SOC_2E        TRUE   !two-electron mean-ﬁeld contribution, default=true
RAS_SOC_SYM_DENS   TRUE   !averaging of α and β densities

!****MEMORY****
MEM_TOTAL          12000 !Default 2000 MB
MEM_STATIC         3000  !Default 64 MB

!**Molecular Properties and Analysis **                                                                                          
POP_MULLIKEN       TRUE   !Run Mulliken population analysis
LOWDIN_POPULATION  TRUE   !Run Löwdin population analysis
GUI                2       !Checkpoints generation
STATE_ANALYSIS     TRUE

!**Wave function analysis of RAS-CI states: MOLDEN**
!PLOTS = 0     ! Note: This can be omitted, default is 0
!NTO_PAIRS = 2 ! Note: This can be omitted, default is 2
!GUI 0
!MOLDEN_FORMAT      TRUE
!PRINT_ORBITALS     15

!**Wave function analysis of RAS-CI state: CUBE**
!NTO_PAIRS = 2 ! Note: This can be omitted, default is 2
!PLOTS = 1
!GUI 0

!**SR-DFT**
!RAS_SRDFT           TRUE !Perform short-range density functional RAS-CI
!RAS_SRDFT_EXC       0 !EX functional. 0=HF. 
!RAS_SRDFT_ONLY_COR  TRUE !No use of EXC functional
!RAS_SRDFT_COR       srPBE !short-range correlation functional
!ras_srdft_0         TRUE !true: no iteration (one-shot); false: iteration
!RAS_OMEGA           400 !Coulomb range-separation parameter. def=400
!RAS_SRDFT_DAMP     0.5 !dumping factor. def=0.5
$end

!$plots
!   grid_points 100 100 100
!   grid_range  (-10,10) (-10,10) (-10,10)
!$end

--------------------------------------------------------------
 ----------------------------------------------------------------
             Standard Nuclear Orientation (Bohr)
    I     Atom           X                Y                Z
 ----------------------------------------------------------------
    1      C       0.0000000000    -1.3623625091    -0.0000000000
    2      C      -0.0000000000     1.3623625091     0.0000000000
    3      C      -2.3376206850    -2.6436978817    -0.0000000000
    4      C      -4.6989437780    -1.2863193617     0.0000000000
    5      C      -4.6989437780     1.2863193617     0.0000000000
    6      C      -2.3376206850     2.6436978817     0.0000000000
    7      C       2.3376206850     2.6436978817     0.0000000000
    8      C       2.3376206850    -2.6436978817    -0.0000000000
    9      C       4.6989437780    -1.2863193617    -0.0000000000
   10      C       4.6989437780     1.2863193617    -0.0000000000
   11      H       2.3527347410    -4.6914688881    -0.0000000000
   12      H       6.4552948094    -2.3370951729    -0.0000000000
   13      H       6.4552948094     2.3370951729    -0.0000000000
   14      H       2.3527347410     4.6914688881     0.0000000000
   15      H      -2.3527347410    -4.6914688881    -0.0000000000
   16      H      -6.4552948094    -2.3370951729     0.0000000000
   17      H      -6.4552948094     2.3370951729     0.0000000000
   18      H      -2.3527347410     4.6914688881     0.0000000000
 ----------------------------------------------------------------
 Molecular Point Group                 D2h   NOp =  8
 Largest Abelian Subgroup              D2h   NOp =  8
 Nuclear Repulsion Energy =         454.42574361 hartrees
 There are       35 alpha and       33 beta electrons
 Requested basis set is def2-TZVP
 There are 142 shells and 358 basis functions

 Total QAlloc Memory Limit  12000 MB
 Mega-Array Size      2933 MB
 MEM_STATIC part      3000 MB

 A cutoff of  1.0D-14 yielded   9314 shell pairs
 There are     60746 function pairs (     79125 Cartesian)
 Smallest overlap matrix eigenvalue = 6.97E-06

 Scale SEOQF with 1.000000e-01/1.000000e-01/1.000000e+00

 Standard Electronic Orientation quadrupole field applied
 Nucleus-field energy     =     0.0000000153 hartrees
 Requested basis set is STO-3G
 There are 28 shells and 58 basis functions
 A cutoff of  1.0D-14 yielded    372 shell pairs
 There are      1737 function pairs
 Smallest overlap matrix eigenvalue = 1.76E-01
 Constructing guess Fock matrix from core Hamiltonian
 Applying Wolfsberg-Helmholtz approximation
 A restricted Hartree-Fock SCF calculation will be
 performed using Geometric Direct Minimization
 SCF converges when RMS gradient is below 1.0E-04
 ---------------------------------------
  Cycle       Energy        RMS Gradient
 ---------------------------------------
    1    -377.1024281241      3.19E-01 Descent step
    2    -377.5468541962      3.46E-01 Descent step
    3    -377.8859971733      3.03E-01 Descent step
    4    -378.1211214613      1.93E-01 Descent step
    5    -378.2601806527      1.11E-01 Dog-leg BFGS step
    6    -378.3143227321      4.20E-02 Normal BFGS step
    7    -378.3171329705      1.19E-02 Normal BFGS step
    8    -378.3179067138      1.17E-02 Normal BFGS step
    9    -378.3182503324      5.59E-03 Normal BFGS step
   10    -378.3183226581      2.78E-03 Normal BFGS step
   11    -378.3183390535      6.44E-04 Normal BFGS step
   12    -378.3183410818      1.25E-04 Normal BFGS step
   13    -378.3183412080      3.36E-05 Convergence criterion met
 ---------------------------------------
 One-Electron    Energy = -1415.2751875132
 Total Coulomb   Energy =   637.1192831548
 Alpha Exchange  Energy =   -27.8774684288
 Beta  Exchange  Energy =   -26.7107120425
 DFT   Exchange  Energy =     0.0000000000
 DFT Correlation Energy =     0.0000000000
 Nuclear Repu.   Energy =   454.4257436217
 Nuclear Attr.   Energy = -1790.7427064877
 Kinetic         Energy =   375.4675189744
 SCF time:  CPU 0.54 s  wall 1.11 s
 SCF   energy in the small basis set = -378.31834121
 Total energy in the small basis set = -378.31834121
 ----------------------------------------------------
  Cycle       Energy    
 ----------------------------------------------------
    1     -49.2566807390     -4.93E+01
 A restricted Hartree-Fock SCF calculation will be
 performed using Geometric Direct Minimization
 SCF converges when RMS gradient is below 1.0E-10
 ---------------------------------------
  Cycle       Energy        RMS Gradient
 ---------------------------------------
    1    -383.2241170042      1.02E-01 Descent step
    2    -383.3409767478      3.88E-02 Normal BFGS step
    3    -383.3706967425      2.67E-02 Normal BFGS step
    4    -383.3736165128      7.99E-03 Normal BFGS step
    5    -383.3737408410      2.97E-03 Normal BFGS step
    6    -383.3737580551      8.66E-04 Normal BFGS step
    7    -383.3737612699      2.35E-04 Normal BFGS step
    8    -383.3737614434      3.33E-05 Normal BFGS step
    9    -383.3737614569      1.01E-05 Normal BFGS step
   10    -383.3737614577      1.42E-06 Normal BFGS step
   11    -383.3737614577      4.93E-07 Normal BFGS step
   12    -383.3737614577      6.04E-08 Normal BFGS step
   13    -383.3737614577      1.26E-08 Normal BFGS step
   14    -383.3737614577      2.54E-09 Normal BFGS step
   15    -383.3737614577      1.15E-09 Normal BFGS step
   GDM::WARNING energy changes are now smaller than effective accuracy.
   GDM::        calculation will continue, but THRESH should be increased
   GDM::        or SCF_CONVERGENCE decreased.
   GDM::        effective_thresh =   1.787024826727102E-009
   16    -383.3737614577      4.24E-10 Normal BFGS step
   GDM::WARNING energy changes are now smaller than effective accuracy.
   GDM::        calculation will continue, but THRESH should be increased
   GDM::        or SCF_CONVERGENCE decreased.
   GDM::        effective_thresh =   1.787024826727102E-009
   17    -383.3737614577      2.01E-10 Normal BFGS step
   18    -383.3737614577      3.42E-11 Convergence criterion met
 ---------------------------------------
 One-Electron    Energy = -1418.3145495411
 Total Coulomb   Energy =   635.2281110286
 Alpha Exchange  Energy =   -27.7907471404
 Beta  Exchange  Energy =   -26.9223194265
 DFT   Exchange  Energy =     0.0000000000
 DFT Correlation Energy =     0.0000000000
 Nuclear Repu.   Energy =   454.4257436217
 Nuclear Attr.   Energy = -1801.1807663365
 Kinetic         Energy =   382.8662167954
 SCF time:  CPU 860.69 s  wall 866.47 s
 SCF   energy in the final basis set = -383.37376146
 Total energy in the final basis set = -383.37376146
  
     ##========================================##
     ||                                        ||
     ||              R A S M A N 2             ||
     ||________________________________________||
     ||                                        ||
     ||  Author:                               ||
     ||                                        ||
     ||        David Casanova (2010)           ||
     ||                                        ||
     ##========================================##
  
Setting single-point xc-functionals (if necessary)

  ***************************************************
  *  RAS-CI Dimensions:                             *
  *                                                 *
  *  Active Elec.:  10 ( 6, 4)   Active Orb.:   9   *
  *  Doubly Occ. :  29           Doubly Vir.: 320   *
  *  Frozen Occ. :  10           Frozen Vir.: 290   *
  *                                                 *
  *  Total CI configurations:    985824             * 
  *    Active configurations:     10584             * 
  *      Hole configurations:    287280             * 
  *  Particle configurations:    687960             * 
  *                                                 *
  *   Requested states:       10                    *
  *  Spin multiplicity: Any multiplicity            *
  *                                                 *
  ***************************************************
-----------------------------------------
    Memory requirements of RASCI

 Each CI-vector requires      7.52 MiB 
 Max. subspace vectors           1000      

 Reduced Lists                0.00 MiB 
 Excitation Lists             0.01 MiB 
 Excitation Lists Sign        0.01 MiB 
 CI-space (Max)            7604.09 MiB 
 Integrals                  168.79 MiB 
 Memory required (Max)     7604.11 MiB 
 Memory available          2861.02 MiB 

 Q-Chem warning in module rasman2/ras_mem_check.C, line 162:

 Static memory may be insufficient to store the subspace vectors


    Disk requirements of RASCI

 Fock matrix                  1.96 MiB 
 2-electron integrals         4.47 MiB 
 CI-space                 15042.48 MiB 
 Disk required            15048.90 MiB 
-----------------------------------------
  
RAS1 HF-like energy:           -369.9285882621
 Computing integrals
 Computing J and K matrices
 Computing addressing
 Making amplitude guesses
 
Direct CI diagonalization
 ---------------------------------------------------
 Iter    Rts Conv    Rts Left    Ttl Dev     Max Dev
 ---------------------------------------------------
   1         0          10      0.002617    0.000277
   2         0          10      0.001399    0.000157
   3         0          10      0.000953    0.000129
   4         0          10      0.000776    0.000114
   5         0          10      0.000805    0.000233
   6         0          10      0.000819    0.000248
   7         0          10      0.000879    0.000183
   8         0          10      0.000663    0.000164
   9         0          10      0.000496    0.000126
  10         0          10      0.000389    0.000116
  11         0          10      0.000284    0.000081
  12         0          10      0.000326    0.000097
  13         0          10      0.000297    0.000108
  14         0          10      0.000258    0.000103
  15         1           9      0.000240    0.000114
  16         2           8      0.000192    0.000094
  17         2           8      0.000155    0.000079
  18         2           8      0.000119    0.000060
  19         3           7      0.000096    0.000051
  20         4           6      0.000079    0.000045
  21         4           6      0.000066    0.000040
  22         4           6      0.000057    0.000037
  23         6           4      0.000047    0.000031
  24         6           4      0.000036    0.000025
  25         6           4      0.000026    0.000018
  26         7           3      0.000019    0.000013
  27         7           3      0.000014    0.000009
  28         9           1      0.000011    0.000007
  29         9           1      0.000008    0.000004
  30         9           1      0.000007    0.000003
  31         9           1      0.000006    0.000002
  32         9           1      0.000005    0.000001
  33        10           0      0.000004    0.000001    Roots Converged
 ---------------------------------------------------
   
**************************************************
 RAS-CI total energy for state   1:   -383.473331853516
  Excitation energy (eV) =  0.000000000000
  State symmetry: B2u   (D2h      )
  <S^2>      :  2.0000
  Dipole Moment:    0.0000 X     0.0000 Y    -0.0000 Z
 NATURAL OCCUPATION NUMBERS (higher than 1.0E-05)
            1           2           3           4           5           6
    1   2.0000000   2.0000000   2.0000000   2.0000000   2.0000000   2.0000000
            7           8           9          10          11          12
    1   2.0000000   2.0000000   2.0000000   2.0000000   2.0000000   2.0000000
           13          14          15          16          17          18
    1   2.0000000   2.0000000   2.0000000   2.0000000   2.0000000   2.0000000
           19          20          21          22          23          24
    1   2.0000000   2.0000000   2.0000000   2.0000000   2.0000000   2.0000000
           25          26          27          28          29          30
    1   2.0000000   2.0000000   2.0000000   2.0000000   2.0000000   1.9696047
           31          32          33          34          35          36
    1   1.9515990   1.9216723   1.8910186   1.0644307   0.9400468   0.1117419
           37          38          39          40          41          42
    1   0.0797794   0.0463289   0.0152161   0.0020968   0.0017954   0.0013826
           43          44          45
    1   0.0013416   0.0011520   0.0007932
Natural Orbitals stored in FCHK

  Amplitudes : 
  
 | HOLE  | ALPHA     | BETA      | PART  |    AMPLITUDE 
--------------------------------------------------
 |       | 111111000 | 111100000 |       |     9.0032547627410E-01
 |       | 111110100 | 111010000 |       |     1.0120256294777E-01
 |       | 111110010 | 110110000 |       |    -2.0297831439957E-01
--------------------------------------------------
*** Contributions RASCI wfn    Active:  96.12
                                 Hole:   0.00
                                 Part:   3.88

      Mulliken population analysis 
 ---------------------------------------------------
   Atom    Charge (a.u.)   Spin (a.u.)  
 ---------------------------------------------------
   1  C    0.096871       -0.065661 
   2  C    0.096871       -0.065661 
   3  C   -0.164935        0.428606 
   4  C   -0.139147        0.100987 
   5  C   -0.139147        0.100987 
   6  C   -0.164935        0.428606 
   7  C   -0.164935        0.428606 
   8  C   -0.164935        0.428606 
   9  C   -0.139147        0.100987 
  10  C   -0.139147        0.100987 
  11  H    0.130460        0.002523 
  12  H    0.125186        0.000715 
  13  H    0.125186        0.000715 
  14  H    0.130460        0.002523 
  15  H    0.130460        0.002523 
  16  H    0.125186        0.000715 
  17  H    0.125186        0.000715 
  18  H    0.130460        0.002523 
 ---------------------------------------------------
   Sum:   -0.000000        2.000000 
 ---------------------------------------------------
 
  
 NATURAL OCCUPATION NUMBERS (higher than 1.0E-05)
            1           2           3           4           5           6
    1   2.0000000   2.0000000   2.0000000   2.0000000   2.0000000   2.0000000
            7           8           9          10          11          12
    1   2.0000000   2.0000000   2.0000000   2.0000000   2.0000000   2.0000000
           13          14          15          16          17          18
    1   2.0000000   2.0000000   2.0000000   2.0000000   2.0000000   2.0000000
           19          20          21          22          23          24
    1   2.0000000   2.0000000   2.0000000   2.0000000   2.0000000   2.0000000
           25          26          27          28          29          30
    1   2.0000000   2.0000000   2.0000000   2.0000000   2.0000000   1.9696047
           31          32          33          34          35          36
    1   1.9515990   1.9216723   1.8910186   1.0644307   0.9400468   0.1117419
           37          38          39          40          41          42
    1   0.0797794   0.0463289   0.0152161   0.0020968   0.0017954   0.0013826
           43          44          45
    1   0.0013416   0.0011520   0.0007932
  
*** Unpaired Electrons
 Yamaguchi Nd:         3.01
 Head-Gordon Nu:       2.40
 Head-Gordon Nu_nl:    2.14
  
**************************************************
 RAS-CI total energy for state   2:   -383.409462390730
  Excitation energy (eV) =  1.737976507875
  State symmetry: B1g   (D2h      )
  <S^2>      :  2.0000
  Dipole Moment:    0.0000 X    -0.0000 Y    -0.0000 Z
  Trans. Moment:    0.0144 X    -0.0000 Y     0.0000 Z
  Strength   :  0.000009
  Natural transition orbitals ( 1 -> 2 ):
   e-/hole pair  1 alpha:  ampl =  0.624856 ( 39.0%)   [9 : 10]
   e-/hole pair  2 alpha:  ampl =  0.156490 (  2.4%)   [8 : 11]
   e-/hole pair  1 beta :  ampl =  0.609793 ( 37.2%)   [9 : 10]
   e-/hole pair  2 beta :  ampl =  0.155464 (  2.4%)   [8 : 11]
   Sum of square amplitudes: 0.84

 NATURAL OCCUPATION NUMBERS (higher than 1.0E-05)
            1           2           3           4           5           6
    1   2.0000000   2.0000000   2.0000000   2.0000000   2.0000000   2.0000000
            7           8           9          10          11          12
    1   2.0000000   2.0000000   2.0000000   2.0000000   2.0000000   2.0000000
           13          14          15          16          17          18
    1   2.0000000   2.0000000   2.0000000   2.0000000   2.0000000   2.0000000
           19          20          21          22          23          24
    1   2.0000000   2.0000000   2.0000000   2.0000000   2.0000000   2.0000000
           25          26          27          28          29          30
    1   2.0000000   2.0000000   2.0000000   2.0000000   2.0000000   1.9584482
           31          32          33          34          35          36
    1   1.9543649   1.9239081   1.4833724   1.4370591   0.5578157   0.5308880
           37          38          39          40          41          42
    1   0.0774163   0.0456783   0.0199901   0.0034997   0.0020292   0.0017551
           43          44          45
    1   0.0015924   0.0013332   0.0008494
Natural Orbitals stored in FCHK

  Amplitudes : 
  
 | HOLE  | ALPHA     | BETA      | PART  |    AMPLITUDE 
--------------------------------------------------
 |       | 111111000 | 110110000 |       |     6.3183076439143E-01
 |       | 111110010 | 111100000 |       |    -6.3616706261511E-01
 |       | 110111010 | 110101000 |       |    -1.0594497261020E-01
--------------------------------------------------
*** Contributions RASCI wfn    Active:  94.65
                                 Hole:   0.00
                                 Part:   5.35

      Mulliken population analysis 
 ---------------------------------------------------
   Atom    Charge (a.u.)   Spin (a.u.)  
 ---------------------------------------------------
   1  C    0.093925        0.134910 
   2  C    0.093925        0.134910 
   3  C   -0.158561        0.371994 
   4  C   -0.143662        0.057585 
   5  C   -0.143662        0.057585 
   6  C   -0.158561        0.371994 
   7  C   -0.158561        0.371994 
   8  C   -0.158561        0.371994 
   9  C   -0.143662        0.057585 
  10  C   -0.143662        0.057585 
  11  H    0.130072        0.002556 
  12  H    0.125189        0.000411 
  13  H    0.125189        0.000411 
  14  H    0.130072        0.002556 
  15  H    0.130072        0.002556 
  16  H    0.125189        0.000411 
  17  H    0.125189        0.000411 
  18  H    0.130072        0.002556 
 ---------------------------------------------------
   Sum:   -0.000000        2.000000 
 ---------------------------------------------------
 
  
 NATURAL OCCUPATION NUMBERS (higher than 1.0E-05)
            1           2           3           4           5           6
    1   2.0000000   2.0000000   2.0000000   2.0000000   2.0000000   2.0000000
            7           8           9          10          11          12
    1   2.0000000   2.0000000   2.0000000   2.0000000   2.0000000   2.0000000
           13          14          15          16          17          18
    1   2.0000000   2.0000000   2.0000000   2.0000000   2.0000000   2.0000000
           19          20          21          22          23          24
    1   2.0000000   2.0000000   2.0000000   2.0000000   2.0000000   2.0000000
           25          26          27          28          29          30
    1   2.0000000   2.0000000   2.0000000   2.0000000   2.0000000   1.9584482
           31          32          33          34          35          36
    1   1.9543649   1.9239081   1.4833724   1.4370591   0.5578157   0.5308880
           37          38          39          40          41          42
    1   0.0774163   0.0456783   0.0199901   0.0034997   0.0020292   0.0017551
           43          44          45
    1   0.0015924   0.0013332   0.0008494
  
*** Unpaired Electrons
 Yamaguchi Nd:         3.78
 Head-Gordon Nu:       2.49
 Head-Gordon Nu_nl:    2.57
  
**************************************************
 RAS-CI total energy for state   3:   -383.403036477987
  Excitation energy (eV) =  1.912834490127
  State symmetry: B3u   (D2h      )
  <S^2>      :  2.0000
  Dipole Moment:    0.0000 X     0.0000 Y    -0.0000 Z
  Trans. Moment:    0.0000 X     0.0000 Y     0.0000 Z
  Strength   :  0.000000
  Natural transition orbitals ( 1 -> 3 ):
   e-/hole pair  1 alpha:  ampl =  0.619518 ( 38.4%)   [9 : 10]
   e-/hole pair  2 alpha:  ampl =  0.122380 (  1.5%)   [8 : 11]
   e-/hole pair  1 beta :  ampl =  0.578351 ( 33.4%)   [9 : 10]
   e-/hole pair  2 beta :  ampl =  0.125780 (  1.6%)   [8 : 11]
   Sum of square amplitudes: 0.80

 NATURAL OCCUPATION NUMBERS (higher than 1.0E-05)
            1           2           3           4           5           6
    1   2.0000000   2.0000000   2.0000000   2.0000000   2.0000000   2.0000000
            7           8           9          10          11          12
    1   2.0000000   2.0000000   2.0000000   2.0000000   2.0000000   2.0000000
           13          14          15          16          17          18
    1   2.0000000   2.0000000   2.0000000   2.0000000   2.0000000   2.0000000
           19          20          21          22          23          24
    1   2.0000000   2.0000000   2.0000000   2.0000000   2.0000000   2.0000000
           25          26          27          28          29          30
    1   2.0000000   2.0000000   2.0000000   2.0000000   2.0000000   1.9563046
           31          32          33          34          35          36
    1   1.9170438   1.9079771   1.5183807   1.4129157   0.5502328   0.5481276
           37          38          39          40          41          42
    1   0.0862943   0.0746760   0.0173149   0.0025172   0.0021237   0.0019469
           43          44          45
    1   0.0015609   0.0015255   0.0010581
Natural Orbitals stored in FCHK

  Amplitudes : 
  
 | HOLE  | ALPHA     | BETA      | PART  |    AMPLITUDE 
--------------------------------------------------
 |       | 111111000 | 111010000 |       |     5.8083900780958E-01
 |       | 111111000 | 111000001 |       |     1.2314486402409E-01
 |       | 111110100 | 111100000 |       |     6.1767386939679E-01
 |       | 111110100 | 101101000 |       |    -1.0374847227580E-01
 |       | 111110001 | 111001000 |       |     1.1574521923355E-01
 |       | 111101100 | 101110000 |       |     1.3458957228487E-01
 |       | 111101001 | 111010000 |       |    -1.0211978967004E-01
 |       | 101111100 | 111100000 |       |     1.3884666135432E-01
--------------------------------------------------
*** Contributions RASCI wfn    Active:  95.80
                                 Hole:   0.00
                                 Part:   4.20

      Mulliken population analysis 
 ---------------------------------------------------
   Atom    Charge (a.u.)   Spin (a.u.)  
 ---------------------------------------------------
   1  C    0.086973        0.148092 
   2  C    0.086973        0.148092 
   3  C   -0.149344        0.201967 
   4  C   -0.149543        0.221220 
   5  C   -0.149543        0.221220 
   6  C   -0.149344        0.201967 
   7  C   -0.149344        0.201967 
   8  C   -0.149344        0.201967 
   9  C   -0.149543        0.221220 
  10  C   -0.149543        0.221220 
  11  H    0.130744        0.001150 
  12  H    0.124657        0.001617 
  13  H    0.124657        0.001617 
  14  H    0.130744        0.001150 
  15  H    0.130744        0.001150 
  16  H    0.124657        0.001617 
  17  H    0.124657        0.001617 
  18  H    0.130744        0.001150 
 ---------------------------------------------------
   Sum:   -0.000000        2.000000 
 ---------------------------------------------------
 
  
 NATURAL OCCUPATION NUMBERS (higher than 1.0E-05)
            1           2           3           4           5           6
    1   2.0000000   2.0000000   2.0000000   2.0000000   2.0000000   2.0000000
            7           8           9          10          11          12
    1   2.0000000   2.0000000   2.0000000   2.0000000   2.0000000   2.0000000
           13          14          15          16          17          18
    1   2.0000000   2.0000000   2.0000000   2.0000000   2.0000000   2.0000000
           19          20          21          22          23          24
    1   2.0000000   2.0000000   2.0000000   2.0000000   2.0000000   2.0000000
           25          26          27          28          29          30
    1   2.0000000   2.0000000   2.0000000   2.0000000   2.0000000   1.9563046
           31          32          33          34          35          36
    1   1.9170438   1.9079771   1.5183807   1.4129157   0.5502328   0.5481276
           37          38          39          40          41          42
    1   0.0862943   0.0746760   0.0173149   0.0025172   0.0021237   0.0019469
           43          44          45
    1   0.0015609   0.0015255   0.0010581
  
*** Unpaired Electrons
 Yamaguchi Nd:         3.94
 Head-Gordon Nu:       2.57
 Head-Gordon Nu_nl:    2.61
  
**************************************************
 RAS-CI total energy for state   4:   -383.364968944620
  Excitation energy (eV) =  2.948704776457
  State symmetry: B2u   (D2h      )
  <S^2>      :  2.0000
  Dipole Moment:    0.0000 X     0.0000 Y    -0.0000 Z
  Trans. Moment:   -0.0000 X    -0.0000 Y     0.0000 Z
  Strength   :  0.000000
  Natural transition orbitals ( 1 -> 4 ):
   e-/hole pair  1 alpha:  ampl =  0.129768 (  1.7%)   [9 : 10]
   e-/hole pair  2 alpha:  ampl =  0.103681 (  1.1%)   [8 : 11]
   e-/hole pair  1 beta :  ampl =  0.123964 (  1.5%)   [9 : 10]
   e-/hole pair  2 beta :  ampl =  0.107158 (  1.1%)   [8 : 11]
   Sum of square amplitudes: 0.08

 NATURAL OCCUPATION NUMBERS (higher than 1.0E-05)
            1           2           3           4           5           6
    1   2.0000000   2.0000000   2.0000000   2.0000000   2.0000000   2.0000000
            7           8           9          10          11          12
    1   2.0000000   2.0000000   2.0000000   2.0000000   2.0000000   2.0000000
           13          14          15          16          17          18
    1   2.0000000   2.0000000   2.0000000   2.0000000   2.0000000   2.0000000
           19          20          21          22          23          24
    1   2.0000000   2.0000000   2.0000000   2.0000000   2.0000000   2.0000000
           25          26          27          28          29          30
    1   2.0000000   2.0000000   2.0000000   2.0000000   2.0000000   1.9538071
           31          32          33          34          35          36
    1   1.9216609   1.8909321   1.8252205   1.0807522   0.9244089   0.1923900
           37          38          39          40          41          42
    1   0.0941609   0.0837114   0.0228356   0.0028319   0.0019229   0.0018840
           43          44          45
    1   0.0014460   0.0012509   0.0007847
Natural Orbitals stored in FCHK

  Amplitudes : 
  
 | HOLE  | ALPHA     | BETA      | PART  |    AMPLITUDE 
--------------------------------------------------
 |       | 111111000 | 111100000 |       |    -1.4077136294811E-01
 |       | 111110100 | 111010000 |       |     8.1635075200699E-01
 |       | 111110100 | 101011000 |       |    -1.8564941855589E-01
 |       | 111110001 | 101110000 |       |    -1.5522754199671E-01
 |       | 111101100 | 111001000 |       |    -1.3843971238926E-01
 |       | 111100101 | 111010000 |       |    -1.7945968688503E-01
 |       | 111100101 | 101011000 |       |     1.0837537454076E-01
 |       | 111011100 | 101110000 |       |    -1.0555299602066E-01
--------------------------------------------------
*** Contributions RASCI wfn    Active:  94.63
                                 Hole:   0.00
                                 Part:   5.37

      Mulliken population analysis 
 ---------------------------------------------------
   Atom    Charge (a.u.)   Spin (a.u.)  
 ---------------------------------------------------
   1  C    0.090371        0.400780 
   2  C    0.090371        0.400780 
   3  C   -0.144384       -0.089759 
   4  C   -0.156037        0.387130 
   5  C   -0.156037        0.387130 
   6  C   -0.144384       -0.089759 
   7  C   -0.144384       -0.089759 
   8  C   -0.144384       -0.089759 
   9  C   -0.156037        0.387130 
  10  C   -0.156037        0.387130 
  11  H    0.130855       -0.000492 
  12  H    0.124382        0.002732 
  13  H    0.124382        0.002732 
  14  H    0.130855       -0.000492 
  15  H    0.130855       -0.000492 
  16  H    0.124382        0.002732 
  17  H    0.124382        0.002732 
  18  H    0.130855       -0.000492 
 ---------------------------------------------------
   Sum:   -0.000000        2.000000 
 ---------------------------------------------------
 
  
 NATURAL OCCUPATION NUMBERS (higher than 1.0E-05)
            1           2           3           4           5           6
    1   2.0000000   2.0000000   2.0000000   2.0000000   2.0000000   2.0000000
            7           8           9          10          11          12
    1   2.0000000   2.0000000   2.0000000   2.0000000   2.0000000   2.0000000
           13          14          15          16          17          18
    1   2.0000000   2.0000000   2.0000000   2.0000000   2.0000000   2.0000000
           19          20          21          22          23          24
    1   2.0000000   2.0000000   2.0000000   2.0000000   2.0000000   2.0000000
           25          26          27          28          29          30
    1   2.0000000   2.0000000   2.0000000   2.0000000   2.0000000   1.9538071
           31          32          33          34          35          36
    1   1.9216609   1.8909321   1.8252205   1.0807522   0.9244089   0.1923900
           37          38          39          40          41          42
    1   0.0941609   0.0837114   0.0228356   0.0028319   0.0019229   0.0018840
           43          44          45
    1   0.0014460   0.0012509   0.0007847
  
*** Unpaired Electrons
 Yamaguchi Nd:         3.51
 Head-Gordon Nu:       2.66
 Head-Gordon Nu_nl:    2.33
  
**************************************************
 RAS-CI total energy for state   5:   -383.351838754668
  Excitation energy (eV) =  3.305995423442
  State symmetry: B3u   (D2h      )
  <S^2>      :  2.0000
  Dipole Moment:   -0.0000 X     0.0000 Y    -0.0000 Z
  Trans. Moment:    0.0000 X    -0.0000 Y     0.0000 Z
  Strength   :  0.000000
  Natural transition orbitals ( 1 -> 5 ):
   e-/hole pair  1 alpha:  ampl =  0.617769 ( 38.2%)   [9 : 10]
   e-/hole pair  2 alpha:  ampl =  0.082017 (  0.7%)   [8 : 11]
   e-/hole pair  1 beta :  ampl =  0.639152 ( 40.9%)   [9 : 10]
   e-/hole pair  2 beta :  ampl =  0.074804 (  0.6%)   [8 : 11]
   Sum of square amplitudes: 0.81

 NATURAL OCCUPATION NUMBERS (higher than 1.0E-05)
            1           2           3           4           5           6
    1   2.0000000   2.0000000   2.0000000   2.0000000   2.0000000   2.0000000
            7           8           9          10          11          12
    1   2.0000000   2.0000000   2.0000000   2.0000000   2.0000000   2.0000000
           13          14          15          16          17          18
    1   2.0000000   2.0000000   2.0000000   2.0000000   2.0000000   2.0000000
           19          20          21          22          23          24
    1   2.0000000   2.0000000   2.0000000   2.0000000   2.0000000   2.0000000
           25          26          27          28          29          30
    1   2.0000000   2.0000000   2.0000000   2.0000000   2.0000000   1.9777194
           31          32          33          34          35          36
    1   1.9636015   1.9423119   1.4915517   1.4624409   0.5542831   0.4960650
           37          38          39          40          41          42
    1   0.0583405   0.0317566   0.0076354   0.0031906   0.0030084   0.0026784
           43          44          45
    1   0.0026624   0.0016936   0.0010607
Natural Orbitals stored in FCHK

  Amplitudes : 
  
 | HOLE  | ALPHA     | BETA      | PART  |    AMPLITUDE 
--------------------------------------------------
 |       | 111111000 | 111010000 |       |     6.6171274145151E-01
 |       | 111110100 | 111100000 |       |    -6.3781236646287E-01
--------------------------------------------------
*** Contributions RASCI wfn    Active:  96.89
                                 Hole:   0.00
                                 Part:   3.11

      Mulliken population analysis 
 ---------------------------------------------------
   Atom    Charge (a.u.)   Spin (a.u.)  
 ---------------------------------------------------
   1  C    0.106567        0.187933 
   2  C    0.106567        0.187933 
   3  C   -0.159675        0.171518 
   4  C   -0.149149        0.231940 
   5  C   -0.149149        0.231940 
   6  C   -0.159675        0.171518 
   7  C   -0.159675        0.171518 
   8  C   -0.159675        0.171518 
   9  C   -0.149149        0.231940 
  10  C   -0.149148        0.231940 
  11  H    0.130701        0.000967 
  12  H    0.124838        0.001608 
  13  H    0.124838        0.001608 
  14  H    0.130701        0.000967 
  15  H    0.130701        0.000967 
  16  H    0.124838        0.001608 
  17  H    0.124838        0.001608 
  18  H    0.130701        0.000967 
 ---------------------------------------------------
   Sum:   -0.000000        2.000000 
 ---------------------------------------------------
 
  
 NATURAL OCCUPATION NUMBERS (higher than 1.0E-05)
            1           2           3           4           5           6
    1   2.0000000   2.0000000   2.0000000   2.0000000   2.0000000   2.0000000
            7           8           9          10          11          12
    1   2.0000000   2.0000000   2.0000000   2.0000000   2.0000000   2.0000000
           13          14          15          16          17          18
    1   2.0000000   2.0000000   2.0000000   2.0000000   2.0000000   2.0000000
           19          20          21          22          23          24
    1   2.0000000   2.0000000   2.0000000   2.0000000   2.0000000   2.0000000
           25          26          27          28          29          30
    1   2.0000000   2.0000000   2.0000000   2.0000000   2.0000000   1.9777194
           31          32          33          34          35          36
    1   1.9636015   1.9423119   1.4915517   1.4624409   0.5542831   0.4960650
           37          38          39          40          41          42
    1   0.0583405   0.0317566   0.0076354   0.0031906   0.0030084   0.0026784
           43          44          45
    1   0.0026624   0.0016936   0.0010607
  
*** Unpaired Electrons
 Yamaguchi Nd:         3.54
 Head-Gordon Nu:       2.32
 Head-Gordon Nu_nl:    2.43
  
**************************************************
 RAS-CI total energy for state   6:   -383.350460822792
  Excitation energy (eV) =  3.343490857487
  State symmetry: Ag    (D2h      )
  <S^2>      :  2.0000
  Dipole Moment:    0.0000 X     0.0000 Y    -0.0000 Z
  Trans. Moment:    0.0000 X    -0.1739 Y     0.0000 Z
  Strength   :  0.002477
  Natural transition orbitals ( 1 -> 6 ):
   e-/hole pair  1 alpha:  ampl =  0.426461 ( 18.2%)   [9 : 10]
   e-/hole pair  2 alpha:  ampl =  0.159617 (  2.5%)   [8 : 11]
   e-/hole pair  1 beta :  ampl =  0.546744 ( 29.9%)   [9 : 10]
   e-/hole pair  2 beta :  ampl =  0.171749 (  2.9%)   [8 : 11]
   Sum of square amplitudes: 0.56

 NATURAL OCCUPATION NUMBERS (higher than 1.0E-05)
            1           2           3           4           5           6
    1   2.0000000   2.0000000   2.0000000   2.0000000   2.0000000   2.0000000
            7           8           9          10          11          12
    1   2.0000000   2.0000000   2.0000000   2.0000000   2.0000000   2.0000000
           13          14          15          16          17          18
    1   2.0000000   2.0000000   2.0000000   2.0000000   2.0000000   2.0000000
           19          20          21          22          23          24
    1   2.0000000   2.0000000   2.0000000   2.0000000   2.0000000   2.0000000
           25          26          27          28          29          30
    1   2.0000000   2.0000000   2.0000000   2.0000000   2.0000000   1.9594694
           31          32          33          34          35          36
    1   1.7930527   1.7186369   1.6184776   1.5841001   0.5265674   0.2707543
           37          38          39          40          41          42
    1   0.2638700   0.2330882   0.0185681   0.0042670   0.0022634   0.0020687
           43          44          45
    1   0.0018287   0.0017459   0.0012417
Natural Orbitals stored in FCHK

  Amplitudes : 
  
 | HOLE  | ALPHA     | BETA      | PART  |    AMPLITUDE 
--------------------------------------------------
 |       | 111111000 | 101110000 |       |     5.4585772656016E-01
 |       | 111111000 | 101100001 |       |     1.2408943051144E-01
 |       | 111110100 | 110110000 |       |    -3.2406308606261E-01
 |       | 111110010 | 111010000 |       |     3.4536886026100E-01
 |       | 111110001 | 111100000 |       |    -4.1792613174359E-01
 |       | 111110001 | 101101000 |       |     1.0801039624095E-01
 |       | 111101100 | 111010000 |       |     1.1334732709531E-01
 |       | 111101001 | 101110000 |       |    -1.2313670921756E-01
 |       | 111011100 | 111100000 |       |     1.0658482177725E-01
 |       | 101111001 | 111100000 |       |    -1.0705767494705E-01
--------------------------------------------------
*** Contributions RASCI wfn    Active:  95.06
                                 Hole:   0.00
                                 Part:   4.94

      Mulliken population analysis 
 ---------------------------------------------------
   Atom    Charge (a.u.)   Spin (a.u.)  
 ---------------------------------------------------
   1  C    0.094561        0.032653 
   2  C    0.094561        0.032653 
   3  C   -0.166798        0.247199 
   4  C   -0.135238        0.233098 
   5  C   -0.135238        0.233098 
   6  C   -0.166798        0.247199 
   7  C   -0.166798        0.247199 
   8  C   -0.166798        0.247199 
   9  C   -0.135238        0.233098 
  10  C   -0.135238        0.233098 
  11  H    0.130328        0.001620 
  12  H    0.124428        0.001756 
  13  H    0.124428        0.001756 
  14  H    0.130328        0.001620 
  15  H    0.130328        0.001620 
  16  H    0.124428        0.001756 
  17  H    0.124428        0.001756 
  18  H    0.130328        0.001620 
 ---------------------------------------------------
   Sum:   -0.000000        2.000000 
 ---------------------------------------------------
 
  
 NATURAL OCCUPATION NUMBERS (higher than 1.0E-05)
            1           2           3           4           5           6
    1   2.0000000   2.0000000   2.0000000   2.0000000   2.0000000   2.0000000
            7           8           9          10          11          12
    1   2.0000000   2.0000000   2.0000000   2.0000000   2.0000000   2.0000000
           13          14          15          16          17          18
    1   2.0000000   2.0000000   2.0000000   2.0000000   2.0000000   2.0000000
           19          20          21          22          23          24
    1   2.0000000   2.0000000   2.0000000   2.0000000   2.0000000   2.0000000
           25          26          27          28          29          30
    1   2.0000000   2.0000000   2.0000000   2.0000000   2.0000000   1.9594694
           31          32          33          34          35          36
    1   1.7930527   1.7186369   1.6184776   1.5841001   0.5265674   0.2707543
           37          38          39          40          41          42
    1   0.2638700   0.2330882   0.0185681   0.0042670   0.0022634   0.0020687
           43          44          45
    1   0.0018287   0.0017459   0.0012417
  
*** Unpaired Electrons
 Yamaguchi Nd:         4.39
 Head-Gordon Nu:       2.65
 Head-Gordon Nu_nl:    2.40
  
**************************************************
 RAS-CI total energy for state   7:   -383.326012486237
  Excitation energy (eV) =  4.008763943182
  State symmetry: Ag    (D2h      )
  <S^2>      :  2.0000
  Dipole Moment:   -0.0000 X     0.0000 Y    -0.0000 Z
  Trans. Moment:   -0.0000 X     0.0993 Y     0.0000 Z
  Strength   :  0.000968
  Natural transition orbitals ( 1 -> 7 ):
   e-/hole pair  1 alpha:  ampl =  0.258272 (  6.7%)   [9 : 10]
   e-/hole pair  2 alpha:  ampl =  0.209228 (  4.4%)   [8 : 11]
   e-/hole pair  1 beta :  ampl =  0.275206 (  7.6%)   [9 : 10]
   e-/hole pair  2 beta :  ampl =  0.244492 (  6.0%)   [8 : 11]
   Sum of square amplitudes: 0.26

 NATURAL OCCUPATION NUMBERS (higher than 1.0E-05)
            1           2           3           4           5           6
    1   2.0000000   2.0000000   2.0000000   2.0000000   2.0000000   2.0000000
            7           8           9          10          11          12
    1   2.0000000   2.0000000   2.0000000   2.0000000   2.0000000   2.0000000
           13          14          15          16          17          18
    1   2.0000000   2.0000000   2.0000000   2.0000000   2.0000000   2.0000000
           19          20          21          22          23          24
    1   2.0000000   2.0000000   2.0000000   2.0000000   2.0000000   2.0000000
           25          26          27          28          29          30
    1   2.0000000   2.0000000   2.0000000   2.0000000   2.0000000   1.9396363
           31          32          33          34          35          36
    1   1.8396838   1.7016585   1.5971356   1.3992519   0.5421264   0.4484220
           37          38          39          40          41          42
    1   0.3751298   0.1152165   0.0275300   0.0047638   0.0025094   0.0024811
           43          44          45
    1   0.0017293   0.0016871   0.0010382
Natural Orbitals stored in FCHK

  Amplitudes : 
  
 | HOLE  | ALPHA     | BETA      | PART  |    AMPLITUDE 
--------------------------------------------------
 |       | 111111000 | 111000100 |       |     2.1900944463398E-01
 |       | 111111000 | 101110000 |       |    -2.6278207861774E-01
 |       | 111110100 | 111001000 |       |     2.1238842090980E-01
 |       | 111110100 | 110110000 |       |    -4.2042926410116E-01
 |       | 111110010 | 111010000 |       |     4.6341234118768E-01
 |       | 111110010 | 011110000 |       |     1.8544430826329E-01
 |       | 111110001 | 111100000 |       |     1.9414496680703E-01
 |       | 111101100 | 111010000 |       |    -2.4114730262875E-01
 |       | 111011100 | 111100000 |       |    -2.3452627890479E-01
 |       | 111110000 | 110110000 |  60   |    -1.0544042176333E-01
--------------------------------------------------
*** Contributions RASCI wfn    Active:  92.48
                                 Hole:   0.00
                                 Part:   7.52

      Mulliken population analysis 
 ---------------------------------------------------
   Atom    Charge (a.u.)   Spin (a.u.)  
 ---------------------------------------------------
   1  C    0.114866        0.264132 
   2  C    0.114866        0.264132 
   3  C   -0.165285        0.188441 
   4  C   -0.147138        0.176850 
   5  C   -0.147138        0.176850 
   6  C   -0.165285        0.188441 
   7  C   -0.165285        0.188441 
   8  C   -0.165285        0.188441 
   9  C   -0.147138        0.176850 
  10  C   -0.147138        0.176850 
  11  H    0.130251        0.001366 
  12  H    0.124738        0.001277 
  13  H    0.124738        0.001277 
  14  H    0.130251        0.001366 
  15  H    0.130251        0.001366 
  16  H    0.124738        0.001277 
  17  H    0.124738        0.001277 
  18  H    0.130251        0.001366 
 ---------------------------------------------------
   Sum:   -0.000000        2.000000 
 ---------------------------------------------------
 
  
 NATURAL OCCUPATION NUMBERS (higher than 1.0E-05)
            1           2           3           4           5           6
    1   2.0000000   2.0000000   2.0000000   2.0000000   2.0000000   2.0000000
            7           8           9          10          11          12
    1   2.0000000   2.0000000   2.0000000   2.0000000   2.0000000   2.0000000
           13          14          15          16          17          18
    1   2.0000000   2.0000000   2.0000000   2.0000000   2.0000000   2.0000000
           19          20          21          22          23          24
    1   2.0000000   2.0000000   2.0000000   2.0000000   2.0000000   2.0000000
           25          26          27          28          29          30
    1   2.0000000   2.0000000   2.0000000   2.0000000   2.0000000   1.9396363
           31          32          33          34          35          36
    1   1.8396838   1.7016585   1.5971356   1.3992519   0.5421264   0.4484220
           37          38          39          40          41          42
    1   0.3751298   0.1152165   0.0275300   0.0047638   0.0025094   0.0024811
           43          44          45
    1   0.0017293   0.0016871   0.0010382
  
*** Unpaired Electrons
 Yamaguchi Nd:         4.80
 Head-Gordon Nu:       3.05
 Head-Gordon Nu_nl:    3.01
  
**************************************************
 RAS-CI total energy for state   8:   -383.318446621426
  Excitation energy (eV) =  4.214641599423
  State symmetry: B1g   (D2h      )
  <S^2>      :  2.0000
  Dipole Moment:    0.0000 X     0.0000 Y    -0.0000 Z
  Trans. Moment:    0.2934 X     0.0000 Y    -0.0000 Z
  Strength   :  0.008890
  Natural transition orbitals ( 1 -> 8 ):
   e-/hole pair  1 alpha:  ampl =  0.433323 ( 18.8%)   [9 : 10]
   e-/hole pair  2 alpha:  ampl =  0.219892 (  4.8%)   [8 : 11]
   e-/hole pair  1 beta :  ampl =  0.337163 ( 11.4%)   [9 : 10]
   e-/hole pair  2 beta :  ampl =  0.097362 (  0.9%)   [8 : 11]
   Sum of square amplitudes: 0.38

 NATURAL OCCUPATION NUMBERS (higher than 1.0E-05)
            1           2           3           4           5           6
    1   2.0000000   2.0000000   2.0000000   2.0000000   2.0000000   2.0000000
            7           8           9          10          11          12
    1   2.0000000   2.0000000   2.0000000   2.0000000   2.0000000   2.0000000
           13          14          15          16          17          18
    1   2.0000000   2.0000000   2.0000000   2.0000000   2.0000000   2.0000000
           19          20          21          22          23          24
    1   2.0000000   2.0000000   2.0000000   2.0000000   2.0000000   2.0000000
           25          26          27          28          29          30
    1   2.0000000   2.0000000   2.0000000   2.0000000   2.0000000   1.9606018
           31          32          33          34          35          36
    1   1.8759412   1.6402688   1.5834474   1.2361854   0.6580266   0.6136560
           37          38          39          40          41          42
    1   0.2394019   0.1590465   0.0192795   0.0050005   0.0023409   0.0021259
           43          44          45
    1   0.0018534   0.0017258   0.0010983
Natural Orbitals stored in FCHK

  Amplitudes : 
  
 | HOLE  | ALPHA     | BETA      | PART  |    AMPLITUDE 
--------------------------------------------------
 |       | 111111000 | 111001000 |       |     3.1464247610013E-01
 |       | 111110100 | 101110000 |       |    -5.0312608087576E-01
 |       | 111110010 | 111100000 |       |     2.2075118982140E-01
 |       | 111110010 | 110011000 |       |     1.0871366984242E-01
 |       | 111110001 | 111010000 |       |     3.7816909798445E-01
 |       | 111101100 | 111100000 |       |    -4.2450629278286E-01
 |       | 111101100 | 101101000 |       |     1.8874848780944E-01
 |       | 111101001 | 111001000 |       |    -1.5480018654170E-01
--------------------------------------------------
*** Contributions RASCI wfn    Active:  94.99
                                 Hole:   0.00
                                 Part:   5.01

      Mulliken population analysis 
 ---------------------------------------------------
   Atom    Charge (a.u.)   Spin (a.u.)  
 ---------------------------------------------------
   1  C    0.058453        0.140287 
   2  C    0.058453        0.140287 
   3  C   -0.138896        0.070148 
   4  C   -0.145043        0.356483 
   5  C   -0.145043        0.356483 
   6  C   -0.138896        0.070148 
   7  C   -0.138896        0.070148 
   8  C   -0.138896        0.070148 
   9  C   -0.145043        0.356483 
  10  C   -0.145043        0.356483 
  11  H    0.130523        0.000559 
  12  H    0.124190        0.002666 
  13  H    0.124190        0.002666 
  14  H    0.130523        0.000559 
  15  H    0.130523        0.000559 
  16  H    0.124190        0.002666 
  17  H    0.124190        0.002666 
  18  H    0.130523        0.000559 
 ---------------------------------------------------
   Sum:   -0.000000        2.000000 
 ---------------------------------------------------
 
  
 NATURAL OCCUPATION NUMBERS (higher than 1.0E-05)
            1           2           3           4           5           6
    1   2.0000000   2.0000000   2.0000000   2.0000000   2.0000000   2.0000000
            7           8           9          10          11          12
    1   2.0000000   2.0000000   2.0000000   2.0000000   2.0000000   2.0000000
           13          14          15          16          17          18
    1   2.0000000   2.0000000   2.0000000   2.0000000   2.0000000   2.0000000
           19          20          21          22          23          24
    1   2.0000000   2.0000000   2.0000000   2.0000000   2.0000000   2.0000000
           25          26          27          28          29          30
    1   2.0000000   2.0000000   2.0000000   2.0000000   2.0000000   1.9606018
           31          32          33          34          35          36
    1   1.8759412   1.6402688   1.5834474   1.2361854   0.6580266   0.6136560
           37          38          39          40          41          42
    1   0.2394019   0.1590465   0.0192795   0.0050005   0.0023409   0.0021259
           43          44          45
    1   0.0018534   0.0017258   0.0010983
  
*** Unpaired Electrons
 Yamaguchi Nd:         5.02
 Head-Gordon Nu:       3.41
 Head-Gordon Nu_nl:    3.50
  
**************************************************
 RAS-CI total energy for state   9:   -383.312253290384
  Excitation energy (eV) =  4.383170711574
  State symmetry: B3u   (D2h      )
  <S^2>      :  2.0000
  Dipole Moment:    0.0000 X    -0.0000 Y    -0.0000 Z
  Trans. Moment:   -0.0000 X     0.0000 Y     0.0000 Z
  Strength   :  0.000000
  Natural transition orbitals ( 1 -> 9 ):
   e-/hole pair  1 alpha:  ampl =  0.535808 ( 28.7%)   [9 : 10]
   e-/hole pair  2 alpha:  ampl =  0.158936 (  2.5%)   [8 : 11]
   e-/hole pair  1 beta :  ampl =  0.532991 ( 28.4%)   [9 : 10]
   e-/hole pair  2 beta :  ampl =  0.323236 ( 10.4%)   [8 : 11]
   Sum of square amplitudes: 0.73

 NATURAL OCCUPATION NUMBERS (higher than 1.0E-05)
            1           2           3           4           5           6
    1   2.0000000   2.0000000   2.0000000   2.0000000   2.0000000   2.0000000
            7           8           9          10          11          12
    1   2.0000000   2.0000000   2.0000000   2.0000000   2.0000000   2.0000000
           13          14          15          16          17          18
    1   2.0000000   2.0000000   2.0000000   2.0000000   2.0000000   2.0000000
           19          20          21          22          23          24
    1   2.0000000   2.0000000   2.0000000   2.0000000   2.0000000   2.0000000
           25          26          27          28          29          30
    1   2.0000000   2.0000000   2.0000000   2.0000000   2.0000000   1.9201845
           31          32          33          34          35          36
    1   1.9014196   1.8432719   1.4609751   1.2169801   0.8925194   0.5342818
           37          38          39          40          41          42
    1   0.1033188   0.0694753   0.0466423   0.0035568   0.0018471   0.0017977
           43          44          45
    1   0.0015734   0.0013885   0.0007675
Natural Orbitals stored in FCHK

  Amplitudes : 
  
 | HOLE  | ALPHA     | BETA      | PART  |    AMPLITUDE 
--------------------------------------------------
 |       | 111111000 | 110101000 |       |     5.4300479410956E-01
 |       | 111111000 | 011110000 |       |     3.1848825137736E-01
 |       | 111110010 | 110100010 |       |    -1.9523833522602E-01
 |       | 111101010 | 111100000 |       |     5.3757502224745E-01
 |       | 110111010 | 110110000 |       |    -2.1463634465132E-01
 |       | 111110000 | 111100000 |  50   |    -1.1687250574598E-01
 |       | 111110000 | 111100000 |  60   |     1.0714432730887E-01
--------------------------------------------------
*** Contributions RASCI wfn    Active:  91.67
                                 Hole:   0.00
                                 Part:   8.33

      Mulliken population analysis 
 ---------------------------------------------------
   Atom    Charge (a.u.)   Spin (a.u.)  
 ---------------------------------------------------
   1  C    0.092142        0.128444 
   2  C    0.092142        0.128444 
   3  C   -0.166807        0.352997 
   4  C   -0.134034        0.079803 
   5  C   -0.134034        0.079803 
   6  C   -0.166807        0.352997 
   7  C   -0.166807        0.352997 
   8  C   -0.166807        0.352997 
   9  C   -0.134034        0.079803 
  10  C   -0.134034        0.079803 
  11  H    0.129755        0.002424 
  12  H    0.125015        0.000554 
  13  H    0.125015        0.000554 
  14  H    0.129755        0.002424 
  15  H    0.129755        0.002424 
  16  H    0.125015        0.000554 
  17  H    0.125015        0.000554 
  18  H    0.129755        0.002424 
 ---------------------------------------------------
   Sum:   -0.000000        2.000000 
 ---------------------------------------------------
 
  
 NATURAL OCCUPATION NUMBERS (higher than 1.0E-05)
            1           2           3           4           5           6
    1   2.0000000   2.0000000   2.0000000   2.0000000   2.0000000   2.0000000
            7           8           9          10          11          12
    1   2.0000000   2.0000000   2.0000000   2.0000000   2.0000000   2.0000000
           13          14          15          16          17          18
    1   2.0000000   2.0000000   2.0000000   2.0000000   2.0000000   2.0000000
           19          20          21          22          23          24
    1   2.0000000   2.0000000   2.0000000   2.0000000   2.0000000   2.0000000
           25          26          27          28          29          30
    1   2.0000000   2.0000000   2.0000000   2.0000000   2.0000000   1.9201845
           31          32          33          34          35          36
    1   1.9014196   1.8432719   1.4609751   1.2169801   0.8925194   0.5342818
           37          38          39          40          41          42
    1   0.1033188   0.0694753   0.0466423   0.0035568   0.0018471   0.0017977
           43          44          45
    1   0.0015734   0.0013885   0.0007675
  
*** Unpaired Electrons
 Yamaguchi Nd:         4.58
 Head-Gordon Nu:       3.31
 Head-Gordon Nu_nl:    3.33
  
**************************************************
 RAS-CI total energy for state  10:   -383.311975723794
  Excitation energy (eV) =  4.390723682781
  State symmetry: B1g   (D2h      )
  <S^2>      :  2.0000
  Dipole Moment:    0.0000 X     0.0000 Y    -0.0000 Z
  Trans. Moment:    1.3612 X     0.0000 Y    -0.0000 Z
  Strength   :  0.199303
  Natural transition orbitals ( 1 -> 10 ):
   e-/hole pair  1 alpha:  ampl =  0.568671 ( 32.3%)   [9 : 10]
   e-/hole pair  2 alpha:  ampl =  0.127698 (  1.6%)   [8 : 11]
   e-/hole pair  1 beta :  ampl =  0.602999 ( 36.4%)   [9 : 10]
   e-/hole pair  2 beta :  ampl =  0.259325 (  6.7%)   [8 : 11]
   Sum of square amplitudes: 0.79

 NATURAL OCCUPATION NUMBERS (higher than 1.0E-05)
            1           2           3           4           5           6
    1   2.0000000   2.0000000   2.0000000   2.0000000   2.0000000   2.0000000
            7           8           9          10          11          12
    1   2.0000000   2.0000000   2.0000000   2.0000000   2.0000000   2.0000000
           13          14          15          16          17          18
    1   2.0000000   2.0000000   2.0000000   2.0000000   2.0000000   2.0000000
           19          20          21          22          23          24
    1   2.0000000   2.0000000   2.0000000   2.0000000   2.0000000   2.0000000
           25          26          27          28          29          30
    1   2.0000000   2.0000000   2.0000000   2.0000000   2.0000000   1.9670577
           31          32          33          34          35          36
    1   1.9397416   1.8190915   1.5117928   1.4469355   0.6870916   0.4438886
           37          38          39          40          41          42
    1   0.0892833   0.0610600   0.0114781   0.0080518   0.0040963   0.0037950
           43          44          45
    1   0.0027210   0.0024635   0.0014517
Natural Orbitals stored in FCHK

  Amplitudes : 
  
 | HOLE  | ALPHA     | BETA      | PART  |    AMPLITUDE 
--------------------------------------------------
 |       | 111111000 | 111001000 |       |    -2.8152806149774E-01
 |       | 111111000 | 110110000 |       |     6.1081050494810E-01
 |       | 111111000 | 110100001 |       |     1.1986066669294E-01
 |       | 111110010 | 111100000 |       |     5.7536895762501E-01
 |       | 111110001 | 111010000 |       |    -1.3308656338030E-01
 |       | 101111010 | 111100000 |       |     1.1031548342370E-01
--------------------------------------------------
*** Contributions RASCI wfn    Active:  96.15
                                 Hole:   0.00
                                 Part:   3.85

      Mulliken population analysis 
 ---------------------------------------------------
   Atom    Charge (a.u.)   Spin (a.u.)  
 ---------------------------------------------------
   1  C    0.142912        0.074464 
   2  C    0.142912        0.074464 
   3  C   -0.194133        0.378130 
   4  C   -0.132364        0.081560 
   5  C   -0.132364        0.081560 
   6  C   -0.194133        0.378130 
   7  C   -0.194133        0.378130 
   8  C   -0.194133        0.378130 
   9  C   -0.132364        0.081560 
  10  C   -0.132364        0.081560 
  11  H    0.129906        0.002525 
  12  H    0.125135        0.000553 
  13  H    0.125135        0.000553 
  14  H    0.129906        0.002525 
  15  H    0.129906        0.002525 
  16  H    0.125135        0.000553 
  17  H    0.125135        0.000553 
  18  H    0.129906        0.002525 
 ---------------------------------------------------
   Sum:   -0.000000        2.000000 
 ---------------------------------------------------
 
  
 NATURAL OCCUPATION NUMBERS (higher than 1.0E-05)
            1           2           3           4           5           6
    1   2.0000000   2.0000000   2.0000000   2.0000000   2.0000000   2.0000000
            7           8           9          10          11          12
    1   2.0000000   2.0000000   2.0000000   2.0000000   2.0000000   2.0000000
           13          14          15          16          17          18
    1   2.0000000   2.0000000   2.0000000   2.0000000   2.0000000   2.0000000
           19          20          21          22          23          24
    1   2.0000000   2.0000000   2.0000000   2.0000000   2.0000000   2.0000000
           25          26          27          28          29          30
    1   2.0000000   2.0000000   2.0000000   2.0000000   2.0000000   1.9670577
           31          32          33          34          35          36
    1   1.9397416   1.8190915   1.5117928   1.4469355   0.6870916   0.4438886
           37          38          39          40          41          42
    1   0.0892833   0.0610600   0.0114781   0.0080518   0.0040963   0.0037950
           43          44          45
    1   0.0027210   0.0024635   0.0014517
  
*** Unpaired Electrons
 Yamaguchi Nd:         4.00
 Head-Gordon Nu:       2.63
 Head-Gordon Nu_nl:    2.65
  
--------------------------------------------------
 Interstate Transition Properties
--------------------------------------------------
State A: Root  1
State B: Root  2
  
Angular momentum components
< B | Lx | A > =     0.000000000i
< B | Ly | A > =     0.000000000i
< B | Lz | A > =    -0.000000000i
  
Norm of one-particle transition density matrix
||gamma^AB||_total       =  0.917863
||gamma^AB||_symmetrized =  0.787021
||gamma^AB||_anti-symm   =  0.472303
  
Spin-orbit couplings
 Using HF (reference) density for the 2-elec mean-field SOC contribution
KET: S',Sz' (Root   1) =  1.000 1.000
BRA: S ,Sz  (Root   2) =  1.000 1.000
Clebsh-Gordan coefficient: < 1.000, 1.000; 1.000, 0.000| 1.000, 1.000> =  0.707
 Computing 1e-SO integrals
 1e Reduced matrix elements (cm-1)
<S|| Hso(L-) ||S'> =     0.0000000000     0.0000000000
<S|| Hso(L0) ||S'> =     0.0000000000    -0.0000000000
<S|| Hso(L+) ||S'> =     0.0000000000    -0.0000000000
 1-elec SOC matrix (cm-1): < B(S,Sz) | Hso(1e) | A(S',Sz') >
                     |Sz'=-1.00>              |Sz'= 0.00>              |Sz'= 1.00>
 <Sz=-1.00|   -0.000000    0.000000i     0.000000   -0.000000i     0.000000   -0.000000i
 <Sz= 0.00|   -0.000000   -0.000000i    -0.000000    0.000000i     0.000000   -0.000000i
 <Sz= 1.00|    0.000000   -0.000000i    -0.000000   -0.000000i    -0.000000   -0.000000i
1-elec SOCC =     0.000000000 cm-1
 Computing 2e-SOMF integrals
 Averagin spin alpha/beta reference densities
 2e-SOMF Reduced matrix elements (cm-1)
<S|| Hso(L-) ||S'> =    -0.0000000000    -0.0000000000
<S|| Hso(L0) ||S'> =     0.0000000000     0.0000000000
<S|| Hso(L+) ||S'> =    -0.0000000000     0.0000000000
 2-elec mean-field SOC matrix (cm-1): < B(S,Sz) | Hso(2e-mf) | A(S',Sz') >
                     |Sz'=-1.00>              |Sz'= 0.00>              |Sz'= 1.00>
 <Sz=-1.00|    0.000000   -0.000000i    -0.000000    0.000000i    -0.000000    0.000000i
 <Sz= 0.00|    0.000000    0.000000i     0.000000    0.000000i    -0.000000    0.000000i
 <Sz= 1.00|   -0.000000    0.000000i     0.000000    0.000000i     0.000000    0.000000i
 Total mean-field SOC matrix (cm-1): < B(S,Sz) | Hsomf | A(S',Sz') >
                     |Sz'=-1.00>              |Sz'= 0.00>              |Sz'= 1.00>
 <Sz=-1.00|   -0.000000   -0.000000i     0.000000   -0.000000i     0.000000   -0.000000i
 <Sz= 0.00|   -0.000000   -0.000000i    -0.000000    0.000000i     0.000000   -0.000000i
 <Sz= 1.00|    0.000000    0.000000i    -0.000000   -0.000000i    -0.000000    0.000000i
Mean-Field SOCC =     0.000000000 cm-1
   
**************************************************
State A: Root  1
State B: Root  3
  
Angular momentum components
< B | Lx | A > =     0.000000000i
< B | Ly | A > =     0.000000000i
< B | Lz | A > =     0.417400723i
  
Norm of one-particle transition density matrix
||gamma^AB||_total       =  0.894104
||gamma^AB||_symmetrized =  0.729083
||gamma^AB||_anti-symm   =  0.517553
  
Spin-orbit couplings
 Using HF (reference) density for the 2-elec mean-field SOC contribution
KET: S',Sz' (Root   1) =  1.000 1.000
BRA: S ,Sz  (Root   3) =  1.000 1.000
Clebsh-Gordan coefficient: < 1.000, 1.000; 1.000, 0.000| 1.000, 1.000> =  0.707
 Reading 1e-SO integrals
 1e Reduced matrix elements (cm-1)
<S|| Hso(L-) ||S'> =     0.0000000000     0.0000000000
<S|| Hso(L0) ||S'> =     0.0000000000     2.6882517757
<S|| Hso(L+) ||S'> =     0.0000000000    -0.0000000000
 1-elec SOC matrix (cm-1): < B(S,Sz) | Hso(1e) | A(S',Sz') >
                     |Sz'=-1.00>              |Sz'= 0.00>              |Sz'= 1.00>
 <Sz=-1.00|   -0.000000   -1.900881i     0.000000   -0.000000i     0.000000    0.000000i
 <Sz= 0.00|   -0.000000   -0.000000i    -0.000000    0.000000i     0.000000   -0.000000i
 <Sz= 1.00|    0.000000    0.000000i    -0.000000   -0.000000i    -0.000000    1.900881i
1-elec SOCC =     2.688251776 cm-1
 Reading 2e-SOMF integrals
 2e-SOMF Reduced matrix elements (cm-1)
<S|| Hso(L-) ||S'> =    -0.0000000000    -0.0000000000
<S|| Hso(L0) ||S'> =     0.0000000000    -2.7503438077
<S|| Hso(L+) ||S'> =    -0.0000000000     0.0000000000
 2-elec mean-field SOC matrix (cm-1): < B(S,Sz) | Hso(2e-mf) | A(S',Sz') >
                     |Sz'=-1.00>              |Sz'= 0.00>              |Sz'= 1.00>
 <Sz=-1.00|    0.000000    1.944787i    -0.000000    0.000000i    -0.000000   -0.000000i
 <Sz= 0.00|    0.000000   -0.000000i     0.000000   -0.000000i    -0.000000    0.000000i
 <Sz= 1.00|   -0.000000   -0.000000i     0.000000    0.000000i     0.000000   -1.944787i
 Total mean-field SOC matrix (cm-1): < B(S,Sz) | Hsomf | A(S',Sz') >
                     |Sz'=-1.00>              |Sz'= 0.00>              |Sz'= 1.00>
 <Sz=-1.00|   -0.000000    0.043906i     0.000000   -0.000000i     0.000000   -0.000000i
 <Sz= 0.00|   -0.000000   -0.000000i    -0.000000   -0.000000i     0.000000   -0.000000i
 <Sz= 1.00|    0.000000   -0.000000i    -0.000000   -0.000000i    -0.000000   -0.043906i
Mean-Field SOCC =     0.062092032 cm-1
   
**************************************************
State A: Root  1
State B: Root  4
  
Angular momentum components
< B | Lx | A > =     0.000000000i
< B | Ly | A > =    -0.000000000i
< B | Lz | A > =     0.000000000i
  
Norm of one-particle transition density matrix
||gamma^AB||_total       =  0.278056
||gamma^AB||_symmetrized =  0.263473
||gamma^AB||_anti-symm   =  0.088864
  
Spin-orbit couplings
 Using HF (reference) density for the 2-elec mean-field SOC contribution
KET: S',Sz' (Root   1) =  1.000 1.000
BRA: S ,Sz  (Root   4) =  1.000 1.000
Clebsh-Gordan coefficient: < 1.000, 1.000; 1.000, 0.000| 1.000, 1.000> =  0.707
 Reading 1e-SO integrals
 1e Reduced matrix elements (cm-1)
<S|| Hso(L-) ||S'> =    -0.0000000000     0.0000000000
<S|| Hso(L0) ||S'> =     0.0000000000     0.0000000000
<S|| Hso(L+) ||S'> =    -0.0000000000    -0.0000000000
 1-elec SOC matrix (cm-1): < B(S,Sz) | Hso(1e) | A(S',Sz') >
                     |Sz'=-1.00>              |Sz'= 0.00>              |Sz'= 1.00>
 <Sz=-1.00|    0.000000   -0.000000i    -0.000000   -0.000000i    -0.000000   -0.000000i
 <Sz= 0.00|    0.000000   -0.000000i     0.000000    0.000000i    -0.000000   -0.000000i
 <Sz= 1.00|   -0.000000    0.000000i     0.000000   -0.000000i     0.000000    0.000000i
1-elec SOCC =     0.000000000 cm-1
 Reading 2e-SOMF integrals
 2e-SOMF Reduced matrix elements (cm-1)
<S|| Hso(L-) ||S'> =     0.0000000000    -0.0000000000
<S|| Hso(L0) ||S'> =     0.0000000000    -0.0000000000
<S|| Hso(L+) ||S'> =     0.0000000000     0.0000000000
 2-elec mean-field SOC matrix (cm-1): < B(S,Sz) | Hso(2e-mf) | A(S',Sz') >
                     |Sz'=-1.00>              |Sz'= 0.00>              |Sz'= 1.00>
 <Sz=-1.00|   -0.000000    0.000000i     0.000000    0.000000i     0.000000    0.000000i
 <Sz= 0.00|   -0.000000    0.000000i    -0.000000   -0.000000i     0.000000    0.000000i
 <Sz= 1.00|    0.000000   -0.000000i    -0.000000    0.000000i    -0.000000   -0.000000i
 Total mean-field SOC matrix (cm-1): < B(S,Sz) | Hsomf | A(S',Sz') >
                     |Sz'=-1.00>              |Sz'= 0.00>              |Sz'= 1.00>
 <Sz=-1.00|    0.000000    0.000000i    -0.000000   -0.000000i    -0.000000   -0.000000i
 <Sz= 0.00|    0.000000   -0.000000i     0.000000    0.000000i    -0.000000   -0.000000i
 <Sz= 1.00|   -0.000000    0.000000i     0.000000   -0.000000i     0.000000   -0.000000i
Mean-Field SOCC =     0.000000000 cm-1
   
**************************************************
State A: Root  1
State B: Root  5
  
Angular momentum components
< B | Lx | A > =    -0.000000000i
< B | Ly | A > =    -0.000000000i
< B | Lz | A > =    -2.500334439i
  
Norm of one-particle transition density matrix
||gamma^AB||_total       =  0.898743
||gamma^AB||_symmetrized =  0.555676
||gamma^AB||_anti-symm   =  0.706373
  
Spin-orbit couplings
 Using HF (reference) density for the 2-elec mean-field SOC contribution
KET: S',Sz' (Root   1) =  1.000 1.000
BRA: S ,Sz  (Root   5) =  1.000 1.000
Clebsh-Gordan coefficient: < 1.000, 1.000; 1.000, 0.000| 1.000, 1.000> =  0.707
 Reading 1e-SO integrals
 1e Reduced matrix elements (cm-1)
<S|| Hso(L-) ||S'> =    -0.0000000000    -0.0000000000
<S|| Hso(L0) ||S'> =     0.0000000000    -0.9637343695
<S|| Hso(L+) ||S'> =    -0.0000000000     0.0000000000
 1-elec SOC matrix (cm-1): < B(S,Sz) | Hso(1e) | A(S',Sz') >
                     |Sz'=-1.00>              |Sz'= 0.00>              |Sz'= 1.00>
 <Sz=-1.00|    0.000000    0.681463i    -0.000000    0.000000i    -0.000000   -0.000000i
 <Sz= 0.00|    0.000000    0.000000i     0.000000   -0.000000i    -0.000000    0.000000i
 <Sz= 1.00|   -0.000000   -0.000000i     0.000000    0.000000i     0.000000   -0.681463i
1-elec SOCC =     0.963734370 cm-1
 Reading 2e-SOMF integrals
 2e-SOMF Reduced matrix elements (cm-1)
<S|| Hso(L-) ||S'> =     0.0000000000     0.0000000000
<S|| Hso(L0) ||S'> =     0.0000000000     1.1144453578
<S|| Hso(L+) ||S'> =     0.0000000000    -0.0000000000
 2-elec mean-field SOC matrix (cm-1): < B(S,Sz) | Hso(2e-mf) | A(S',Sz') >
                     |Sz'=-1.00>              |Sz'= 0.00>              |Sz'= 1.00>
 <Sz=-1.00|   -0.000000   -0.788032i     0.000000   -0.000000i     0.000000    0.000000i
 <Sz= 0.00|   -0.000000   -0.000000i    -0.000000    0.000000i     0.000000   -0.000000i
 <Sz= 1.00|    0.000000    0.000000i    -0.000000   -0.000000i    -0.000000    0.788032i
 Total mean-field SOC matrix (cm-1): < B(S,Sz) | Hsomf | A(S',Sz') >
                     |Sz'=-1.00>              |Sz'= 0.00>              |Sz'= 1.00>
 <Sz=-1.00|    0.000000   -0.106569i    -0.000000    0.000000i    -0.000000    0.000000i
 <Sz= 0.00|    0.000000    0.000000i     0.000000    0.000000i    -0.000000    0.000000i
 <Sz= 1.00|   -0.000000    0.000000i     0.000000    0.000000i     0.000000    0.106569i
Mean-Field SOCC =     0.150710988 cm-1
   
**************************************************
State A: Root  1
State B: Root  6
  
Angular momentum components
< B | Lx | A > =    -0.000000000i
< B | Ly | A > =     0.000000000i
[...]
 -- Singly Occupied (Occupied) --
 -0.326  -0.190
  1 Au    2 B2g                                                                
 -- Virtual --                   
  0.115   0.111   0.215   0.156   0.164   0.166   0.188   0.194
  2 B3g   3 B1u   2 Au   10 Ag    8 B2u   8 B3u  11 Ag    7 B1g                
  0.201   0.226   0.242   0.243   0.276   0.286   0.296   0.301
  9 B2u   9 B3u   8 B1g  12 Ag   10 B3u  10 B2u   3 B3g  13 Ag                 
  0.319   0.319   0.343   0.352   0.362   0.369   0.370   0.400
 11 B2u   4 B1u  11 B3u   3 B2g  14 Ag   15 Ag    9 B1g  10 B1g                
  0.391   0.400   0.415   0.429   0.459   0.460   0.462   0.465
  4 B3g   5 B1u   3 Au   12 B2u  16 Ag   12 B3u  13 B3u   6 B1u                
  0.476   0.472   0.480   0.503   0.509   0.505   0.545   0.547
 17 Ag    4 B2g  14 B3u  13 B2u  14 B2u   5 B3g  15 B2u  11 B1g                
  0.550   0.564   0.572   0.579   0.588   0.604   0.606   0.615
  4 Au   15 B3u  12 B1g  18 Ag   19 Ag   13 B1g  16 B2u   6 B3g                
  0.632   0.633   0.637   0.650   0.651   0.676   0.683   0.710
 17 B2u  16 B3u   5 B2g  20 Ag   14 B1g  18 B2u  17 B3u   7 B1u                
  0.712   0.729   0.753   0.785   0.832   0.843   0.851   0.855
 15 B1g  18 B3u  21 Ag   16 B1g  19 B2u  20 B2u  22 Ag    8 B1u                
  0.870   0.874   0.877   0.896   0.904   0.922   0.923   0.921
 19 B3u  21 B2u  17 B1g   6 B2g  18 B1g  20 B3u  23 Ag    7 B3g                
  0.928   0.946   0.983   0.997   1.019   1.027   1.047   1.052
  5 Au   22 B2u  19 B1g   7 B2g  21 B3u  24 Ag   25 Ag   23 B2u                
  1.067   1.087   1.091   1.110   1.119   1.165   1.175   1.184
  6 Au    9 B1u  20 B1g  26 Ag   22 B3u  23 B3u  10 B1u  24 B2u                
  1.195   1.201   1.267   1.293   1.313   1.332   1.344   1.370
 27 Ag    8 B3g  25 B2u  21 B1g   9 B3g  28 Ag    7 Au    8 B2g                
  1.401   1.399   1.417   1.427   1.438   1.443   1.459   1.469
 22 B1g  24 B3u   9 B2g  25 B3u  29 Ag   26 B2u  23 B1g  10 B3g                
  1.472   1.479   1.497   1.502   1.572   1.584   1.609   1.636
 27 B2u  11 B1u  26 B3u  30 Ag   28 B2u   8 Au   24 B1g  29 B2u                
  1.639   1.647   1.690   1.697   1.748   1.752   1.757   1.763
 31 Ag   25 B1g  12 B1u  27 B3u  10 B2g   9 Au   32 Ag   30 B2u                
  1.766   1.782   1.784   1.823   1.826   1.846   1.865   1.888
 26 B1g  28 B3u  11 B3g  13 B1u  27 B1g  33 Ag   10 Au   31 B2u                
  1.914   1.948   1.946   1.954   1.959   1.958   1.983   1.989
 12 B3g  34 Ag   11 B2g  29 B3u  32 B2u  14 B1u  13 B3g  28 B1g                
  2.008   2.024   2.026   2.111   2.125   2.130   2.160   2.193
 33 B2u  30 B3u  12 B2g  11 Au   35 Ag   15 B1u  14 B3g  12 Au                 
  2.248   2.249   2.254   2.275   2.281   2.288   2.321   2.393
 16 B1u  34 B2u  31 B3u  15 B3g  29 B1g  36 Ag   13 B2g  37 Ag                 
  2.427   2.439   2.446   2.452   2.455   2.457   2.531   2.534
 32 B3u  38 Ag   30 B1g  33 B3u  31 B1g  35 B2u  32 B1g  34 B3u                
  2.554   2.562   2.564   2.598   2.617   2.661   2.724   2.724
 39 Ag   16 B3g  36 B2u  35 B3u  17 B1u  13 Au   40 Ag   37 B2u                
  2.738   2.771   2.777   2.837   2.857   2.863   2.871   2.899
 41 Ag   14 B2g  36 B3u  33 B1g  38 B2u  15 B2g  37 B3u  42 Ag                 
  2.913   2.919   2.930   2.941   2.942   2.964   2.967   3.005
 38 B3u  34 B1g  39 B2u  43 Ag   18 B1u  35 B1g  17 B3g  14 Au                 
  3.012   3.033   3.035   3.052   3.070   3.076   3.097   3.104
 16 B2g  44 Ag   40 B2u  19 B1u  39 B3u  41 B2u  18 B3g  20 B1u                
  3.110   3.113   3.122   3.128   3.135   3.170   3.196   3.198
 45 Ag   36 B1g  17 B2g  40 B3u  42 B2u  37 B1g  43 B2u  21 B1u                
  3.202   3.208   3.217   3.230   3.267   3.286   3.302   3.314
 15 Au   41 B3u  46 Ag   16 Au   38 B1g  18 B2g  44 B2u  39 B1g                
  3.314   3.316   3.324   3.363   3.389   3.415   3.423   3.437
 19 B3g  47 Ag   22 B1u  23 B1u  42 B3u  19 B2g  48 Ag   43 B3u                
  3.466   3.467   3.503   3.504   3.512   3.518   3.523   3.538
 20 B3g  40 B1g  45 B2u  20 B2g  17 Au   21 B3g  49 Ag   46 B2u                
  3.539   3.557   3.559   3.563   3.582   3.625   3.646   3.651
 24 B1u  44 B3u  50 Ag   41 B1g  18 Au   45 B3u  25 B1u  21 B2g                
  3.655   3.661   3.679   3.688   3.694   3.700   3.747   3.752
 47 B2u  51 Ag   42 B1g  52 Ag   22 B3g  46 B3u  43 B1g  19 Au                 
  3.774   3.794   3.799   3.808   3.813   3.845   3.853   3.860
 48 B2u  20 Au   22 B2g  47 B3u  23 B3g  49 B2u  23 B2g  26 B1u                
  3.890   3.905   3.914   3.951   3.972   3.987   4.013   4.054
 24 B3g  50 B2u  44 B1g  48 B3u  45 B1g  53 Ag   51 B2u  21 Au                 
  4.073   4.100   4.149   4.170   4.177   4.184   4.242   4.273
 54 Ag   27 B1u  52 B2u  22 Au   46 B1g  49 B3u  25 B3g  55 Ag                 
  4.278   4.299   4.336   4.364   4.381   4.397   4.420   4.458
 53 B2u  50 B3u  47 B1g  56 Ag   48 B1g  24 B2g  51 B3u  49 B1g                
  4.467   4.485   4.509   4.518   4.538   4.550   4.570   4.600
 26 B3g  28 B1u  57 Ag   54 B2u  55 B2u  50 B1g  58 Ag   29 B1u                
  4.614   4.622   4.642   4.681   4.733   4.751   4.763   4.801
 23 Au   25 B2g  27 B3g  52 B3u  24 Au   53 B3u  59 Ag   51 B1g                
  4.883   4.887   4.995   5.063   5.076   5.094   5.096   5.113
 28 B3g  56 B2u  54 B3u  57 B2u  60 Ag   29 B3g  25 Au   55 B3u                
  5.150   5.155   5.230   5.301   5.399   5.416   5.424   5.454
 61 Ag   58 B2u  52 B1g  56 B3u  59 B2u  62 Ag   53 B1g  60 B2u                
  5.553   5.660   5.689   5.715   5.746   5.966   5.971   6.061
 63 Ag   54 B1g  61 B2u  55 B1g  57 B3u  62 B2u  56 B1g  63 B2u                
  6.301  22.969  23.490  23.590  23.683  23.777  23.874  23.925
 57 B1g  64 Ag   58 B3u  65 Ag   59 B3u  58 B1g  64 B2u  66 Ag                 
 23.978  23.998  24.664
 59 B1g  65 B2u  66 B2u                                                        
 
 Beta MOs, Restricted
 -- Doubly Occupied --           
-11.246 -11.245 -11.244 -11.244 -11.244 -11.244 -11.238 -11.238
  1 Ag    1 B2u   1 B3u   1 B1g   2 Ag    2 B2u   2 B3u   3 Ag                 
-11.236 -11.236  -1.178  -1.112  -1.055  -1.021  -0.976  -0.879
  2 B1g   3 B2u   4 Ag    3 B3u   4 B2u   5 Ag    3 B1g   4 B3u                
 -0.830  -0.818  -0.716  -0.701  -0.675  -0.630  -0.618  -0.586
  5 B2u   6 Ag    4 B1g   5 B3u   7 Ag    6 B2u   8 Ag    6 B3u                
 -0.583  -0.554  -0.540  -0.485  -0.486  -0.555  -0.465  -0.423
  5 B1g   7 B2u   7 B3u   9 Ag    6 B1g   1 B1u   1 B2g   1 B3g                
 -0.362
  2 B1u                                                                        
 -- Singly Occupied (Vacant) --  
 -0.326  -0.190
  1 Au    2 B2g                                                                
 -- Virtual --                   
  0.115   0.111   0.215   0.156   0.164   0.166   0.188   0.194
  2 B3g   3 B1u   2 Au   10 Ag    8 B2u   8 B3u  11 Ag    7 B1g                
  0.201   0.226   0.242   0.243   0.276   0.286   0.296   0.301
  9 B2u   9 B3u   8 B1g  12 Ag   10 B3u  10 B2u   3 B3g  13 Ag                 
  0.319   0.319   0.343   0.352   0.362   0.369   0.370   0.400
 11 B2u   4 B1u  11 B3u   3 B2g  14 Ag   15 Ag    9 B1g  10 B1g                
  0.391   0.400   0.415   0.429   0.459   0.460   0.462   0.465
  4 B3g   5 B1u   3 Au   12 B2u  16 Ag   12 B3u  13 B3u   6 B1u                
  0.476   0.472   0.480   0.503   0.509   0.505   0.545   0.547
 17 Ag    4 B2g  14 B3u  13 B2u  14 B2u   5 B3g  15 B2u  11 B1g                
  0.550   0.564   0.572   0.579   0.588   0.604   0.606   0.615
  4 Au   15 B3u  12 B1g  18 Ag   19 Ag   13 B1g  16 B2u   6 B3g                
  0.632   0.633   0.637   0.650   0.651   0.676   0.683   0.710
 17 B2u  16 B3u   5 B2g  20 Ag   14 B1g  18 B2u  17 B3u   7 B1u                
  0.712   0.729   0.753   0.785   0.832   0.843   0.851   0.855
 15 B1g  18 B3u  21 Ag   16 B1g  19 B2u  20 B2u  22 Ag    8 B1u                
  0.870   0.874   0.877   0.896   0.904   0.922   0.923   0.921
 19 B3u  21 B2u  17 B1g   6 B2g  18 B1g  20 B3u  23 Ag    7 B3g                
  0.928   0.946   0.983   0.997   1.019   1.027   1.047   1.052
  5 Au   22 B2u  19 B1g   7 B2g  21 B3u  24 Ag   25 Ag   23 B2u                
  1.067   1.087   1.091   1.110   1.119   1.165   1.175   1.184
  6 Au    9 B1u  20 B1g  26 Ag   22 B3u  23 B3u  10 B1u  24 B2u                
  1.195   1.201   1.267   1.293   1.313   1.332   1.344   1.370
 27 Ag    8 B3g  25 B2u  21 B1g   9 B3g  28 Ag    7 Au    8 B2g                
  1.401   1.399   1.417   1.427   1.438   1.443   1.459   1.469
 22 B1g  24 B3u   9 B2g  25 B3u  29 Ag   26 B2u  23 B1g  10 B3g                
  1.472   1.479   1.497   1.502   1.572   1.584   1.609   1.636
 27 B2u  11 B1u  26 B3u  30 Ag   28 B2u   8 Au   24 B1g  29 B2u                
  1.639   1.647   1.690   1.697   1.748   1.752   1.757   1.763
 31 Ag   25 B1g  12 B1u  27 B3u  10 B2g   9 Au   32 Ag   30 B2u                
  1.766   1.782   1.784   1.823   1.826   1.846   1.865   1.888
 26 B1g  28 B3u  11 B3g  13 B1u  27 B1g  33 Ag   10 Au   31 B2u                
  1.914   1.948   1.946   1.954   1.959   1.958   1.983   1.989
 12 B3g  34 Ag   11 B2g  29 B3u  32 B2u  14 B1u  13 B3g  28 B1g                
  2.008   2.024   2.026   2.111   2.125   2.130   2.160   2.193
 33 B2u  30 B3u  12 B2g  11 Au   35 Ag   15 B1u  14 B3g  12 Au                 
  2.248   2.249   2.254   2.275   2.281   2.288   2.321   2.393
 16 B1u  34 B2u  31 B3u  15 B3g  29 B1g  36 Ag   13 B2g  37 Ag                 
  2.427   2.439   2.446   2.452   2.455   2.457   2.531   2.534
 32 B3u  38 Ag   30 B1g  33 B3u  31 B1g  35 B2u  32 B1g  34 B3u                
  2.554   2.562   2.564   2.598   2.617   2.661   2.724   2.724
 39 Ag   16 B3g  36 B2u  35 B3u  17 B1u  13 Au   40 Ag   37 B2u                
  2.738   2.771   2.777   2.837   2.857   2.863   2.871   2.899
 41 Ag   14 B2g  36 B3u  33 B1g  38 B2u  15 B2g  37 B3u  42 Ag                 
  2.913   2.919   2.930   2.941   2.942   2.964   2.967   3.005
 38 B3u  34 B1g  39 B2u  43 Ag   18 B1u  35 B1g  17 B3g  14 Au                 
  3.012   3.033   3.035   3.052   3.070   3.076   3.097   3.104
 16 B2g  44 Ag   40 B2u  19 B1u  39 B3u  41 B2u  18 B3g  20 B1u                
  3.110   3.113   3.122   3.128   3.135   3.170   3.196   3.198
 45 Ag   36 B1g  17 B2g  40 B3u  42 B2u  37 B1g  43 B2u  21 B1u                
  3.202   3.208   3.217   3.230   3.267   3.286   3.302   3.314
 15 Au   41 B3u  46 Ag   16 Au   38 B1g  18 B2g  44 B2u  39 B1g                
  3.314   3.316   3.324   3.363   3.389   3.415   3.423   3.437
 19 B3g  47 Ag   22 B1u  23 B1u  42 B3u  19 B2g  48 Ag   43 B3u                
  3.466   3.467   3.503   3.504   3.512   3.518   3.523   3.538
 20 B3g  40 B1g  45 B2u  20 B2g  17 Au   21 B3g  49 Ag   46 B2u                
  3.539   3.557   3.559   3.563   3.582   3.625   3.646   3.651
 24 B1u  44 B3u  50 Ag   41 B1g  18 Au   45 B3u  25 B1u  21 B2g                
  3.655   3.661   3.679   3.688   3.694   3.700   3.747   3.752
 47 B2u  51 Ag   42 B1g  52 Ag   22 B3g  46 B3u  43 B1g  19 Au                 
  3.774   3.794   3.799   3.808   3.813   3.845   3.853   3.860
 48 B2u  20 Au   22 B2g  47 B3u  23 B3g  49 B2u  23 B2g  26 B1u                
  3.890   3.905   3.914   3.951   3.972   3.987   4.013   4.054
 24 B3g  50 B2u  44 B1g  48 B3u  45 B1g  53 Ag   51 B2u  21 Au                 
  4.073   4.100   4.149   4.170   4.177   4.184   4.242   4.273
 54 Ag   27 B1u  52 B2u  22 Au   46 B1g  49 B3u  25 B3g  55 Ag                 
  4.278   4.299   4.336   4.364   4.381   4.397   4.420   4.458
 53 B2u  50 B3u  47 B1g  56 Ag   48 B1g  24 B2g  51 B3u  49 B1g                
  4.467   4.485   4.509   4.518   4.538   4.550   4.570   4.600
 26 B3g  28 B1u  57 Ag   54 B2u  55 B2u  50 B1g  58 Ag   29 B1u                
  4.614   4.622   4.642   4.681   4.733   4.751   4.763   4.801
 23 Au   25 B2g  27 B3g  52 B3u  24 Au   53 B3u  59 Ag   51 B1g                
  4.883   4.887   4.995   5.063   5.076   5.094   5.096   5.113
 28 B3g  56 B2u  54 B3u  57 B2u  60 Ag   29 B3g  25 Au   55 B3u                
  5.150   5.155   5.230   5.301   5.399   5.416   5.424   5.454
 61 Ag   58 B2u  52 B1g  56 B3u  59 B2u  62 Ag   53 B1g  60 B2u                
  5.553   5.660   5.689   5.715   5.746   5.966   5.971   6.061
 63 Ag   54 B1g  61 B2u  55 B1g  57 B3u  62 B2u  56 B1g  63 B2u                
  6.301  22.969  23.490  23.590  23.683  23.777  23.874  23.925
 57 B1g  64 Ag   58 B3u  65 Ag   59 B3u  58 B1g  64 B2u  66 Ag                 
 23.978  23.998  24.664
 59 B1g  65 B2u  66 B2u                                                        
 --------------------------------------------------------------
 
          Ground-State Mulliken Net Atomic Charges

     Atom                 Charge (a.u.)
  ----------------------------------------
      1 C                     0.099787
      2 C                     0.099787
      3 C                    -0.169122
      4 C                    -0.136647
      5 C                    -0.136647
      6 C                    -0.169122
      7 C                    -0.169122
      8 C                    -0.169122
      9 C                    -0.136647
     10 C                    -0.136647
     11 H                     0.130526
     12 H                     0.125349
     13 H                     0.125349
     14 H                     0.130526
     15 H                     0.130526
     16 H                     0.125349
     17 H                     0.125349
     18 H                     0.130526
  ----------------------------------------
  Sum of atomic charges =     0.000000

  Do orbital-by-orbital Lowdin population analysis
 
 
 Partial Mulliken analysis unavailable for frozen orbitals
 
 -----------------------------------------------------------------
                    Cartesian Multipole Moments
 -----------------------------------------------------------------
    Charge (ESU x 10^10)
                -0.0000
    Dipole Moment (Debye)
         X       0.0000      Y       0.0000      Z       0.0000
       Tot       0.0000
    Quadrupole Moments (Debye-Ang)
        XX     -52.6086     XY       0.0000     YY     -51.1495
        XZ      -0.0000     YZ      -0.0000     ZZ     -65.8565
    Octopole Moments (Debye-Ang^2)
       XXX       0.0000    XXY       0.0000    XYY       0.0000
       YYY       0.0000    XXZ       0.0000    XYZ       0.0000
       YYZ       0.0000    XZZ       0.0000    YZZ       0.0000
       ZZZ       0.0000
    Hexadecapole Moments (Debye-Ang^3)
      XXXX   -1148.2205   XXXY       0.0000   XXYY    -262.9239
      XYYY       0.0000   YYYY    -474.6156   XXXZ       0.0000
      XXYZ      -0.0000   XYYZ      -0.0000   YYYZ      -0.0000
      XXZZ    -255.6221   XYZZ       0.0000   YYZZ    -113.2361
      XZZZ      -0.0000   YZZZ      -0.0000   ZZZZ     -80.5268
 -----------------------------------------------------------------
 Mayer SCF Bond Order, atomic valence on the diagonal:

            1           2           3           4           5           6
    1   2.0734337   0.2183941   0.3141953   0.0293121  -0.0010059  -0.0347648
    2   0.2183941   3.9844837  -0.0358345   0.0199615   0.0078607   1.4196573
    3   0.3141953  -0.0358345   3.6626136   1.0776706   0.0424306  -0.0210459
    4   0.0293121   0.0199615   1.0776706   3.9197002   1.7543206   0.0424306
    5  -0.0010059   0.0078607   0.0424306   1.7543206   3.9197002   1.0776706
    6  -0.0347648   1.4196573  -0.0210459   0.0424306   1.0776706   3.6626136
    7   0.0029628   1.4196573   0.0511002   0.0256418   0.0157536   0.1159187
    8   0.3207228  -0.0358345   0.1159187   0.0157536   0.0256418   0.0511002
    9   0.0158258   0.0199615   0.0157536   0.0036535   0.0032165   0.0256418
   10  -0.0185594   0.0078607   0.0256418   0.0032165   0.0036535   0.0157536
   11  -0.0232146   0.0069533   0.0039735   0.0001232   0.0000313   0.0008810
   12   0.0020178   0.0004206   0.0003024   0.0002330   0.0000161   0.0003137
   13   0.0029238   0.0048238   0.0003137   0.0000161   0.0002330   0.0003024
   14   0.0001458  -0.0167202   0.0008810   0.0000313   0.0001232   0.0039735
   15  -0.0011512   0.0069533   0.9780074  -0.0139398   0.0049096   0.0002573
   16   0.0082621   0.0004206  -0.0194416   0.9833247  -0.0055076   0.0070273
   17   0.0018173   0.0048238   0.0070273  -0.0055076   0.9833247  -0.0194416
   18   0.0067370  -0.0167202   0.0002573   0.0049096  -0.0139398   0.9780074
            7           8           9          10          11          12
    1   0.0029628   0.3207228   0.0158258  -0.0185594  -0.0232146   0.0020178
    2   1.4196573  -0.0358345   0.0199615   0.0078607   0.0069533   0.0004206
    3   0.0511002   0.1159187   0.0157536   0.0256418   0.0039735   0.0003024
    4   0.0256418   0.0157536   0.0036535   0.0032165   0.0001232   0.0002330
    5   0.0157536   0.0256418   0.0032165   0.0036535   0.0000313   0.0000161
    6   0.1159187   0.0511002   0.0256418   0.0157536   0.0008810   0.0003137
    7   3.6626136  -0.0210459   0.0424306   1.0776706   0.0002573   0.0070273
    8  -0.0210459   3.6626136   1.0776706   0.0424306   0.9780074  -0.0194416
    9   0.0424306   1.0776706   3.9197002   1.7543206  -0.0139398   0.9833247
   10   1.0776706   0.0424306   1.7543206   3.9197002   0.0049096  -0.0055076
   11   0.0002573   0.9780074  -0.0139398   0.0049096   0.9677526  -0.0003562
   12   0.0070273  -0.0194416   0.9833247  -0.0055076  -0.0003562   0.9716985
   13  -0.0194416   0.0070273  -0.0055076   0.9833247   0.0006708  -0.0001790
   14   0.9780074   0.0002573   0.0049096  -0.0139398   0.0000001   0.0006708
   15   0.0008810   0.0039735   0.0001232   0.0000313   0.0026817  -0.0000107
   16   0.0003137   0.0003024   0.0002330   0.0000161  -0.0000107   0.0000393
   17   0.0003024   0.0003137   0.0000161   0.0002330   0.0000131   0.0000088
   18   0.0039735   0.0008810   0.0000313   0.0001232   0.0002771   0.0000131
           13          14          15          16          17          18
    1   0.0029238   0.0001458  -0.0011512   0.0082621   0.0018173   0.0067370
    2   0.0048238  -0.0167202   0.0069533   0.0004206   0.0048238  -0.0167202
    3   0.0003137   0.0008810   0.9780074  -0.0194416   0.0070273   0.0002573
    4   0.0000161   0.0000313  -0.0139398   0.9833247  -0.0055076   0.0049096
    5   0.0002330   0.0001232   0.0049096  -0.0055076   0.9833247  -0.0139398
    6   0.0003024   0.0039735   0.0002573   0.0070273  -0.0194416   0.9780074
    7  -0.0194416   0.9780074   0.0008810   0.0003137   0.0003024   0.0039735
    8   0.0070273   0.0002573   0.0039735   0.0003024   0.0003137   0.0008810
    9  -0.0055076   0.0049096   0.0001232   0.0002330   0.0000161   0.0000313
   10   0.9833247  -0.0139398   0.0000313   0.0000161   0.0002330   0.0001232
   11   0.0006708   0.0000001   0.0026817  -0.0000107   0.0000131   0.0002771
   12  -0.0001790   0.0006708  -0.0000107   0.0000393   0.0000088   0.0000131
   13   0.9716985  -0.0003562   0.0000131   0.0000088   0.0000393  -0.0000107
   14  -0.0003562   0.9677526   0.0002771   0.0000131  -0.0000107   0.0026817
   15   0.0000131   0.0002771   0.9677526  -0.0003562   0.0006708   0.0000001
   16   0.0000088   0.0000131  -0.0003562   0.9716985  -0.0001790   0.0006708
   17   0.0000393  -0.0000107   0.0006708  -0.0001790   0.9716985  -0.0003562
   18  -0.0000107   0.0026817   0.0000001   0.0006708  -0.0003562   0.9677526


 Total job time:  11741.70s(wall), 10324.05s(cpu) 
 Thu Sep  7 16:08:36 2023

        *************************************************************
        *                                                           *
        *  Thank you very much for using Q-Chem.  Have a nice day.  *
        *                                                           *
        *************************************************************


