                  Welcome to Q-Chem
     A Quantum Leap Into The Future Of Chemistry


 Q-Chem 6.0 (devel), Q-Chem, Inc., Pleasanton, CA (2022)

 E. Epifanovsky,  A. T. B. Gilbert,  Xintian Feng,  Joonho Lee,  Yuezhi Mao,  
 N. Mardirossian,  P. Pokhilko,  A. White,  M. Wormit,  M. P. Coons,  
 A. L. Dempwolff,  Zhengting Gan,  D. Hait,  P. R. Horn,  L. D. Jacobson,  
 I. Kaliman,  J. Kussmann,  A. W. Lange,  Ka Un Lao,  D. S. Levine,  Jie Liu,  
 S. C. McKenzie,  A. F. Morrison,  K. Nanda,  F. Plasser,  D. R. Rehn,  
 M. L. Vidal,  Zhi-Qiang You,  Ying Zhu,  B. Alam,  B. Albrecht,  
 A. Aldossary,  E. Alguire,  J. H. Andersen,  V. Athavale,  D. Barton,  
 K. Begam,  A. Behn,  N. Bellonzi,  Y. A. Bernard,  E. J. Berquist,  
 H. Burton,  A. Carreras,  K. Carter-Fenk,  Romit Chakraborty,  
 Chandrima Chakravarty,  Junhan Chen,  A. D. Chien,  K. D. Closser,  
 V. Cofer-Shabica,  L. Cunha,  S. Dasgupta,  Jia Deng,  M. de Wergifosse,  
 M. Diedenhofen,  Hainam Do,  S. Ehlert,  Po-Tung Fang,  S. Fatehi,  
 Qingguo Feng,  T. Friedhoff,  B. Ganoe,  J. Gayvert,  Qinghui Ge,  
 G. Gidofalvi,  M. Goldey,  J. Gomes,  C. Gonzalez-Espinoza,  S. Gulania,  
 A. Gunina,  J. A. Gyamfi,  M. W. D. Hanson-Heine,  P. H. P. Harbach,  
 A. W. Hauser,  M. F. Herbst,  M. Hernandez Vera,  M. Hodecker,  
 Z. C. Holden,  S. Houck,  Xunkun Huang,  Kerwin Hui,  B. C. Huynh,  
 K. Ikeda,  M. Ivanov,  Hyunjun Ji,  Zuxin Jin,  Hanjie Jiang,  B. Kaduk,  
 S. Kaehler,  R. Kang,  K. Khistyaev,  Jaehoon Kim,  Yongbin Kim,  
 P. Klunzinger,  Z. Koczor-Benda,  Joong Hoon Koh,  D. Kosenkov,  
 Saikiran Kotaru,  L. Koulias,  T. Kowalczyk,  C. M. Krauter,  K. Kue,  
 A. Kunitsa,  T. Kus,  A. Landau,  K. V. Lawler,  D. Lefrancois,  S. Lehtola,  
 Rain Li,  Shaozhi Li,  Yi-Pei Li,  Jiashu Liang,  M. Liebenthal,  
 Hung-Hsuan Lin,  You-Sheng Lin,  Fenglai Liu,  Kuan-Yu Liu,  
 M. Loipersberger,  A. Luenser,  C. Malbon,  A. Manjanath,  P. Manohar,  
 E. Mansoor,  S. F. Manzer,  Shan-Ping Mao,  A. V. Marenich,  T. Markovich,  
 S. Mason,  F. Matz,  S. A. Maurer,  P. F. McLaughlin,  M. F. S. J. Menger,  
 J.-M. Mewes,  S. A. Mewes,  P. Morgante,  Mohammad Mostafanejad,  
 J. W. Mullinax,  K. J. Oosterbaan,  G. Paran,  V. Parravicini,  
 Alexander C. Paul,  Suranjan K. Paul,  F. Pavosevic,  Zheng Pei,  S. Prager,  
 E. I. Proynov,  E. Ramos,  B. Rana,  A. E. Rask,  A. Rettig,  R. M. Richard,  
 F. Rob,  E. Rossomme,  T. Scheele,  M. Scheurer,  M. Schneider,  
 P. E. Schneider,  N. Sergueev,  S. M. Sharada,  Hengyuan Shen,  
 W. Skomorowski,  D. W. Small,  C. J. Stein,  Yingli Su,  Yu-Chuan Su,  
 E. J. Sundstrom,  Zhen Tao,  J. Thirman,  Hung-Yi Tsai,  T. Tsuchimochi,  
 N. M. Tubman,  C. Utku,  S. P. Veccham,  O. Vydrov,  J. Wenzel,  
 Jonathan Wong,  J. Witte,  A. Yamada,  Chou-Hsun Yang,  Kun Yao,  
 S. Yeganeh,  S. R. Yost,  A. Zech,  F. Zeller,  Igor Ying Zhang,  
 Xing Zhang,  Yu Zhang,  D. Zuev,  A. Aspuru-Guzik,  A. T. Bell,  
 N. A. Besley,  K. B. Bravaya,  B. R. Brooks,  D. Casanova,  Jeng-Da Chai,  
 Hsing-Ta Chen,  S. Coriani,  C. J. Cramer,  A. E. DePrince, III,  
 R. A. DiStasio Jr.,  A. Dreuw,  B. D. Dunietz,  T. R. Furlani,  
 W. A. Goddard III,  S. Grimme,  S. Hammes-Schiffer,  T. Head-Gordon,  
 W. J. Hehre,  Chao-Ping Hsu,  T.-C. Jagau,  Yousung Jung,  A. Klamt,  
 Jing Kong,  D. S. Lambrecht,  Xiangyuan Li,  WanZhen Liang,  N. J. Mayhall,  
 C. W. McCurdy,  J. B. Neaton,  T. Neudecker,  C. Ochsenfeld,  
 J. A. Parkhill,  R. Peverati,  V. A. Rassolov,  Haisheng Ren,  Yihan Shao,  
 L. V. Slipchenko,  R. P. Steele,  J. E. Subotnik,  A. J. W. Thom,  
 A. Tkatchenko,  D. G. Truhlar,  T. Van Voorhis,  Fan Wang,  
 T. A. Wesolowski,  K. B. Whaley,  H. L. Woodcock III,  P. M. Zimmerman,  
 S. Faraji,  P. M. W. Gill,  M. Head-Gordon,  J. M. Herbert,  A. I. Krylov

 Contributors to earlier versions of Q-Chem not listed above: 
 R. D. Adamson,  B. Austin,  R. Baer,  J. Baker,  G. J. O. Beran,  
 K. Brandhorst,  S. T. Brown,  E. F. C. Byrd,  Arup K. Chakraborty,  
 G. K. L. Chan,  Chun-Min Chang,  Yunqing Chen,  C.-L. Cheng,  
 Siu Hung Chien,  D. M. Chipman,  D. L. Crittenden,  H. Dachsel,  
 R. J. Doerksen,  A. D. Dutoi,  R. G. Edgar,  J. Fosso-Tande,  
 L. Fusti-Molnar,  D. Ghosh,  A. Ghysels,  A. Golubeva-Zadorozhnaya,  
 J. Gonthier,  M. S. Gordon,  S. R. Gwaltney,  G. Hawkins,  J. E. Herr,  
 A. Heyden,  S. Hirata,  E. G. Hohenstein,  G. Kedziora,  F. J. Keil,  
 C. Kelley,  Jihan Kim,  R. A. King,  R. Z. Khaliullin,  P. P. Korambath,  
 W. Kurlancheek,  A. Laurent,  A. M. Lee,  M. S. Lee,  S. V. Levchenko,  
 Ching Yeh Lin,  D. Liotard,  E. Livshits,  R. C. Lochan,  I. Lotan,  
 L. A. Martinez-Martinez,  P. E. Maslen,  N. Nair,  D. P. O'Neill,  
 D. Neuhauser,  E. Neuscamman,  C. M. Oana,  R. Olivares-Amaya,  R. Olson,  
 T. M. Perrine,  B. Peters,  P. A. Pieniazek,  A. Prociuk,  Y. M. Rhee,  
 J. Ritchie,  M. A. Rohrdanz,  E. Rosta,  N. J. Russ,  H. F. Schaefer III,  
 M. W. Schmidt,  N. E. Schultz,  S. Sharma,  N. Shenvi,  C. D. Sherrill,  
 A. C. Simmonett,  A. Sodt,  T. Stein,  D. Stuck,  K. S. Thanthiriwatte,  
 V. Vanovschi,  L. Vogt,  Tao Wang,  A. Warshel,  M. A. Watson,  
 C. F. Williams,  Q. Wu,  X. Xu,  Jun Yang,  W. Zhang,  Yan Zhao

   Please cite Q-Chem as follows:
  "Software for the frontiers of quantum chemistry:
   An overview of developments in the Q-Chem 5 package"
   J. Chem. Phys. 155, 084801 (2021)
   https://doi.org/10.1063/5.0055522 (open access)

 Q-Chem 6.0.1 for Intel X86 EM64T Linux

 Parts of Q-Chem use Armadillo 9.900.5 (Nocturnal Misbehaviour).
 http://arma.sourceforge.net/

 Q-Chem begins on Mon Nov 27 14:39:25 2023  

 Host: atlas-117
0

     Scratch files written to ./qchem134300//
 Processing $rem in /scratch/abel/SOFTWARE/qchem/config/preferences:
 Processing $rem in /dipc/acebg/.qchemrc:

 Checking the input file for inconsistencies... 	...done.

--------------------------------------------------------------
User input:
--------------------------------------------------------------
$comment
 RAS-SF CALCULATION
$end

$molecule
 READ naphthalene.molecule
$end

$rem
!**CALCULATION TYPE***     
JOBTYPE            sp    
EXCHANGE           HF
CORRELATION        RASCI    !RASCI=Casanova; RASCI2=Zimmerman
BASIS              def2-TZVP
BASIS2             STO-3G

!***SCF REFERENCE***
INPUT_BOHR          TRUE
!SKIP_SCFMAN        FALSE
UNRESTRICTED       FALSE
!SCF_GUESS          core
!SCF_GUESS_MIX      FALSE
!SCF_GUESS_ALWAYS   FALSE
MAX_SCF_CYCLES     999
SCF_CONVERGENCE    10
SCF_ALGORITHM      DIIS_GDM !DIIS,DM,DIIS_DM,GDM,DIIS_GDM,GD

!SYMMETRY           TRUE   !use of symmetry for calculating integrals
!SYM_IGNORE         FALSE  !turn off using symmetry
!SYM_TOL            5      !tolerance for determining point group
!USE_ABELIAN_SUBGROUP      !define to use abelian group

!THRESH             14
SCF_FINAL_PRINT     1 !0,1,2,3

!****RAS-SF****
RAS_ROOTS          20       !number of RAS-CI roots to be computed
SET_ITER           150     !number of iterations in RASCI
RAS_ELEC           6       !number of electrons in RAS2
RAS_ELEC_ALPHA     4       !spin-α electrons in RAS2 
RAS_ELEC_BETA      2       !spin-β electrons in RAS2

RAS_ACT            10       !number of orbitals in RAS2 
RAS_ACT_ORB  [32, 33, 34, 35, 36, 37, 38, 41, 42, 47]  !user-selected RAS2 orbitals
RAS_OCC            31       !number of orbitals in RAS1
N_FROZEN_CORE      11     !Number of frozen core orbitals
N_FROZEN_VIRTUAL   297      !Number of frozen virtual orbitals

RAS_DO_HOLE        TRUE   !presence of hole excitations in RAS-CI wave function
RAS_DO_PART        TRUE   !presence of particle excitations
!RAS_AMPL_PRINT     10     !threshold (×10 2 ) for the CI amplitudes

!RAS_GUESS_CS       0      !number of closed shell guess conﬁgurations
!RAS_SPIN_MULT      0      !spin multiplicity. Only for Ms = 0 
!RAS_SRDFT          FALSE  !short-range density functional RAS-CI
!RAS_NFRAG          0     !fragments of excitation analysis in RASCI

RAS_PRINT          2      !level of information
RAS_NATORB         TRUE   !computation of the natural orbital occupancies
!RAS_NATORB_STATE  0      !Saves NO of i RAS computed state in .fchk ﬁle
!RAS_FOD            TRUE

!****RAS-SOC****
CALC_SOC           TRUE   !calculate SOC for EOM-CC, RAS-CI, ADC, TDDFT/TDA and TDDFT
!RAS_SOC_2E        TRUE   !two-electron mean-ﬁeld contribution, default=true
RAS_SOC_SYM_DENS   TRUE   !averaging of α and β densities

!****MEMORY****
MEM_TOTAL          12000 !Default 2000 MB
MEM_STATIC         3000  !Default 64 MB

!**Molecular Properties and Analysis **                                                                                          
POP_MULLIKEN       TRUE   !Run Mulliken population analysis
LOWDIN_POPULATION  TRUE   !Run Löwdin population analysis
GUI                2       !Checkpoints generation
STATE_ANALYSIS     TRUE

!**Wave function analysis of RAS-CI states: MOLDEN**
!PLOTS = 0     ! Note: This can be omitted, default is 0
!NTO_PAIRS = 2 ! Note: This can be omitted, default is 2
!GUI 0
!MOLDEN_FORMAT      TRUE
!PRINT_ORBITALS     15

!**Wave function analysis of RAS-CI state: CUBE**
!NTO_PAIRS = 2 ! Note: This can be omitted, default is 2
!PLOTS = 1
!GUI 0

!**SR-DFT**
!RAS_SRDFT           TRUE !Perform short-range density functional RAS-CI
!RAS_SRDFT_EXC       0 !EX functional. 0=HF. 
!RAS_SRDFT_ONLY_COR  TRUE !No use of EXC functional
!RAS_SRDFT_COR       srPBE !short-range correlation functional
!ras_srdft_0         TRUE !true: no iteration (one-shot); false: iteration
!RAS_OMEGA           400 !Coulomb range-separation parameter. def=400
!RAS_SRDFT_DAMP     0.5 !dumping factor. def=0.5
$end

!$plots
!   grid_points 100 100 100
!   grid_range  (-10,10) (-10,10) (-10,10)
!$end

--------------------------------------------------------------
 ----------------------------------------------------------------
             Standard Nuclear Orientation (Bohr)
    I     Atom           X                Y                Z
 ----------------------------------------------------------------
    1      C       0.0000000000    -1.3623625091    -0.0000000000
    2      C      -0.0000000000     1.3623625091     0.0000000000
    3      C      -2.3376206850    -2.6436978817    -0.0000000000
    4      C      -4.6989437780    -1.2863193617     0.0000000000
    5      C      -4.6989437780     1.2863193617     0.0000000000
    6      C      -2.3376206850     2.6436978817     0.0000000000
    7      C       2.3376206850     2.6436978817     0.0000000000
    8      C       2.3376206850    -2.6436978817    -0.0000000000
    9      C       4.6989437780    -1.2863193617    -0.0000000000
   10      C       4.6989437780     1.2863193617    -0.0000000000
   11      H       2.3527347410    -4.6914688881    -0.0000000000
   12      H       6.4552948094    -2.3370951729    -0.0000000000
   13      H       6.4552948094     2.3370951729    -0.0000000000
   14      H       2.3527347410     4.6914688881     0.0000000000
   15      H      -2.3527347410    -4.6914688881    -0.0000000000
   16      H      -6.4552948094    -2.3370951729     0.0000000000
   17      H      -6.4552948094     2.3370951729     0.0000000000
   18      H      -2.3527347410     4.6914688881     0.0000000000
 ----------------------------------------------------------------
 Molecular Point Group                 D2h   NOp =  8
 Largest Abelian Subgroup              D2h   NOp =  8
 Nuclear Repulsion Energy =         454.42574361 hartrees
 There are       35 alpha and       33 beta electrons
 Requested basis set is def2-TZVP
 There are 142 shells and 358 basis functions

 Total QAlloc Memory Limit  12000 MB
 Mega-Array Size      2933 MB
 MEM_STATIC part      3000 MB

 A cutoff of  1.0D-14 yielded   9314 shell pairs
 There are     60746 function pairs (     79125 Cartesian)
 Smallest overlap matrix eigenvalue = 6.97E-06

 Scale SEOQF with 1.000000e-01/1.000000e-01/1.000000e+00

 Standard Electronic Orientation quadrupole field applied
 Nucleus-field energy     =     0.0000000153 hartrees
 Requested basis set is STO-3G
 There are 28 shells and 58 basis functions
 A cutoff of  1.0D-14 yielded    372 shell pairs
 There are      1737 function pairs
 Smallest overlap matrix eigenvalue = 1.76E-01
 Constructing guess Fock matrix from core Hamiltonian
 Applying Wolfsberg-Helmholtz approximation
 A restricted Hartree-Fock SCF calculation will be
 performed using Geometric Direct Minimization
 SCF converges when RMS gradient is below 1.0E-04
 ---------------------------------------
  Cycle       Energy        RMS Gradient
 ---------------------------------------
    1    -377.1024281241      3.19E-01 Descent step
    2    -377.5468541962      3.46E-01 Descent step
    3    -377.8859971733      3.03E-01 Descent step
    4    -378.1211214613      1.93E-01 Descent step
    5    -378.2601806527      1.11E-01 Dog-leg BFGS step
    6    -378.3143227321      4.20E-02 Normal BFGS step
    7    -378.3171329705      1.19E-02 Normal BFGS step
    8    -378.3179067138      1.17E-02 Normal BFGS step
    9    -378.3182503324      5.59E-03 Normal BFGS step
   10    -378.3183226581      2.78E-03 Normal BFGS step
   11    -378.3183390535      6.44E-04 Normal BFGS step
   12    -378.3183410818      1.25E-04 Normal BFGS step
   13    -378.3183412080      3.36E-05 Convergence criterion met
 ---------------------------------------
 One-Electron    Energy = -1415.2751875132
 Total Coulomb   Energy =   637.1192831548
 Alpha Exchange  Energy =   -27.8774684288
 Beta  Exchange  Energy =   -26.7107120425
 DFT   Exchange  Energy =     0.0000000000
 DFT Correlation Energy =     0.0000000000
 Nuclear Repu.   Energy =   454.4257436217
 Nuclear Attr.   Energy = -1790.7427064877
 Kinetic         Energy =   375.4675189744
 SCF time:  CPU 0.49 s  wall 0.84 s
 SCF   energy in the small basis set = -378.31834121
 Total energy in the small basis set = -378.31834121
 ----------------------------------------------------
  Cycle       Energy    
 ----------------------------------------------------
    1     -49.2566807390     -4.93E+01
 A restricted Hartree-Fock SCF calculation will be
 performed using Geometric Direct Minimization
 SCF converges when RMS gradient is below 1.0E-10
 ---------------------------------------
  Cycle       Energy        RMS Gradient
 ---------------------------------------
    1    -383.2241170042      1.02E-01 Descent step
    2    -383.3409767478      3.88E-02 Normal BFGS step
    3    -383.3706967425      2.67E-02 Normal BFGS step
    4    -383.3736165128      7.99E-03 Normal BFGS step
    5    -383.3737408410      2.97E-03 Normal BFGS step
    6    -383.3737580551      8.66E-04 Normal BFGS step
    7    -383.3737612699      2.35E-04 Normal BFGS step
    8    -383.3737614434      3.33E-05 Normal BFGS step
    9    -383.3737614569      1.01E-05 Normal BFGS step
   10    -383.3737614577      1.42E-06 Normal BFGS step
   11    -383.3737614577      4.93E-07 Normal BFGS step
   12    -383.3737614577      6.04E-08 Normal BFGS step
   13    -383.3737614577      1.26E-08 Normal BFGS step
   14    -383.3737614577      2.54E-09 Normal BFGS step
   15    -383.3737614577      1.15E-09 Normal BFGS step
   GDM::WARNING energy changes are now smaller than effective accuracy.
   GDM::        calculation will continue, but THRESH should be increased
   GDM::        or SCF_CONVERGENCE decreased.
   GDM::        effective_thresh =   1.787024826727102E-009
   16    -383.3737614577      4.24E-10 Normal BFGS step
   GDM::WARNING energy changes are now smaller than effective accuracy.
   GDM::        calculation will continue, but THRESH should be increased
   GDM::        or SCF_CONVERGENCE decreased.
   GDM::        effective_thresh =   1.787024826727102E-009
   17    -383.3737614577      2.01E-10 Normal BFGS step
   18    -383.3737614577      3.42E-11 Convergence criterion met
 ---------------------------------------
 One-Electron    Energy = -1418.3145495411
 Total Coulomb   Energy =   635.2281110286
 Alpha Exchange  Energy =   -27.7907471404
 Beta  Exchange  Energy =   -26.9223194265
 DFT   Exchange  Energy =     0.0000000000
 DFT Correlation Energy =     0.0000000000
 Nuclear Repu.   Energy =   454.4257436217
 Nuclear Attr.   Energy = -1801.1807663365
 Kinetic         Energy =   382.8662167954
 SCF time:  CPU 778.52 s  wall 785.93 s
 SCF   energy in the final basis set = -383.37376146
 Total energy in the final basis set = -383.37376146
  
     ##========================================##
     ||                                        ||
     ||              R A S M A N 2             ||
     ||________________________________________||
     ||                                        ||
     ||  Author:                               ||
     ||                                        ||
     ||        David Casanova (2010)           ||
     ||                                        ||
     ##========================================##
  
Setting single-point xc-functionals (if necessary)

  ***************************************************
  *  RAS-CI Dimensions:                             *
  *                                                 *
  *  Active Elec.:   6 ( 4, 2)   Active Orb.:  10   *
  *  Doubly Occ. :  31           Doubly Vir.: 317   *
  *  Frozen Occ. :  11           Frozen Vir.: 297   *
  *                                                 *
  *  Total CI configurations:    890250             * 
  *    Active configurations:      9450             * 
  *      Hole configurations:    730800             * 
  *  Particle configurations:    150000             * 
  *                                                 *
  *   Requested states:       20                    *
  *  Spin multiplicity: Any multiplicity            *
  *                                                 *
  ***************************************************
-----------------------------------------
    Memory requirements of RASCI

 Each CI-vector requires      6.79 MiB 
 Max. subspace vectors           3000      

 Reduced Lists                0.01 MiB 
 Excitation Lists             0.01 MiB 
 Excitation Lists Sign        0.01 MiB 
 CI-space (Max)           20580.73 MiB 
 Integrals                  206.24 MiB 
 Memory required (Max)    20580.76 MiB 
 Memory available          2861.02 MiB 

 Q-Chem warning in module rasman2/ras_mem_check.C, line 162:

 Static memory may be insufficient to store the subspace vectors


    Disk requirements of RASCI

 Fock matrix                  1.96 MiB 
 2-electron integrals         3.81 MiB 
 CI-space                 40752.41 MiB 
 Disk required            40758.18 MiB 
-----------------------------------------
  
RAS1 HF-like energy:           -378.1698989078
 Computing integrals
 Computing J and K matrices
 Computing addressing
 Making amplitude guesses
 
Direct CI diagonalization
 ---------------------------------------------------
 Iter    Rts Conv    Rts Left    Ttl Dev     Max Dev
 ---------------------------------------------------
   1         0          20      0.004037    0.000234
   2         0          20      0.002011    0.000140
   3         0          20      0.001341    0.000104
   4         0          20      0.001383    0.000229
   5         0          20      0.001496    0.000196
   6         0          20      0.001241    0.000145
   7         0          20      0.001091    0.000135
   8         0          20      0.000917    0.000129
   9         2          18      0.000656    0.000100
  10         2          18      0.000623    0.000162
  11         2          18      0.000573    0.000167
  12         4          16      0.000395    0.000097
  13         5          15      0.000252    0.000061
  14         8          12      0.000163    0.000040
  15         8          12      0.000129    0.000029
  16         9          11      0.000154    0.000087
  17        10          10      0.000134    0.000072
  18        13           7      0.000098    0.000052
  19        14           6      0.000066    0.000037
  20        16           4      0.000048    0.000027
  21        16           4      0.000038    0.000022
  22        17           3      0.000030    0.000018
  23        17           3      0.000025    0.000014
  24        18           2      0.000021    0.000012
  25        18           2      0.000018    0.000009
  26        19           1      0.000016    0.000007
  27        19           1      0.000014    0.000005
  28        19           1      0.000012    0.000004
  29        19           1      0.000010    0.000002
  30        19           1      0.000010    0.000002
  31        19           1      0.000010    0.000002
  32        19           1      0.000009    0.000001
  33        20           0      0.000009    0.000001    Roots Converged
 ---------------------------------------------------
   
**************************************************
 RAS-CI total energy for state   1:   -383.434690924452
  Excitation energy (eV) =  0.000000000000
  State symmetry: B2u   (D2h      )
  <S^2>      :  2.0000
  Dipole Moment:   -0.0000 X    -0.0000 Y    -0.0000 Z
 NATURAL OCCUPATION NUMBERS (higher than 1.0E-05)
            1           2           3           4           5           6
    1   2.0000000   2.0000000   2.0000000   2.0000000   2.0000000   2.0000000
            7           8           9          10          11          12
    1   2.0000000   2.0000000   2.0000000   2.0000000   2.0000000   1.9999870
           13          14          15          16          17          18
    1   1.9999818   1.9999759   1.9999717   1.9999659   1.9999298   1.9999276
           19          20          21          22          23          24
    1   1.9999050   1.9998957   1.9998889   1.9998870   1.9998775   1.9998273
           25          26          27          28          29          30
    1   1.9997273   1.9996851   1.9996554   1.9996311   1.9993094   1.9924102
           31          32          33          34          35          36
    1   1.9922135   1.9584710   1.9114458   1.0387331   0.9650018   0.0844586
           37          38          39          40          41          42
    1   0.0412108   0.0073030   0.0055203   0.0016973   0.0013089   0.0008698
           43          44          45          46          47          48
    1   0.0005956   0.0005202   0.0005107   0.0004204   0.0001500   0.0000511
           49          50          51
    1   0.0000380   0.0000182   0.0000122

 Head-Gordon Nu:    2.22
 Head-Gordon Nu_nl: 2.06

  Amplitudes : 
  
 | HOLE  | ALPHA      | BETA       | PART  |    AMPLITUDE 
--------------------------------------------------
 |       | 1111000000 | 1100000000 |       |     9.4047570312060E-01
 |       | 1110010000 | 0110000000 |       |    -1.8830742817874E-01
--------------------------------------------------
*** Contributions RASCI wfn    Active:  95.63
                                 Hole:   2.06
                                 Part:   2.31

      Mulliken population analysis 
 ---------------------------------------------------
   Atom    Charge (a.u.)   Spin (a.u.)  
 ---------------------------------------------------
   1  C    0.091896       -0.089122 
   2  C    0.091896       -0.089122 
   3  C   -0.157240        0.458577 
   4  C   -0.134251        0.090530 
   5  C   -0.134251        0.090530 
   6  C   -0.157240        0.458577 
   7  C   -0.157240        0.458577 
   8  C   -0.157240        0.458577 
   9  C   -0.134251        0.090530 
  10  C   -0.134251        0.090530 
  11  H    0.124703       -0.002827 
  12  H    0.120840       -0.001720 
  13  H    0.120840       -0.001720 
  14  H    0.124703       -0.002827 
  15  H    0.124703       -0.002827 
  16  H    0.120840       -0.001720 
  17  H    0.120840       -0.001720 
  18  H    0.124703       -0.002827 
 ---------------------------------------------------
   Sum:   -0.000000        2.000000 
 ---------------------------------------------------
 
  
 NATURAL OCCUPATION NUMBERS (higher than 1.0E-05)
            1           2           3           4           5           6
    1   2.0000000   2.0000000   2.0000000   2.0000000   2.0000000   2.0000000
            7           8           9          10          11          12
    1   2.0000000   2.0000000   2.0000000   2.0000000   2.0000000   1.9999870
           13          14          15          16          17          18
    1   1.9999818   1.9999759   1.9999717   1.9999659   1.9999298   1.9999276
           19          20          21          22          23          24
    1   1.9999050   1.9998957   1.9998889   1.9998870   1.9998775   1.9998273
           25          26          27          28          29          30
    1   1.9997273   1.9996851   1.9996554   1.9996311   1.9993094   1.9924102
           31          32          33          34          35          36
    1   1.9922135   1.9584710   1.9114458   1.0387331   0.9650018   0.0844586
           37          38          39          40          41          42
    1   0.0412108   0.0073030   0.0055203   0.0016973   0.0013089   0.0008698
           43          44          45          46          47          48
    1   0.0005956   0.0005202   0.0005107   0.0004204   0.0001500   0.0000511
           49          50          51
    1   0.0000380   0.0000182   0.0000122
  
*** Unpaired Electrons
 Yamaguchi Nd:         2.56
 Head-Gordon Nu:       2.22
 Head-Gordon Nu_nl:    2.06
  
**************************************************
 RAS-CI total energy for state   2:   -383.369044638666
  Excitation energy (eV) =  1.786326321676
  State symmetry: B1g   (D2h      )
  <S^2>      :  2.0000
  Dipole Moment:   -0.0000 X    -0.0000 Y    -0.0000 Z
  Trans. Moment:   -0.0049 X    -0.0000 Y    -0.0000 Z
  Strength   :  0.000001
  Natural transition orbitals ( 1 -> 2 ):
   e-/hole pair  1 alpha:  ampl =  0.663557 ( 44.0%)   [10 : 11]
   e-/hole pair  2 alpha:  ampl =  0.141171 (  2.0%)   [9 : 12]
   e-/hole pair  1 beta :  ampl =  0.629599 ( 39.6%)   [10 : 11]
   e-/hole pair  2 beta :  ampl =  0.144960 (  2.1%)   [9 : 12]
   Sum of square amplitudes: 0.91

 NATURAL OCCUPATION NUMBERS (higher than 1.0E-05)
            1           2           3           4           5           6
    1   2.0000000   2.0000000   2.0000000   2.0000000   2.0000000   2.0000000
            7           8           9          10          11          12
    1   2.0000000   2.0000000   2.0000000   2.0000000   2.0000000   1.9999853
           13          14          15          16          17          18
    1   1.9999802   1.9999751   1.9999750   1.9999612   1.9999477   1.9999364
           19          20          21          22          23          24
    1   1.9999184   1.9999126   1.9999069   1.9999060   1.9998943   1.9998588
           25          26          27          28          29          30
    1   1.9997742   1.9997080   1.9996460   1.9996455   1.9996214   1.9910791
           31          32          33          34          35          36
    1   1.9900407   1.9531222   1.4946715   1.4276296   0.5435148   0.5380771
           37          38          39          40          41          42
    1   0.0443076   0.0078379   0.0063626   0.0017782   0.0009333   0.0008101
           43          44          45          46          47          48
    1   0.0005470   0.0005420   0.0005011   0.0004639   0.0001190   0.0000407
           49          50
    1   0.0000291   0.0000197

 Head-Gordon Nu:    2.29
 Head-Gordon Nu_nl: 2.50

  Amplitudes : 
  
 | HOLE  | ALPHA      | BETA       | PART  |    AMPLITUDE 
--------------------------------------------------
 |       | 1111000000 | 0110000000 |       |    -6.4908403325482E-01
 |       | 1110010000 | 1100000000 |       |     6.7369134210821E-01
 |       | 0111010000 | 0101000000 |       |     1.0310885179705E-01
--------------------------------------------------
*** Contributions RASCI wfn    Active:  93.34
                                 Hole:   3.04
                                 Part:   3.62

      Mulliken population analysis 
 ---------------------------------------------------
   Atom    Charge (a.u.)   Spin (a.u.)  
 ---------------------------------------------------
   1  C    0.083157        0.124416 
   2  C    0.083157        0.124416 
   3  C   -0.155493        0.392930 
   4  C   -0.137403        0.046809 
   5  C   -0.137403        0.046809 
   6  C   -0.155493        0.392930 
   7  C   -0.155493        0.392930 
   8  C   -0.155493        0.392930 
   9  C   -0.137403        0.046809 
  10  C   -0.137403        0.046809 
  11  H    0.128114       -0.001223 
  12  H    0.123202       -0.000723 
  13  H    0.123202       -0.000723 
  14  H    0.128114       -0.001223 
  15  H    0.128114       -0.001223 
  16  H    0.123202       -0.000723 
  17  H    0.123202       -0.000723 
  18  H    0.128114       -0.001223 
 ---------------------------------------------------
   Sum:   -0.000000        2.000000 
 ---------------------------------------------------
 
  
 NATURAL OCCUPATION NUMBERS (higher than 1.0E-05)
            1           2           3           4           5           6
    1   2.0000000   2.0000000   2.0000000   2.0000000   2.0000000   2.0000000
            7           8           9          10          11          12
    1   2.0000000   2.0000000   2.0000000   2.0000000   2.0000000   1.9999853
           13          14          15          16          17          18
    1   1.9999802   1.9999751   1.9999750   1.9999612   1.9999477   1.9999364
           19          20          21          22          23          24
    1   1.9999184   1.9999126   1.9999069   1.9999060   1.9998943   1.9998588
           25          26          27          28          29          30
    1   1.9997742   1.9997080   1.9996460   1.9996455   1.9996214   1.9910791
           31          32          33          34          35          36
    1   1.9900407   1.9531222   1.4946715   1.4276296   0.5435148   0.5380771
           37          38          39          40          41          42
    1   0.0443076   0.0078379   0.0063626   0.0017782   0.0009333   0.0008101
           43          44          45          46          47          48
    1   0.0005470   0.0005420   0.0005011   0.0004639   0.0001190   0.0000407
           49          50
    1   0.0000291   0.0000197
  
*** Unpaired Electrons
 Yamaguchi Nd:         3.41
 Head-Gordon Nu:       2.29
 Head-Gordon Nu_nl:    2.50
  
**************************************************
 RAS-CI total energy for state   3:   -383.362763998446
  Excitation energy (eV) =  1.957231237445
  State symmetry: B3u   (D2h      )
  <S^2>      :  2.0000
  Dipole Moment:    0.0000 X    -0.0000 Y    -0.0000 Z
  Trans. Moment:    0.0000 X    -0.0000 Y    -0.0000 Z
  Strength   :  0.000000
  Natural transition orbitals ( 1 -> 3 ):
   e-/hole pair  1 alpha:  ampl =  0.681406 ( 46.4%)   [10 : 11]
   e-/hole pair  2 alpha:  ampl =  0.093314 (  0.9%)   [9 : 12]
   e-/hole pair  1 beta :  ampl =  0.584969 ( 34.2%)   [10 : 11]
   e-/hole pair  2 beta :  ampl =  0.095235 (  0.9%)   [9 : 12]
   Sum of square amplitudes: 0.85

 NATURAL OCCUPATION NUMBERS (higher than 1.0E-05)
            1           2           3           4           5           6
    1   2.0000000   2.0000000   2.0000000   2.0000000   2.0000000   2.0000000
            7           8           9          10          11          12
    1   2.0000000   2.0000000   2.0000000   2.0000000   2.0000000   1.9999822
           13          14          15          16          17          18
    1   1.9999822   1.9999794   1.9999539   1.9999506   1.9999382   1.9999378
           19          20          21          22          23          24
    1   1.9999327   1.9999327   1.9999140   1.9998870   1.9998759   1.9998028
           25          26          27          28          29          30
    1   1.9997814   1.9997650   1.9996974   1.9995665   1.9994823   1.9872508
           31          32          33          34          35          36
    1   1.9600044   1.9334468   1.5599449   1.3908601   0.5770879   0.4909765
           37          38          39          40          41          42
    1   0.0545426   0.0351978   0.0070979   0.0013698   0.0012456   0.0009247
           43          44          45          46          47          48
    1   0.0007967   0.0005763   0.0005478   0.0003899   0.0001964   0.0000633
           49          50          51
    1   0.0000518   0.0000335   0.0000211

 Head-Gordon Nu:    2.34
 Head-Gordon Nu_nl: 2.45

  Amplitudes : 
  
 | HOLE  | ALPHA      | BETA       | PART  |    AMPLITUDE 
--------------------------------------------------
 |       | 1111000000 | 1010000000 |       |     5.8791767937299E-01
 |       | 1110100000 | 1100000000 |       |     6.8085682709459E-01
 |  31   | 1111100000 | 1100000000 |       |     1.3082429427780E-01
 |  31   | 1101100000 | 1110000000 |       |     1.2525242544053E-01
 |       | 1110000000 | 1001000000 |  46   |     1.1136217794871E-01
 |       | 1111000000 | 1000000000 |  46   |     1.1263086312514E-01
--------------------------------------------------
*** Contributions RASCI wfn    Active:  85.10
                                 Hole:   8.05
                                 Part:   6.85

      Mulliken population analysis 
 ---------------------------------------------------
   Atom    Charge (a.u.)   Spin (a.u.)  
 ---------------------------------------------------
   1  C    0.082741        0.164579 
   2  C    0.082741        0.164579 
   3  C   -0.139057        0.207338 
   4  C   -0.153701        0.212874 
   5  C   -0.153701        0.212874 
   6  C   -0.139057        0.207338 
   7  C   -0.139057        0.207338 
   8  C   -0.139057        0.207338 
   9  C   -0.153701        0.212874 
  10  C   -0.153701        0.212874 
  11  H    0.126989       -0.001239 
  12  H    0.124398       -0.001263 
  13  H    0.124398       -0.001263 
  14  H    0.126989       -0.001239 
  15  H    0.126989       -0.001239 
  16  H    0.124398       -0.001263 
  17  H    0.124398       -0.001263 
  18  H    0.126989       -0.001239 
 ---------------------------------------------------
   Sum:   -0.000000        2.000000 
 ---------------------------------------------------
 
  
 NATURAL OCCUPATION NUMBERS (higher than 1.0E-05)
            1           2           3           4           5           6
    1   2.0000000   2.0000000   2.0000000   2.0000000   2.0000000   2.0000000
            7           8           9          10          11          12
    1   2.0000000   2.0000000   2.0000000   2.0000000   2.0000000   1.9999822
           13          14          15          16          17          18
    1   1.9999822   1.9999794   1.9999539   1.9999506   1.9999382   1.9999378
           19          20          21          22          23          24
    1   1.9999327   1.9999327   1.9999140   1.9998870   1.9998759   1.9998028
           25          26          27          28          29          30
    1   1.9997814   1.9997650   1.9996974   1.9995665   1.9994823   1.9872508
           31          32          33          34          35          36
    1   1.9600044   1.9334468   1.5599449   1.3908601   0.5770879   0.4909765
           37          38          39          40          41          42
    1   0.0545426   0.0351978   0.0070979   0.0013698   0.0012456   0.0009247
           43          44          45          46          47          48
    1   0.0007967   0.0005763   0.0005478   0.0003899   0.0001964   0.0000633
           49          50          51
    1   0.0000518   0.0000335   0.0000211
  
*** Unpaired Electrons
 Yamaguchi Nd:         3.54
 Head-Gordon Nu:       2.34
 Head-Gordon Nu_nl:    2.45
  
**************************************************
 RAS-CI total energy for state   4:   -383.324519503891
  Excitation energy (eV) =  2.997916882728
  State symmetry: B3u   (D2h      )
  <S^2>      :  2.0000
  Dipole Moment:    0.0000 X    -0.0000 Y    -0.0000 Z
  Trans. Moment:    0.0000 X     0.0000 Y     0.0000 Z
  Strength   :  0.000000
  Natural transition orbitals ( 1 -> 4 ):
   e-/hole pair  1 alpha:  ampl =  0.611341 ( 37.4%)   [10 : 11]
   e-/hole pair  2 alpha:  ampl =  0.036967 (  0.1%)   [9 : 12]
   e-/hole pair  1 beta :  ampl =  0.690375 ( 47.7%)   [10 : 11]
   e-/hole pair  2 beta :  ampl =  0.044221 (  0.2%)   [9 : 12]
   Sum of square amplitudes: 0.86

 NATURAL OCCUPATION NUMBERS (higher than 1.0E-05)
            1           2           3           4           5           6
    1   2.0000000   2.0000000   2.0000000   2.0000000   2.0000000   2.0000000
            7           8           9          10          11          12
    1   2.0000000   2.0000000   2.0000000   2.0000000   2.0000000   1.9999757
           13          14          15          16          17          18
    1   1.9999736   1.9999667   1.9999348   1.9999285   1.9999177   1.9999121
           19          20          21          22          23          24
    1   1.9999030   1.9998789   1.9998656   1.9998449   1.9997780   1.9997225
           25          26          27          28          29          30
    1   1.9997209   1.9996875   1.9995776   1.9993823   1.9992858   1.9956398
           31          32          33          34          35          36
    1   1.9859200   1.9536941   1.5386240   1.4266881   0.5856985   0.4506280
           37          38          39          40          41          42
    1   0.0433364   0.0127295   0.0027385   0.0016882   0.0016655   0.0013884
           43          44          45          46          47          48
    1   0.0009220   0.0008813   0.0006074   0.0003732   0.0003630   0.0000650
           49          50          51
    1   0.0000319   0.0000253   0.0000157

 Head-Gordon Nu:    2.21
 Head-Gordon Nu_nl: 2.36

  Amplitudes : 
  
 | HOLE  | ALPHA      | BETA       | PART  |    AMPLITUDE 
--------------------------------------------------
 |       | 1111000000 | 1010000000 |       |     7.0515583979348E-01
 |       | 1110100000 | 1100000000 |       |    -6.2319532975464E-01
--------------------------------------------------
*** Contributions RASCI wfn    Active:  92.13
                                 Hole:   3.92
                                 Part:   3.95

      Mulliken population analysis 
 ---------------------------------------------------
   Atom    Charge (a.u.)   Spin (a.u.)  
 ---------------------------------------------------
   1  C    0.113462        0.194087 
   2  C    0.113462        0.194087 
   3  C   -0.160934        0.189989 
   4  C   -0.143654        0.216421 
   5  C   -0.143654        0.216421 
   6  C   -0.160934        0.189989 
   7  C   -0.160934        0.189989 
   8  C   -0.160934        0.189989 
   9  C   -0.143654        0.216421 
  10  C   -0.143654        0.216421 
  11  H    0.122590       -0.001538 
  12  H    0.125267       -0.001916 
  13  H    0.125267       -0.001916 
  14  H    0.122590       -0.001538 
  15  H    0.122590       -0.001538 
  16  H    0.125267       -0.001916 
  17  H    0.125267       -0.001916 
  18  H    0.122590       -0.001538 
 ---------------------------------------------------
   Sum:   -0.000000        2.000000 
 ---------------------------------------------------
 
  
 NATURAL OCCUPATION NUMBERS (higher than 1.0E-05)
            1           2           3           4           5           6
    1   2.0000000   2.0000000   2.0000000   2.0000000   2.0000000   2.0000000
            7           8           9          10          11          12
    1   2.0000000   2.0000000   2.0000000   2.0000000   2.0000000   1.9999757
           13          14          15          16          17          18
    1   1.9999736   1.9999667   1.9999348   1.9999285   1.9999177   1.9999121
           19          20          21          22          23          24
    1   1.9999030   1.9998789   1.9998656   1.9998449   1.9997780   1.9997225
           25          26          27          28          29          30
    1   1.9997209   1.9996875   1.9995776   1.9993823   1.9992858   1.9956398
           31          32          33          34          35          36
    1   1.9859200   1.9536941   1.5386240   1.4266881   0.5856985   0.4506280
           37          38          39          40          41          42
    1   0.0433364   0.0127295   0.0027385   0.0016882   0.0016655   0.0013884
           43          44          45          46          47          48
    1   0.0009220   0.0008813   0.0006074   0.0003732   0.0003630   0.0000650
           49          50          51
    1   0.0000319   0.0000253   0.0000157
  
*** Unpaired Electrons
 Yamaguchi Nd:         3.32
 Head-Gordon Nu:       2.21
 Head-Gordon Nu_nl:    2.36
  
**************************************************
 RAS-CI total energy for state   5:   -383.303173250876
  Excitation energy (eV) =  3.578777980552
  State symmetry: B2u   (D2h      )
  <S^2>      :  2.0000
  Dipole Moment:    0.0000 X     0.0000 Y    -0.0000 Z
  Trans. Moment:   -0.0000 X    -0.0000 Y     0.0000 Z
  Strength   :  0.000000
  Natural transition orbitals ( 1 -> 5 ):
   e-/hole pair  1 alpha:  ampl =  0.058944 (  0.3%)   [10 : 11]
   e-/hole pair  2 alpha:  ampl =  0.046380 (  0.2%)   [9 : 12]
   e-/hole pair  1 beta :  ampl =  0.053138 (  0.3%)   [10 : 11]
   e-/hole pair  2 beta :  ampl =  0.049230 (  0.2%)   [9 : 12]
   Sum of square amplitudes: 0.02

 NATURAL OCCUPATION NUMBERS (higher than 1.0E-05)
            1           2           3           4           5           6
    1   2.0000000   2.0000000   2.0000000   2.0000000   2.0000000   2.0000000
            7           8           9          10          11          12
    1   2.0000000   2.0000000   2.0000000   2.0000000   2.0000000   1.9999869
           13          14          15          16          17          18
    1   1.9999849   1.9999806   1.9999802   1.9999725   1.9999713   1.9999494
           19          20          21          22          23          24
    1   1.9999372   1.9999286   1.9999215   1.9999046   1.9998901   1.9998894
           25          26          27          28          29          30
    1   1.9998892   1.9998661   1.9997394   1.9996186   1.9995062   1.9902351
           31          32          33          34          35          36
    1   1.9731769   1.9371435   1.8887053   1.0209883   0.9834093   0.1183113
           37          38          39          40          41          42
    1   0.0581394   0.0193596   0.0068853   0.0022086   0.0009500   0.0007165
           43          44          45          46          47          48
    1   0.0004691   0.0004563   0.0003306   0.0002775   0.0001622   0.0000786
           49          50
    1   0.0000504   0.0000112

 Head-Gordon Nu:    2.38
 Head-Gordon Nu_nl: 2.12

  Amplitudes : 
  
 | HOLE  | ALPHA      | BETA       | PART  |    AMPLITUDE 
--------------------------------------------------
 |       | 1110100000 | 1010000000 |       |    -8.9469576096038E-01
 |       | 1101100000 | 1001000000 |       |     1.3912053975779E-01
 |  31   | 1110100000 | 1011000000 |       |     1.6964244572938E-01
 |       | 1100100000 | 1010000000 |  46   |     1.6330567662594E-01
--------------------------------------------------
*** Contributions RASCI wfn    Active:  87.54
                                 Hole:   6.29
                                 Part:   6.16

      Mulliken population analysis 
 ---------------------------------------------------
   Atom    Charge (a.u.)   Spin (a.u.)  
 ---------------------------------------------------
   1  C    0.094420        0.440753 
   2  C    0.094420        0.440753 
   3  C   -0.145738       -0.087789 
   4  C   -0.157947        0.369243 
   5  C   -0.157947        0.369243 
   6  C   -0.145738       -0.087789 
   7  C   -0.145738       -0.087789 
   8  C   -0.145738       -0.087789 
   9  C   -0.157947        0.369243 
  10  C   -0.157947        0.369243 
  11  H    0.127094       -0.000306 
  12  H    0.129381       -0.001525 
  13  H    0.129381       -0.001525 
  14  H    0.127094       -0.000306 
  15  H    0.127094       -0.000306 
  16  H    0.129381       -0.001525 
  17  H    0.129381       -0.001525 
  18  H    0.127094       -0.000306 
 ---------------------------------------------------
   Sum:   -0.000000        2.000000 
 ---------------------------------------------------
 
  
 NATURAL OCCUPATION NUMBERS (higher than 1.0E-05)
            1           2           3           4           5           6
    1   2.0000000   2.0000000   2.0000000   2.0000000   2.0000000   2.0000000
            7           8           9          10          11          12
    1   2.0000000   2.0000000   2.0000000   2.0000000   2.0000000   1.9999869
           13          14          15          16          17          18
    1   1.9999849   1.9999806   1.9999802   1.9999725   1.9999713   1.9999494
           19          20          21          22          23          24
    1   1.9999372   1.9999286   1.9999215   1.9999046   1.9998901   1.9998894
           25          26          27          28          29          30
    1   1.9998892   1.9998661   1.9997394   1.9996186   1.9995062   1.9902351
           31          32          33          34          35          36
    1   1.9731769   1.9371435   1.8887053   1.0209883   0.9834093   0.1183113
           37          38          39          40          41          42
    1   0.0581394   0.0193596   0.0068853   0.0022086   0.0009500   0.0007165
           43          44          45          46          47          48
    1   0.0004691   0.0004563   0.0003306   0.0002775   0.0001622   0.0000786
           49          50
    1   0.0000504   0.0000112
  
*** Unpaired Electrons
 Yamaguchi Nd:         2.81
 Head-Gordon Nu:       2.38
 Head-Gordon Nu_nl:    2.12
  
**************************************************
 RAS-CI total energy for state   6:   -383.288853088603
  Excitation energy (eV) =  3.968449421844
  State symmetry: Ag    (D2h      )
  <S^2>      :  2.0000
  Dipole Moment:    0.0000 X     0.0000 Y    -0.0000 Z
  Trans. Moment:    0.0000 X    -0.1423 Y     0.0000 Z
  Strength   :  0.001970
  Natural transition orbitals ( 1 -> 6 ):
   e-/hole pair  1 alpha:  ampl =  0.235584 (  5.5%)   [10 : 11]
   e-/hole pair  2 alpha:  ampl =  0.130060 (  1.7%)   [9 : 12]
   e-/hole pair  1 beta :  ampl =  0.327061 ( 10.7%)   [10 : 11]
   e-/hole pair  2 beta :  ampl =  0.128451 (  1.6%)   [9 : 12]
   Sum of square amplitudes: 0.21

 NATURAL OCCUPATION NUMBERS (higher than 1.0E-05)
            1           2           3           4           5           6
    1   2.0000000   2.0000000   2.0000000   2.0000000   2.0000000   2.0000000
            7           8           9          10          11          12
    1   2.0000000   2.0000000   2.0000000   2.0000000   2.0000000   1.9999841
           13          14          15          16          17          18
    1   1.9999753   1.9999745   1.9999546   1.9999482   1.9999406   1.9999329
           19          20          21          22          23          24
    1   1.9999319   1.9999277   1.9999249   1.9999106   1.9999068   1.9999023
           25          26          27          28          29          30
    1   1.9998301   1.9998010   1.9997018   1.9996453   1.9996116   1.9784385
           31          32          33          34          35          36
    1   1.8518724   1.8078698   1.6062636   1.5582435   0.4457386   0.4015805
           37          38          39          40          41          42
    1   0.2516385   0.0833994   0.0109008   0.0021054   0.0009667   0.0008218
           43          44          45          46          47          48
    1   0.0006675   0.0005241   0.0003851   0.0003561   0.0002606   0.0000618
           49          50
    1   0.0000462   0.0000336

 Head-Gordon Nu:    2.40
 Head-Gordon Nu_nl: 2.18

  Amplitudes : 
  
 | HOLE  | ALPHA      | BETA       | PART  |    AMPLITUDE 
--------------------------------------------------
 |       | 1110100000 | 0110000000 |       |    -5.4484993706071E-01
 |       | 1110010000 | 1010000000 |       |     5.8869623429692E-01
 |       | 1101010000 | 1001000000 |       |    -1.0206089851866E-01
 |  31   | 1111000000 | 1110000000 |       |     3.3927542327914E-01
 |       | 1110000000 | 1100000000 |  46   |    -2.4346183974207E-01
--------------------------------------------------
*** Contributions RASCI wfn    Active:  69.93
                                 Hole:  18.70
                                 Part:  11.36

      Mulliken population analysis 
 ---------------------------------------------------
   Atom    Charge (a.u.)   Spin (a.u.)  
 ---------------------------------------------------
   1  C    0.117699        0.228076 
   2  C    0.117699        0.228076 
   3  C   -0.183338        0.202352 
   4  C   -0.131057        0.183361 
   5  C   -0.131057        0.183361 
   6  C   -0.183338        0.202352 
   7  C   -0.183338        0.202352 
   8  C   -0.183338        0.202352 
   9  C   -0.131057        0.183361 
  10  C   -0.131057        0.183361 
  11  H    0.127854        0.000563 
  12  H    0.127692       -0.000315 
  13  H    0.127692       -0.000315 
  14  H    0.127854        0.000563 
  15  H    0.127854        0.000563 
  16  H    0.127692       -0.000315 
  17  H    0.127692       -0.000315 
  18  H    0.127854        0.000563 
 ---------------------------------------------------
   Sum:   -0.000000        2.000000 
 ---------------------------------------------------
 
  
 NATURAL OCCUPATION NUMBERS (higher than 1.0E-05)
            1           2           3           4           5           6
    1   2.0000000   2.0000000   2.0000000   2.0000000   2.0000000   2.0000000
            7           8           9          10          11          12
    1   2.0000000   2.0000000   2.0000000   2.0000000   2.0000000   1.9999841
           13          14          15          16          17          18
    1   1.9999753   1.9999745   1.9999546   1.9999482   1.9999406   1.9999329
           19          20          21          22          23          24
    1   1.9999319   1.9999277   1.9999249   1.9999106   1.9999068   1.9999023
           25          26          27          28          29          30
    1   1.9998301   1.9998010   1.9997018   1.9996453   1.9996116   1.9784385
           31          32          33          34          35          36
    1   1.8518724   1.8078698   1.6062636   1.5582435   0.4457386   0.4015805
           37          38          39          40          41          42
    1   0.2516385   0.0833994   0.0109008   0.0021054   0.0009667   0.0008218
           43          44          45          46          47          48
    1   0.0006675   0.0005241   0.0003851   0.0003561   0.0002606   0.0000618
           49          50
    1   0.0000462   0.0000336
  
*** Unpaired Electrons
 Yamaguchi Nd:         3.96
 Head-Gordon Nu:       2.40
 Head-Gordon Nu_nl:    2.18
  
**************************************************
 RAS-CI total energy for state   7:   -383.283730946645
  Excitation energy (eV) =  4.107829995990
  State symmetry: B1g   (D2h      )
  <S^2>      :  2.0000
  Dipole Moment:    0.0000 X    -0.0000 Y    -0.0000 Z
  Trans. Moment:    1.4524 X    -0.0000 Y    -0.0000 Z
  Strength   :  0.212297
  Natural transition orbitals ( 1 -> 7 ):
   e-/hole pair  1 alpha:  ampl =  0.614668 ( 37.8%)   [10 : 11]
   e-/hole pair  2 alpha:  ampl =  0.209465 (  4.4%)   [9 : 12]
   e-/hole pair  1 beta :  ampl =  0.627420 ( 39.4%)   [10 : 11]
   e-/hole pair  2 beta :  ampl =  0.146595 (  2.1%)   [9 : 12]
   Sum of square amplitudes: 0.87

 NATURAL OCCUPATION NUMBERS (higher than 1.0E-05)
            1           2           3           4           5           6
    1   2.0000000   2.0000000   2.0000000   2.0000000   2.0000000   2.0000000
            7           8           9          10          11          12
    1   2.0000000   2.0000000   2.0000000   2.0000000   2.0000000   1.9999748
           13          14          15          16          17          18
    1   1.9999738   1.9999696   1.9999629   1.9999344   1.9998944   1.9998924
           19          20          21          22          23          24
    1   1.9998905   1.9998881   1.9998839   1.9998496   1.9998287   1.9998188
           25          26          27          28          29          30
    1   1.9995794   1.9995630   1.9993362   1.9993198   1.9977468   1.9917006
           31          32          33          34          35          36
    1   1.9773842   1.9140904   1.5065397   1.3914422   0.6130012   0.4669909
           37          38          39          40          41          42
    1   0.1092034   0.0184468   0.0048963   0.0030598   0.0025117   0.0019865
           43          44          45          46          47          48
    1   0.0011557   0.0010548   0.0009478   0.0008707   0.0001799   0.0001264
           49          50          51
    1   0.0000491   0.0000164   0.0000118

 Head-Gordon Nu:    2.45
 Head-Gordon Nu_nl: 2.58

  Amplitudes : 
  
 | HOLE  | ALPHA      | BETA       | PART  |    AMPLITUDE 
--------------------------------------------------
 |       | 1111000000 | 1001000000 |       |    -1.6633696062460E-01
 |       | 1111000000 | 0110000000 |       |     6.3206671333373E-01
 |       | 1110010000 | 1100000000 |       |     6.1685328432417E-01
 |       | 1101100000 | 1100000000 |       |    -2.2247055812770E-01
 |  31   | 1111010000 | 1100000000 |       |     1.0853391466196E-01
 |       | 1111000000 | 0100000000 |  46   |     1.1741390438358E-01
--------------------------------------------------
*** Contributions RASCI wfn    Active:  90.02
                                 Hole:   5.25
                                 Part:   4.73

      Mulliken population analysis 
 ---------------------------------------------------
   Atom    Charge (a.u.)   Spin (a.u.)  
 ---------------------------------------------------
   1  C    0.115998        0.070420 
   2  C    0.115998        0.070420 
   3  C   -0.164718        0.406591 
   4  C   -0.137014        0.060086 
   5  C   -0.137014        0.060086 
   6  C   -0.164718        0.406591 
   7  C   -0.164718        0.406591 
   8  C   -0.164718        0.406591 
   9  C   -0.137014        0.060086 
  10  C   -0.137014        0.060086 
  11  H    0.122161       -0.001024 
  12  H    0.121572       -0.000863 
  13  H    0.121572       -0.000863 
  14  H    0.122161       -0.001024 
  15  H    0.122161       -0.001024 
  16  H    0.121572       -0.000863 
  17  H    0.121572       -0.000863 
  18  H    0.122161       -0.001024 
 ---------------------------------------------------
   Sum:   -0.000000        2.000000 
 ---------------------------------------------------
 
  
 NATURAL OCCUPATION NUMBERS (higher than 1.0E-05)
            1           2           3           4           5           6
    1   2.0000000   2.0000000   2.0000000   2.0000000   2.0000000   2.0000000
            7           8           9          10          11          12
    1   2.0000000   2.0000000   2.0000000   2.0000000   2.0000000   1.9999748
           13          14          15          16          17          18
    1   1.9999738   1.9999696   1.9999629   1.9999344   1.9998944   1.9998924
           19          20          21          22          23          24
    1   1.9998905   1.9998881   1.9998839   1.9998496   1.9998287   1.9998188
           25          26          27          28          29          30
    1   1.9995794   1.9995630   1.9993362   1.9993198   1.9977468   1.9917006
           31          32          33          34          35          36
    1   1.9773842   1.9140904   1.5065397   1.3914422   0.6130012   0.4669909
           37          38          39          40          41          42
    1   0.1092034   0.0184468   0.0048963   0.0030598   0.0025117   0.0019865
           43          44          45          46          47          48
    1   0.0011557   0.0010548   0.0009478   0.0008707   0.0001799   0.0001264
           49          50          51
    1   0.0000491   0.0000164   0.0000118
  
*** Unpaired Electrons
 Yamaguchi Nd:         3.67
 Head-Gordon Nu:       2.45
 Head-Gordon Nu_nl:    2.58
  
**************************************************
 RAS-CI total energy for state   8:   -383.265022606561
  Excitation energy (eV) =  4.616909830865
  State symmetry: B1g   (D2h      )
  <S^2>      :  2.0000
  Dipole Moment:    0.0000 X    -0.0000 Y    -0.0000 Z
  Trans. Moment:   -0.1696 X    -0.0000 Y     0.0000 Z
  Strength   :  0.003255
  Natural transition orbitals ( 1 -> 8 ):
   e-/hole pair  1 alpha:  ampl =  0.494438 ( 24.4%)   [10 : 11]
   e-/hole pair  2 alpha:  ampl =  0.057474 (  0.3%)   [9 : 12]
   e-/hole pair  1 beta :  ampl =  0.473881 ( 22.5%)   [10 : 11]
   e-/hole pair  2 beta :  ampl =  0.097052 (  0.9%)   [9 : 12]
   Sum of square amplitudes: 0.49

 NATURAL OCCUPATION NUMBERS (higher than 1.0E-05)
            1           2           3           4           5           6
    1   2.0000000   2.0000000   2.0000000   2.0000000   2.0000000   2.0000000
            7           8           9          10          11          12
    1   2.0000000   2.0000000   2.0000000   2.0000000   2.0000000   1.9999871
           13          14          15          16          17          18
    1   1.9999856   1.9999768   1.9999697   1.9999663   1.9999590   1.9999498
           19          20          21          22          23          24
    1   1.9999462   1.9999461   1.9999381   1.9999362   1.9999335   1.9999065
           25          26          27          28          29          30
    1   1.9998674   1.9998555   1.9998535   1.9998003   1.9995726   1.9865327
           31          32          33          34          35          36
    1   1.8875306   1.7400750   1.5418912   1.1019418   0.8977595   0.5699973
           37          38          39          40          41          42
    1   0.1726186   0.0922549   0.0053544   0.0020565   0.0007268   0.0006539
           43          44          45          46          47          48
    1   0.0005707   0.0005299   0.0003906   0.0003610   0.0002821   0.0000407
           49          50          51
    1   0.0000271   0.0000229   0.0000220

 Head-Gordon Nu:    3.49
 Head-Gordon Nu_nl: 3.50

  Amplitudes : 
  
 | HOLE  | ALPHA      | BETA       | PART  |    AMPLITUDE 
--------------------------------------------------
 |       | 1111000000 | 1001000000 |       |     4.6968153886715E-01
 |       | 1101100000 | 1100000000 |       |    -4.8519983893264E-01
 |       | 1100110000 | 0110000000 |       |    -1.1663800923685E-01
 |  31   | 1110100000 | 1110000000 |       |    -4.5963721567640E-01
 |  31   | 1101100000 | 1101000000 |       |     1.8610283331355E-01
 |       | 1110000000 | 1010000000 |  46   |     3.6711456060800E-01
 |       | 1101000000 | 1001000000 |  46   |    -1.6044268103285E-01
--------------------------------------------------
*** Contributions RASCI wfn    Active:  51.98
                                 Hole:  28.87
                                 Part:  19.15

      Mulliken population analysis 
 ---------------------------------------------------
   Atom    Charge (a.u.)   Spin (a.u.)  
 ---------------------------------------------------
   1  C    0.091838        0.160863 
   2  C    0.091838        0.160863 
   3  C   -0.160494        0.091454 
   4  C   -0.139200        0.328051 
   5  C   -0.139200        0.328051 
   6  C   -0.160494        0.091454 
   7  C   -0.160494        0.091454 
   8  C   -0.160494        0.091454 
   9  C   -0.139200        0.328051 
  10  C   -0.139200        0.328051 
  11  H    0.128513       -0.000523 
  12  H    0.125262        0.000587 
  13  H    0.125262        0.000587 
  14  H    0.128513       -0.000523 
  15  H    0.128513       -0.000523 
  16  H    0.125262        0.000587 
  17  H    0.125262        0.000587 
  18  H    0.128513       -0.000523 
 ---------------------------------------------------
   Sum:   -0.000000        2.000000 
 ---------------------------------------------------
 
  
 NATURAL OCCUPATION NUMBERS (higher than 1.0E-05)
            1           2           3           4           5           6
    1   2.0000000   2.0000000   2.0000000   2.0000000   2.0000000   2.0000000
            7           8           9          10          11          12
    1   2.0000000   2.0000000   2.0000000   2.0000000   2.0000000   1.9999871
           13          14          15          16          17          18
    1   1.9999856   1.9999768   1.9999697   1.9999663   1.9999590   1.9999498
           19          20          21          22          23          24
    1   1.9999462   1.9999461   1.9999381   1.9999362   1.9999335   1.9999065
           25          26          27          28          29          30
    1   1.9998674   1.9998555   1.9998535   1.9998003   1.9995726   1.9865327
           31          32          33          34          35          36
    1   1.8875306   1.7400750   1.5418912   1.1019418   0.8977595   0.5699973
           37          38          39          40          41          42
    1   0.1726186   0.0922549   0.0053544   0.0020565   0.0007268   0.0006539
           43          44          45          46          47          48
    1   0.0005707   0.0005299   0.0003906   0.0003610   0.0002821   0.0000407
           49          50          51
    1   0.0000271   0.0000229   0.0000220
  
*** Unpaired Electrons
 Yamaguchi Nd:         4.71
 Head-Gordon Nu:       3.49
 Head-Gordon Nu_nl:    3.50
  
**************************************************
 RAS-CI total energy for state   9:   -383.264485170782
  Excitation energy (eV) =  4.631534202457
  State symmetry: B3u   (D2h      )
  <S^2>      :  2.0000
  Dipole Moment:    0.0000 X     0.0000 Y    -0.0000 Z
  Trans. Moment:   -0.0000 X    -0.0000 Y    -0.0000 Z
  Strength   :  0.000000
  Natural transition orbitals ( 1 -> 9 ):
   e-/hole pair  1 alpha:  ampl =  0.585669 ( 34.3%)   [10 : 11]
   e-/hole pair  2 alpha:  ampl =  0.138761 (  1.9%)   [9 : 12]
   e-/hole pair  1 beta :  ampl =  0.581842 ( 33.9%)   [10 : 11]
   e-/hole pair  2 beta :  ampl =  0.263210 (  6.9%)   [9 : 12]
   Sum of square amplitudes: 0.79

 NATURAL OCCUPATION NUMBERS (higher than 1.0E-05)
            1           2           3           4           5           6
    1   2.0000000   2.0000000   2.0000000   2.0000000   2.0000000   2.0000000
            7           8           9          10          11          12
    1   2.0000000   2.0000000   2.0000000   2.0000000   2.0000000   1.9999899
           13          14          15          16          17          18
    1   1.9999806   1.9999677   1.9999599   1.9999582   1.9999481   1.9999284
           19          20          21          22          23          24
    1   1.9999278   1.9999114   1.9999097   1.9999031   1.9998944   1.9998608
           25          26          27          28          29          30
    1   1.9998281   1.9998065   1.9997881   1.9997642   1.9995048   1.9855243
           31          32          33          34          35          36
    1   1.9519124   1.9149221   1.4330102   1.3060262   0.7630507   0.5602844
           37          38          39          40          41          42
    1   0.0466561   0.0234686   0.0117065   0.0020705   0.0009269   0.0007132
           43          44          45          46          47          48
    1   0.0004446   0.0004226   0.0003781   0.0003573   0.0001831   0.0000271
           49          50          51
    1   0.0000242   0.0000239   0.0000229

 Head-Gordon Nu:    2.82
 Head-Gordon Nu_nl: 3.07

  Amplitudes : 
  
 | HOLE  | ALPHA      | BETA       | PART  |    AMPLITUDE 
--------------------------------------------------
 |       | 1111000000 | 0101000000 |       |     6.0146556322263E-01
 |       | 1110010000 | 0100010000 |       |    -2.0919846193382E-01
 |       | 1101010000 | 1100000000 |       |     5.9710645762690E-01
 |       | 0111010000 | 0110000000 |       |    -2.3060562810524E-01
 |  28   | 1111000000 | 1110000000 |       |     2.5592608917207E-01
--------------------------------------------------
*** Contributions RASCI wfn    Active:  84.46
                                 Hole:   9.82
                                 Part:   5.72

      Mulliken population analysis 
 ---------------------------------------------------
   Atom    Charge (a.u.)   Spin (a.u.)  
 ---------------------------------------------------
   1  C    0.094490        0.108060 
   2  C    0.094490        0.108060 
   3  C   -0.172539        0.376936 
   4  C   -0.128292        0.070541 
   5  C   -0.128292        0.070541 
   6  C   -0.172539        0.376936 
   7  C   -0.172539        0.376936 
   8  C   -0.172539        0.376936 
   9  C   -0.128292        0.070541 
  10  C   -0.128292        0.070541 
  11  H    0.129651       -0.000935 
  12  H    0.123935       -0.000573 
  13  H    0.123935       -0.000573 
  14  H    0.129651       -0.000935 
  15  H    0.129651       -0.000935 
  16  H    0.123935       -0.000573 
  17  H    0.123935       -0.000573 
  18  H    0.129651       -0.000935 
 ---------------------------------------------------
   Sum:   -0.000000        2.000000 
 ---------------------------------------------------
 
  
 NATURAL OCCUPATION NUMBERS (higher than 1.0E-05)
            1           2           3           4           5           6
    1   2.0000000   2.0000000   2.0000000   2.0000000   2.0000000   2.0000000
            7           8           9          10          11          12
    1   2.0000000   2.0000000   2.0000000   2.0000000   2.0000000   1.9999899
           13          14          15          16          17          18
    1   1.9999806   1.9999677   1.9999599   1.9999582   1.9999481   1.9999284
           19          20          21          22          23          24
    1   1.9999278   1.9999114   1.9999097   1.9999031   1.9998944   1.9998608
           25          26          27          28          29          30
    1   1.9998281   1.9998065   1.9997881   1.9997642   1.9995048   1.9855243
           31          32          33          34          35          36
    1   1.9519124   1.9149221   1.4330102   1.3060262   0.7630507   0.5602844
           37          38          39          40          41          42
    1   0.0466561   0.0234686   0.0117065   0.0020705   0.0009269   0.0007132
           43          44          45          46          47          48
    1   0.0004446   0.0004226   0.0003781   0.0003573   0.0001831   0.0000271
           49          50          51
    1   0.0000242   0.0000239   0.0000229
  
*** Unpaired Electrons
 Yamaguchi Nd:         3.93
 Head-Gordon Nu:       2.82
 Head-Gordon Nu_nl:    3.07
  
**************************************************
 RAS-CI total energy for state  10:   -383.255964429553
  Excitation energy (eV) =  4.863395368029
  State symmetry: Ag    (D2h      )
  <S^2>      :  2.0000
  Dipole Moment:    0.0000 X    -0.0000 Y    -0.0000 Z
  Trans. Moment:    0.0000 X    -0.3013 Y     0.0000 Z
  Strength   :  0.010817
  Natural transition orbitals ( 1 -> 10 ):
   e-/hole pair  1 alpha:  ampl =  0.340369 ( 11.6%)   [10 : 11]
   e-/hole pair  2 alpha:  ampl =  0.301249 (  9.1%)   [9 : 12]
   e-/hole pair  1 beta :  ampl =  0.600038 ( 36.0%)   [10 : 11]
   e-/hole pair  2 beta :  ampl =  0.224323 (  5.0%)   [9 : 12]
   Sum of square amplitudes: 0.62

 NATURAL OCCUPATION NUMBERS (higher than 1.0E-05)
            1           2           3           4           5           6
    1   2.0000000   2.0000000   2.0000000   2.0000000   2.0000000   2.0000000
            7           8           9          10          11          12
    1   2.0000000   2.0000000   2.0000000   2.0000000   2.0000000   1.9999859
           13          14          15          16          17          18
    1   1.9999855   1.9999737   1.9999715   1.9999663   1.9999656   1.9999620
           19          20          21          22          23          24
    1   1.9999565   1.9999476   1.9999448   1.9999409   1.9999368   1.9999277
           25          26          27          28          29          30
    1   1.9998775   1.9998252   1.9997433   1.9997319   1.9996634   1.9456675
           31          32          33          34          35          36
    1   1.8507212   1.6622426   1.5917542   1.5510316   0.7273993   0.4082884
           37          38          39          40          41          42
    1   0.1355513   0.1038120   0.0191506   0.0021490   0.0008445   0.0007194
           43          44          45          46          47          48
    1   0.0006482   0.0004821   0.0004035   0.0003925   0.0003635   0.0000210
           49          50          51
    1   0.0000193   0.0000149   0.0000103

 Head-Gordon Nu:    2.80
 Head-Gordon Nu_nl: 2.69

  Amplitudes : 
  
 | HOLE  | ALPHA      | BETA       | PART  |    AMPLITUDE 
--------------------------------------------------
 |       | 1111000000 | 1000100000 |       |    -2.0964208136245E-01
 |       | 1110100000 | 1001000000 |       |    -2.1314277772544E-01
 |       | 1110100000 | 0110000000 |       |     2.7500685483686E-01
 |       | 1110010000 | 1010000000 |       |    -1.1746593223823E-01
 |       | 1101100000 | 1010000000 |       |     2.8738836329264E-01
 |       | 1011100000 | 1100000000 |       |     2.9088905965564E-01
 |  31   | 1111000000 | 1110000000 |       |     6.1929703453934E-01
 |  28   | 1110010000 | 1110000000 |       |    -2.0310213250610E-01
 |       | 1110000000 | 1100000000 |  46   |    -3.4872053003833E-01
 |       | 1110000000 | 0110000000 |  60   |     1.0722422517741E-01
--------------------------------------------------
*** Contributions RASCI wfn    Active:  36.14
                                 Hole:  46.90
                                 Part:  16.97

      Mulliken population analysis 
 ---------------------------------------------------
   Atom    Charge (a.u.)   Spin (a.u.)  
 ---------------------------------------------------
   1  C    0.102768        0.098053 
   2  C    0.102768        0.098053 
   3  C   -0.204908        0.221196 
   4  C   -0.101503        0.228647 
   5  C   -0.101503        0.228647 
   6  C   -0.204908        0.221196 
   7  C   -0.204908        0.221196 
   8  C   -0.204908        0.221196 
   9  C   -0.101503        0.228647 
  10  C   -0.101503        0.228647 
  11  H    0.129785        0.000616 
  12  H    0.125242        0.000514 
  13  H    0.125242        0.000514 
  14  H    0.129785        0.000616 
  15  H    0.129785        0.000616 
  16  H    0.125242        0.000514 
  17  H    0.125242        0.000514 
  18  H    0.129785        0.000616 
 ---------------------------------------------------
   Sum:   -0.000000        2.000000 
 ---------------------------------------------------
 
  
 NATURAL OCCUPATION NUMBERS (higher than 1.0E-05)
            1           2           3           4           5           6
    1   2.0000000   2.0000000   2.0000000   2.0000000   2.0000000   2.0000000
            7           8           9          10          11          12
    1   2.0000000   2.0000000   2.0000000   2.0000000   2.0000000   1.9999859
           13          14          15          16          17          18
    1   1.9999855   1.9999737   1.9999715   1.9999663   1.9999656   1.9999620
           19          20          21          22          23          24
    1   1.9999565   1.9999476   1.9999448   1.9999409   1.9999368   1.9999277
           25          26          27          28          29          30
    1   1.9998775   1.9998252   1.9997433   1.9997319   1.9996634   1.9456675
           31          32          33          34          35          36
    1   1.8507212   1.6622426   1.5917542   1.5510316   0.7273993   0.4082884
           37          38          39          40          41          42
    1   0.1355513   0.1038120   0.0191506   0.0021490   0.0008445   0.0007194
           43          44          45          46          47          48
    1   0.0006482   0.0004821   0.0004035   0.0003925   0.0003635   0.0000210
           49          50          51
    1   0.0000193   0.0000149   0.0000103
  
*** Unpaired Electrons
 Yamaguchi Nd:         4.37
 Head-Gordon Nu:       2.80
 Head-Gordon Nu_nl:    2.69
  
**************************************************
 RAS-CI total energy for state  11:   -383.254679043160
  Excitation energy (eV) =  4.898372511372
  State symmetry: B2u   (D2h      )
  <S^2>      :  2.0000
  Dipole Moment:   -0.0000 X    -0.0000 Y    -0.0000 Z
  Trans. Moment:    0.0000 X     0.0000 Y    -0.0000 Z
  Strength   :  0.000000
  Natural transition orbitals ( 1 -> 11 ):
   e-/hole pair  1 alpha:  ampl =  0.320073 ( 10.2%)   [10 : 11]
   e-/hole pair  2 alpha:  ampl =  0.136298 (  1.9%)   [9 : 12]
   e-/hole pair  1 beta :  ampl =  0.286986 (  8.2%)   [10 : 11]
   e-/hole pair  2 beta :  ampl =  0.131472 (  1.7%)   [9 : 12]
   Sum of square amplitudes: 0.22

 NATURAL OCCUPATION NUMBERS (higher than 1.0E-05)
            1           2           3           4           5           6
    1   2.0000000   2.0000000   2.0000000   2.0000000   2.0000000   2.0000000
            7           8           9          10          11          12
    1   2.0000000   2.0000000   2.0000000   2.0000000   2.0000000   1.9999811
           13          14          15          16          17          18
    1   1.9999798   1.9999745   1.9999702   1.9999644   1.9999326   1.9999219
           19          20          21          22          23          24
    1   1.9999167   1.9999098   1.9999054   1.9998972   1.9998927   1.9998750
           25          26          27          28          29          30
    1   1.9997149   1.9996918   1.9996719   1.9996672   1.9991222   1.9856203
           31          32          33          34          35          36
    1   1.9721031   1.8003312   1.6245701   1.1907723   0.8502085   0.3794522
           37          38          39          40          41          42
    1   0.1634796   0.0163313   0.0128215   0.0020632   0.0014107   0.0009560
           43          44          45          46          47          48
    1   0.0008380   0.0006913   0.0006185   0.0004836   0.0000928   0.0000526
           49          50          51
    1   0.0000351   0.0000350   0.0000305

 Head-Gordon Nu:    2.86
 Head-Gordon Nu_nl: 2.86

  Amplitudes : 
  
 | HOLE  | ALPHA      | BETA       | PART  |    AMPLITUDE 
--------------------------------------------------
 |       | 1111000000 | 1100000000 |       |    -1.2153439442142E-01
 |       | 1111000000 | 0100100000 |       |    -2.4452140138282E-01
 |       | 1111000000 | 0011000000 |       |    -1.0582156026661E-01
 |       | 1110100000 | 0101000000 |       |    -1.4208738225420E-01
 |       | 1110010000 | 0110000000 |       |    -7.7126361696515E-01
 |       | 1101010000 | 1010000000 |       |    -1.6935913750671E-01
 |       | 1101010000 | 0101000000 |       |     1.3545889089556E-01
 |       | 1011010000 | 1100000000 |       |    -2.7198909076927E-01
 |  28   | 1111010000 | 1100000000 |       |    -1.1238048533060E-01
 |  31   | 1111010000 | 0110000000 |       |    -1.0425326079195E-01
 |  28   | 1101010000 | 1110000000 |       |    -1.1873368881076E-01
--------------------------------------------------
*** Contributions RASCI wfn    Active:  87.58
                                 Hole:   7.20
                                 Part:   5.22

      Mulliken population analysis 
 ---------------------------------------------------
   Atom    Charge (a.u.)   Spin (a.u.)  
 ---------------------------------------------------
   1  C    0.118574        0.124632 
   2  C    0.118574        0.124632 
   3  C   -0.177916        0.425208 
   4  C   -0.135823        0.012497 
   5  C   -0.135823        0.012497 
   6  C   -0.177916        0.425208 
   7  C   -0.177916        0.425208 
   8  C   -0.177916        0.425208 
   9  C   -0.135823        0.012497 
  10  C   -0.135823        0.012497 
  11  H    0.128651        0.000181 
  12  H    0.125802       -0.000202 
  13  H    0.125802       -0.000202 
  14  H    0.128651        0.000181 
  15  H    0.128651        0.000181 
  16  H    0.125802       -0.000202 
  17  H    0.125802       -0.000202 
  18  H    0.128651        0.000181 
 ---------------------------------------------------
   Sum:   -0.000000        2.000000 
 ---------------------------------------------------
 
  
 NATURAL OCCUPATION NUMBERS (higher than 1.0E-05)
            1           2           3           4           5           6
    1   2.0000000   2.0000000   2.0000000   2.0000000   2.0000000   2.0000000
            7           8           9          10          11          12
    1   2.0000000   2.0000000   2.0000000   2.0000000   2.0000000   1.9999811
           13          14          15          16          17          18
    1   1.9999798   1.9999745   1.9999702   1.9999644   1.9999326   1.9999219
           19          20          21          22          23          24
    1   1.9999167   1.9999098   1.9999054   1.9998972   1.9998927   1.9998750
           25          26          27          28          29          30
    1   1.9997149   1.9996918   1.9996719   1.9996672   1.9991222   1.9856203
           31          32          33          34          35          36
    1   1.9721031   1.8003312   1.6245701   1.1907723   0.8502085   0.3794522
           37          38          39          40          41          42
    1   0.1634796   0.0163313   0.0128215   0.0020632   0.0014107   0.0009560
           43          44          45          46          47          48
    1   0.0008380   0.0006913   0.0006185   0.0004836   0.0000928   0.0000526
           49          50          51
    1   0.0000351   0.0000350   0.0000305
  
*** Unpaired Electrons
 Yamaguchi Nd:         3.99
 Head-Gordon Nu:       2.86
 Head-Gordon Nu_nl:    2.86
  
**************************************************
 RAS-CI total energy for state  12:   -383.245740241430
  Excitation energy (eV) =  5.141609681948
  State symmetry: Ag    (D2h      )
  <S^2>      :  2.0000
  Dipole Moment:    0.0000 X    -0.0000 Y    -0.0000 Z
  Trans. Moment:    0.0000 X     0.2009 Y     0.0000 Z
  Strength   :  0.005083
  Natural transition orbitals ( 1 -> 12 ):
   e-/hole pair  1 alpha:  ampl =  0.309414 (  9.6%)   [10 : 11]
   e-/hole pair  2 alpha:  ampl =  0.155340 (  2.4%)   [9 : 12]
   e-/hole pair  1 beta :  ampl =  0.195040 (  3.8%)   [10 : 11]
   e-/hole pair  2 beta :  ampl =  0.084412 (  0.7%)   [9 : 12]
   Sum of square amplitudes: 0.17

 NATURAL OCCUPATION NUMBERS (higher than 1.0E-05)
            1           2           3           4           5           6
    1   2.0000000   2.0000000   2.0000000   2.0000000   2.0000000   2.0000000
            7           8           9          10          11          12
    1   2.0000000   2.0000000   2.0000000   2.0000000   2.0000000   1.9999827
           13          14          15          16          17          18
    1   1.9999745   1.9999684   1.9999316   1.9999249   1.9999138   1.9999114
           19          20          21          22          23          24
    1   1.9999022   1.9998917   1.9998870   1.9998730   1.9998582   1.9998466
           25          26          27          28          29          30
    1   1.9997445   1.9997300   1.9996077   1.9995141   1.9993329   1.9929302
           31          32          33          34          35          36
    1   1.9801059   1.7470474   1.5672043   1.5094996   0.4656641   0.4551919
           37          38          39          40          41          42
    1   0.1591933   0.1143959   0.0035700   0.0028472   0.0014197   0.0013484
           43          44          45          46          47          48
    1   0.0007945   0.0007551   0.0005224   0.0003182   0.0002740   0.0000514
           49          50          51
    1   0.0000209   0.0000164   0.0000134

 Head-Gordon Nu:    2.41
 Head-Gordon Nu_nl: 2.34

  Amplitudes : 
  
 | HOLE  | ALPHA      | BETA       | PART  |    AMPLITUDE 
[...]
 -- Singly Occupied (Occupied) --
 -0.326  -0.190
  1 Au    2 B2g                                                                
 -- Virtual --                   
  0.115   0.111   0.156   0.188   0.194   0.243   0.164   0.166
  2 B3g   3 B1u  10 Ag   11 Ag    7 B1g  12 Ag    8 B2u   8 B3u                
  0.201   0.226   0.215   0.242   0.276   0.286   0.296   0.301
  9 B2u   9 B3u   2 Au    8 B1g  10 B3u  10 B2u   3 B3g  13 Ag                 
  0.319   0.319   0.343   0.352   0.362   0.369   0.370   0.400
 11 B2u   4 B1u  11 B3u   3 B2g  14 Ag   15 Ag    9 B1g  10 B1g                
  0.391   0.400   0.415   0.429   0.459   0.460   0.462   0.465
  4 B3g   5 B1u   3 Au   12 B2u  16 Ag   12 B3u  13 B3u   6 B1u                
  0.476   0.472   0.480   0.503   0.509   0.505   0.545   0.547
 17 Ag    4 B2g  14 B3u  13 B2u  14 B2u   5 B3g  15 B2u  11 B1g                
  0.550   0.564   0.572   0.579   0.588   0.604   0.606   0.615
  4 Au   15 B3u  12 B1g  18 Ag   19 Ag   13 B1g  16 B2u   6 B3g                
  0.632   0.633   0.637   0.650   0.651   0.676   0.683   0.710
 17 B2u  16 B3u   5 B2g  20 Ag   14 B1g  18 B2u  17 B3u   7 B1u                
  0.712   0.729   0.753   0.785   0.832   0.843   0.851   0.855
 15 B1g  18 B3u  21 Ag   16 B1g  19 B2u  20 B2u  22 Ag    8 B1u                
  0.870   0.874   0.877   0.896   0.904   0.922   0.923   0.921
 19 B3u  21 B2u  17 B1g   6 B2g  18 B1g  20 B3u  23 Ag    7 B3g                
  0.928   0.946   0.983   0.997   1.019   1.027   1.047   1.052
  5 Au   22 B2u  19 B1g   7 B2g  21 B3u  24 Ag   25 Ag   23 B2u                
  1.067   1.087   1.091   1.110   1.119   1.165   1.175   1.184
  6 Au    9 B1u  20 B1g  26 Ag   22 B3u  23 B3u  10 B1u  24 B2u                
  1.195   1.201   1.267   1.293   1.313   1.332   1.344   1.370
 27 Ag    8 B3g  25 B2u  21 B1g   9 B3g  28 Ag    7 Au    8 B2g                
  1.401   1.399   1.417   1.427   1.438   1.443   1.459   1.469
 22 B1g  24 B3u   9 B2g  25 B3u  29 Ag   26 B2u  23 B1g  10 B3g                
  1.472   1.479   1.497   1.502   1.572   1.584   1.609   1.636
 27 B2u  11 B1u  26 B3u  30 Ag   28 B2u   8 Au   24 B1g  29 B2u                
  1.639   1.647   1.690   1.697   1.748   1.752   1.757   1.763
 31 Ag   25 B1g  12 B1u  27 B3u  10 B2g   9 Au   32 Ag   30 B2u                
  1.766   1.782   1.784   1.823   1.826   1.846   1.865   1.888
 26 B1g  28 B3u  11 B3g  13 B1u  27 B1g  33 Ag   10 Au   31 B2u                
  1.914   1.948   1.946   1.954   1.959   1.958   1.983   1.989
 12 B3g  34 Ag   11 B2g  29 B3u  32 B2u  14 B1u  13 B3g  28 B1g                
  2.008   2.024   2.026   2.111   2.125   2.130   2.160   2.193
 33 B2u  30 B3u  12 B2g  11 Au   35 Ag   15 B1u  14 B3g  12 Au                 
  2.248   2.249   2.254   2.275   2.281   2.288   2.321   2.393
 16 B1u  34 B2u  31 B3u  15 B3g  29 B1g  36 Ag   13 B2g  37 Ag                 
  2.427   2.439   2.446   2.452   2.455   2.457   2.531   2.534
 32 B3u  38 Ag   30 B1g  33 B3u  31 B1g  35 B2u  32 B1g  34 B3u                
  2.554   2.562   2.564   2.598   2.617   2.661   2.724   2.724
 39 Ag   16 B3g  36 B2u  35 B3u  17 B1u  13 Au   40 Ag   37 B2u                
  2.738   2.771   2.777   2.837   2.857   2.863   2.871   2.899
 41 Ag   14 B2g  36 B3u  33 B1g  38 B2u  15 B2g  37 B3u  42 Ag                 
  2.913   2.919   2.930   2.941   2.942   2.964   2.967   3.005
 38 B3u  34 B1g  39 B2u  43 Ag   18 B1u  35 B1g  17 B3g  14 Au                 
  3.012   3.033   3.035   3.052   3.070   3.076   3.097   3.104
 16 B2g  44 Ag   40 B2u  19 B1u  39 B3u  41 B2u  18 B3g  20 B1u                
  3.110   3.113   3.122   3.128   3.135   3.170   3.196   3.198
 45 Ag   36 B1g  17 B2g  40 B3u  42 B2u  37 B1g  43 B2u  21 B1u                
  3.202   3.208   3.217   3.230   3.267   3.286   3.302   3.314
 15 Au   41 B3u  46 Ag   16 Au   38 B1g  18 B2g  44 B2u  39 B1g                
  3.314   3.316   3.324   3.363   3.389   3.415   3.423   3.437
 19 B3g  47 Ag   22 B1u  23 B1u  42 B3u  19 B2g  48 Ag   43 B3u                
  3.466   3.467   3.503   3.504   3.512   3.518   3.523   3.538
 20 B3g  40 B1g  45 B2u  20 B2g  17 Au   21 B3g  49 Ag   46 B2u                
  3.539   3.557   3.559   3.563   3.582   3.625   3.646   3.651
 24 B1u  44 B3u  50 Ag   41 B1g  18 Au   45 B3u  25 B1u  21 B2g                
  3.655   3.661   3.679   3.688   3.694   3.700   3.747   3.752
 47 B2u  51 Ag   42 B1g  52 Ag   22 B3g  46 B3u  43 B1g  19 Au                 
  3.774   3.794   3.799   3.808   3.813   3.845   3.853   3.860
 48 B2u  20 Au   22 B2g  47 B3u  23 B3g  49 B2u  23 B2g  26 B1u                
  3.890   3.905   3.914   3.951   3.972   3.987   4.013   4.054
 24 B3g  50 B2u  44 B1g  48 B3u  45 B1g  53 Ag   51 B2u  21 Au                 
  4.073   4.100   4.149   4.170   4.177   4.184   4.242   4.273
 54 Ag   27 B1u  52 B2u  22 Au   46 B1g  49 B3u  25 B3g  55 Ag                 
  4.278   4.299   4.336   4.364   4.381   4.397   4.420   4.458
 53 B2u  50 B3u  47 B1g  56 Ag   48 B1g  24 B2g  51 B3u  49 B1g                
  4.467   4.485   4.509   4.518   4.538   4.550   4.570   4.600
 26 B3g  28 B1u  57 Ag   54 B2u  55 B2u  50 B1g  58 Ag   29 B1u                
  4.614   4.622   4.642   4.681   4.733   4.751   4.763   4.801
 23 Au   25 B2g  27 B3g  52 B3u  24 Au   53 B3u  59 Ag   51 B1g                
  4.883   4.887   4.995   5.063   5.076   5.094   5.096   5.113
 28 B3g  56 B2u  54 B3u  57 B2u  60 Ag   29 B3g  25 Au   55 B3u                
  5.150   5.155   5.230   5.301   5.399   5.416   5.424   5.454
 61 Ag   58 B2u  52 B1g  56 B3u  59 B2u  62 Ag   53 B1g  60 B2u                
  5.553   5.660   5.689   5.715   5.746   5.966   5.971   6.061
 63 Ag   54 B1g  61 B2u  55 B1g  57 B3u  62 B2u  56 B1g  63 B2u                
  6.301  22.969  23.490  23.590  23.683  23.777  23.874  23.925
 57 B1g  64 Ag   58 B3u  65 Ag   59 B3u  58 B1g  64 B2u  66 Ag                 
 23.978  23.998  24.664
 59 B1g  65 B2u  66 B2u                                                        
 
 Beta MOs, Restricted
 -- Doubly Occupied --           
-11.246 -11.245 -11.244 -11.244 -11.244 -11.244 -11.238 -11.238
  1 Ag    1 B2u   1 B3u   1 B1g   2 Ag    2 B2u   2 B3u   3 Ag                 
-11.236 -11.236  -1.178  -1.112  -1.055  -1.021  -0.976  -0.879
  2 B1g   3 B2u   4 Ag    3 B3u   4 B2u   5 Ag    3 B1g   4 B3u                
 -0.830  -0.818  -0.716  -0.701  -0.675  -0.630  -0.618  -0.586
  5 B2u   6 Ag    4 B1g   5 B3u   7 Ag    6 B2u   8 Ag    6 B3u                
 -0.583  -0.554  -0.540  -0.555  -0.485  -0.486  -0.465  -0.423
  5 B1g   7 B2u   7 B3u   1 B1u   9 Ag    6 B1g   1 B2g   1 B3g                
 -0.362
  2 B1u                                                                        
 -- Singly Occupied (Vacant) --  
 -0.326  -0.190
  1 Au    2 B2g                                                                
 -- Virtual --                   
  0.115   0.111   0.156   0.188   0.194   0.243   0.164   0.166
  2 B3g   3 B1u  10 Ag   11 Ag    7 B1g  12 Ag    8 B2u   8 B3u                
  0.201   0.226   0.215   0.242   0.276   0.286   0.296   0.301
  9 B2u   9 B3u   2 Au    8 B1g  10 B3u  10 B2u   3 B3g  13 Ag                 
  0.319   0.319   0.343   0.352   0.362   0.369   0.370   0.400
 11 B2u   4 B1u  11 B3u   3 B2g  14 Ag   15 Ag    9 B1g  10 B1g                
  0.391   0.400   0.415   0.429   0.459   0.460   0.462   0.465
  4 B3g   5 B1u   3 Au   12 B2u  16 Ag   12 B3u  13 B3u   6 B1u                
  0.476   0.472   0.480   0.503   0.509   0.505   0.545   0.547
 17 Ag    4 B2g  14 B3u  13 B2u  14 B2u   5 B3g  15 B2u  11 B1g                
  0.550   0.564   0.572   0.579   0.588   0.604   0.606   0.615
  4 Au   15 B3u  12 B1g  18 Ag   19 Ag   13 B1g  16 B2u   6 B3g                
  0.632   0.633   0.637   0.650   0.651   0.676   0.683   0.710
 17 B2u  16 B3u   5 B2g  20 Ag   14 B1g  18 B2u  17 B3u   7 B1u                
  0.712   0.729   0.753   0.785   0.832   0.843   0.851   0.855
 15 B1g  18 B3u  21 Ag   16 B1g  19 B2u  20 B2u  22 Ag    8 B1u                
  0.870   0.874   0.877   0.896   0.904   0.922   0.923   0.921
 19 B3u  21 B2u  17 B1g   6 B2g  18 B1g  20 B3u  23 Ag    7 B3g                
  0.928   0.946   0.983   0.997   1.019   1.027   1.047   1.052
  5 Au   22 B2u  19 B1g   7 B2g  21 B3u  24 Ag   25 Ag   23 B2u                
  1.067   1.087   1.091   1.110   1.119   1.165   1.175   1.184
  6 Au    9 B1u  20 B1g  26 Ag   22 B3u  23 B3u  10 B1u  24 B2u                
  1.195   1.201   1.267   1.293   1.313   1.332   1.344   1.370
 27 Ag    8 B3g  25 B2u  21 B1g   9 B3g  28 Ag    7 Au    8 B2g                
  1.401   1.399   1.417   1.427   1.438   1.443   1.459   1.469
 22 B1g  24 B3u   9 B2g  25 B3u  29 Ag   26 B2u  23 B1g  10 B3g                
  1.472   1.479   1.497   1.502   1.572   1.584   1.609   1.636
 27 B2u  11 B1u  26 B3u  30 Ag   28 B2u   8 Au   24 B1g  29 B2u                
  1.639   1.647   1.690   1.697   1.748   1.752   1.757   1.763
 31 Ag   25 B1g  12 B1u  27 B3u  10 B2g   9 Au   32 Ag   30 B2u                
  1.766   1.782   1.784   1.823   1.826   1.846   1.865   1.888
 26 B1g  28 B3u  11 B3g  13 B1u  27 B1g  33 Ag   10 Au   31 B2u                
  1.914   1.948   1.946   1.954   1.959   1.958   1.983   1.989
 12 B3g  34 Ag   11 B2g  29 B3u  32 B2u  14 B1u  13 B3g  28 B1g                
  2.008   2.024   2.026   2.111   2.125   2.130   2.160   2.193
 33 B2u  30 B3u  12 B2g  11 Au   35 Ag   15 B1u  14 B3g  12 Au                 
  2.248   2.249   2.254   2.275   2.281   2.288   2.321   2.393
 16 B1u  34 B2u  31 B3u  15 B3g  29 B1g  36 Ag   13 B2g  37 Ag                 
  2.427   2.439   2.446   2.452   2.455   2.457   2.531   2.534
 32 B3u  38 Ag   30 B1g  33 B3u  31 B1g  35 B2u  32 B1g  34 B3u                
  2.554   2.562   2.564   2.598   2.617   2.661   2.724   2.724
 39 Ag   16 B3g  36 B2u  35 B3u  17 B1u  13 Au   40 Ag   37 B2u                
  2.738   2.771   2.777   2.837   2.857   2.863   2.871   2.899
 41 Ag   14 B2g  36 B3u  33 B1g  38 B2u  15 B2g  37 B3u  42 Ag                 
  2.913   2.919   2.930   2.941   2.942   2.964   2.967   3.005
 38 B3u  34 B1g  39 B2u  43 Ag   18 B1u  35 B1g  17 B3g  14 Au                 
  3.012   3.033   3.035   3.052   3.070   3.076   3.097   3.104
 16 B2g  44 Ag   40 B2u  19 B1u  39 B3u  41 B2u  18 B3g  20 B1u                
  3.110   3.113   3.122   3.128   3.135   3.170   3.196   3.198
 45 Ag   36 B1g  17 B2g  40 B3u  42 B2u  37 B1g  43 B2u  21 B1u                
  3.202   3.208   3.217   3.230   3.267   3.286   3.302   3.314
 15 Au   41 B3u  46 Ag   16 Au   38 B1g  18 B2g  44 B2u  39 B1g                
  3.314   3.316   3.324   3.363   3.389   3.415   3.423   3.437
 19 B3g  47 Ag   22 B1u  23 B1u  42 B3u  19 B2g  48 Ag   43 B3u                
  3.466   3.467   3.503   3.504   3.512   3.518   3.523   3.538
 20 B3g  40 B1g  45 B2u  20 B2g  17 Au   21 B3g  49 Ag   46 B2u                
  3.539   3.557   3.559   3.563   3.582   3.625   3.646   3.651
 24 B1u  44 B3u  50 Ag   41 B1g  18 Au   45 B3u  25 B1u  21 B2g                
  3.655   3.661   3.679   3.688   3.694   3.700   3.747   3.752
 47 B2u  51 Ag   42 B1g  52 Ag   22 B3g  46 B3u  43 B1g  19 Au                 
  3.774   3.794   3.799   3.808   3.813   3.845   3.853   3.860
 48 B2u  20 Au   22 B2g  47 B3u  23 B3g  49 B2u  23 B2g  26 B1u                
  3.890   3.905   3.914   3.951   3.972   3.987   4.013   4.054
 24 B3g  50 B2u  44 B1g  48 B3u  45 B1g  53 Ag   51 B2u  21 Au                 
  4.073   4.100   4.149   4.170   4.177   4.184   4.242   4.273
 54 Ag   27 B1u  52 B2u  22 Au   46 B1g  49 B3u  25 B3g  55 Ag                 
  4.278   4.299   4.336   4.364   4.381   4.397   4.420   4.458
 53 B2u  50 B3u  47 B1g  56 Ag   48 B1g  24 B2g  51 B3u  49 B1g                
  4.467   4.485   4.509   4.518   4.538   4.550   4.570   4.600
 26 B3g  28 B1u  57 Ag   54 B2u  55 B2u  50 B1g  58 Ag   29 B1u                
  4.614   4.622   4.642   4.681   4.733   4.751   4.763   4.801
 23 Au   25 B2g  27 B3g  52 B3u  24 Au   53 B3u  59 Ag   51 B1g                
  4.883   4.887   4.995   5.063   5.076   5.094   5.096   5.113
 28 B3g  56 B2u  54 B3u  57 B2u  60 Ag   29 B3g  25 Au   55 B3u                
  5.150   5.155   5.230   5.301   5.399   5.416   5.424   5.454
 61 Ag   58 B2u  52 B1g  56 B3u  59 B2u  62 Ag   53 B1g  60 B2u                
  5.553   5.660   5.689   5.715   5.746   5.966   5.971   6.061
 63 Ag   54 B1g  61 B2u  55 B1g  57 B3u  62 B2u  56 B1g  63 B2u                
  6.301  22.969  23.490  23.590  23.683  23.777  23.874  23.925
 57 B1g  64 Ag   58 B3u  65 Ag   59 B3u  58 B1g  64 B2u  66 Ag                 
 23.978  23.998  24.664
 59 B1g  65 B2u  66 B2u                                                        
 --------------------------------------------------------------
 
          Ground-State Mulliken Net Atomic Charges

     Atom                 Charge (a.u.)
  ----------------------------------------
      1 C                     0.099787
      2 C                     0.099787
      3 C                    -0.169122
      4 C                    -0.136647
      5 C                    -0.136647
      6 C                    -0.169122
      7 C                    -0.169122
      8 C                    -0.169122
      9 C                    -0.136647
     10 C                    -0.136647
     11 H                     0.130526
     12 H                     0.125349
     13 H                     0.125349
     14 H                     0.130526
     15 H                     0.130526
     16 H                     0.125349
     17 H                     0.125349
     18 H                     0.130526
  ----------------------------------------
  Sum of atomic charges =     0.000000

  Do orbital-by-orbital Lowdin population analysis
 
 
 Partial Mulliken analysis unavailable for frozen orbitals
 
 -----------------------------------------------------------------
                    Cartesian Multipole Moments
 -----------------------------------------------------------------
    Charge (ESU x 10^10)
                -0.0000
    Dipole Moment (Debye)
         X       0.0000      Y       0.0000      Z       0.0000
       Tot       0.0000
    Quadrupole Moments (Debye-Ang)
        XX     -52.6086     XY       0.0000     YY     -51.1495
        XZ      -0.0000     YZ      -0.0000     ZZ     -65.8565
    Octopole Moments (Debye-Ang^2)
       XXX       0.0000    XXY       0.0000    XYY       0.0000
       YYY       0.0000    XXZ       0.0000    XYZ       0.0000
       YYZ       0.0000    XZZ       0.0000    YZZ       0.0000
       ZZZ       0.0000
    Hexadecapole Moments (Debye-Ang^3)
      XXXX   -1148.2205   XXXY       0.0000   XXYY    -262.9239
      XYYY       0.0000   YYYY    -474.6156   XXXZ       0.0000
      XXYZ      -0.0000   XYYZ      -0.0000   YYYZ      -0.0000
      XXZZ    -255.6221   XYZZ       0.0000   YYZZ    -113.2361
      XZZZ      -0.0000   YZZZ      -0.0000   ZZZZ     -80.5268
 -----------------------------------------------------------------
 Mayer SCF Bond Order, atomic valence on the diagonal:

            1           2           3           4           5           6
    1   2.0734337   0.2183941   0.3141953   0.0293121  -0.0010059  -0.0347648
    2   0.2183941   3.9844837  -0.0358345   0.0199615   0.0078607   1.4196573
    3   0.3141953  -0.0358345   3.6626136   1.0776706   0.0424306  -0.0210459
    4   0.0293121   0.0199615   1.0776706   3.9197002   1.7543206   0.0424306
    5  -0.0010059   0.0078607   0.0424306   1.7543206   3.9197002   1.0776706
    6  -0.0347648   1.4196573  -0.0210459   0.0424306   1.0776706   3.6626136
    7   0.0029628   1.4196573   0.0511002   0.0256418   0.0157536   0.1159187
    8   0.3207228  -0.0358345   0.1159187   0.0157536   0.0256418   0.0511002
    9   0.0158258   0.0199615   0.0157536   0.0036535   0.0032165   0.0256418
   10  -0.0185594   0.0078607   0.0256418   0.0032165   0.0036535   0.0157536
   11  -0.0232146   0.0069533   0.0039735   0.0001232   0.0000313   0.0008810
   12   0.0020178   0.0004206   0.0003024   0.0002330   0.0000161   0.0003137
   13   0.0029238   0.0048238   0.0003137   0.0000161   0.0002330   0.0003024
   14   0.0001458  -0.0167202   0.0008810   0.0000313   0.0001232   0.0039735
   15  -0.0011512   0.0069533   0.9780074  -0.0139398   0.0049096   0.0002573
   16   0.0082621   0.0004206  -0.0194416   0.9833247  -0.0055076   0.0070273
   17   0.0018173   0.0048238   0.0070273  -0.0055076   0.9833247  -0.0194416
   18   0.0067370  -0.0167202   0.0002573   0.0049096  -0.0139398   0.9780074
            7           8           9          10          11          12
    1   0.0029628   0.3207228   0.0158258  -0.0185594  -0.0232146   0.0020178
    2   1.4196573  -0.0358345   0.0199615   0.0078607   0.0069533   0.0004206
    3   0.0511002   0.1159187   0.0157536   0.0256418   0.0039735   0.0003024
    4   0.0256418   0.0157536   0.0036535   0.0032165   0.0001232   0.0002330
    5   0.0157536   0.0256418   0.0032165   0.0036535   0.0000313   0.0000161
    6   0.1159187   0.0511002   0.0256418   0.0157536   0.0008810   0.0003137
    7   3.6626136  -0.0210459   0.0424306   1.0776706   0.0002573   0.0070273
    8  -0.0210459   3.6626136   1.0776706   0.0424306   0.9780074  -0.0194416
    9   0.0424306   1.0776706   3.9197002   1.7543206  -0.0139398   0.9833247
   10   1.0776706   0.0424306   1.7543206   3.9197002   0.0049096  -0.0055076
   11   0.0002573   0.9780074  -0.0139398   0.0049096   0.9677526  -0.0003562
   12   0.0070273  -0.0194416   0.9833247  -0.0055076  -0.0003562   0.9716985
   13  -0.0194416   0.0070273  -0.0055076   0.9833247   0.0006708  -0.0001790
   14   0.9780074   0.0002573   0.0049096  -0.0139398   0.0000001   0.0006708
   15   0.0008810   0.0039735   0.0001232   0.0000313   0.0026817  -0.0000107
   16   0.0003137   0.0003024   0.0002330   0.0000161  -0.0000107   0.0000393
   17   0.0003024   0.0003137   0.0000161   0.0002330   0.0000131   0.0000088
   18   0.0039735   0.0008810   0.0000313   0.0001232   0.0002771   0.0000131
           13          14          15          16          17          18
    1   0.0029238   0.0001458  -0.0011512   0.0082621   0.0018173   0.0067370
    2   0.0048238  -0.0167202   0.0069533   0.0004206   0.0048238  -0.0167202
    3   0.0003137   0.0008810   0.9780074  -0.0194416   0.0070273   0.0002573
    4   0.0000161   0.0000313  -0.0139398   0.9833247  -0.0055076   0.0049096
    5   0.0002330   0.0001232   0.0049096  -0.0055076   0.9833247  -0.0139398
    6   0.0003024   0.0039735   0.0002573   0.0070273  -0.0194416   0.9780074
    7  -0.0194416   0.9780074   0.0008810   0.0003137   0.0003024   0.0039735
    8   0.0070273   0.0002573   0.0039735   0.0003024   0.0003137   0.0008810
    9  -0.0055076   0.0049096   0.0001232   0.0002330   0.0000161   0.0000313
   10   0.9833247  -0.0139398   0.0000313   0.0000161   0.0002330   0.0001232
   11   0.0006708   0.0000001   0.0026817  -0.0000107   0.0000131   0.0002771
   12  -0.0001790   0.0006708  -0.0000107   0.0000393   0.0000088   0.0000131
   13   0.9716985  -0.0003562   0.0000131   0.0000088   0.0000393  -0.0000107
   14  -0.0003562   0.9677526   0.0002771   0.0000131  -0.0000107   0.0026817
   15   0.0000131   0.0002771   0.9677526  -0.0003562   0.0006708   0.0000001
   16   0.0000088   0.0000131  -0.0003562   0.9716985  -0.0001790   0.0006708
   17   0.0000393  -0.0000107   0.0006708  -0.0001790   0.9716985  -0.0003562
   18  -0.0000107   0.0026817   0.0000001   0.0006708  -0.0003562   0.9677526


 Total job time:  16287.36s(wall), 13957.46s(cpu) 
 Mon Nov 27 19:10:52 2023

        *************************************************************
        *                                                           *
        *  Thank you very much for using Q-Chem.  Have a nice day.  *
        *                                                           *
        *************************************************************


