                  Welcome to Q-Chem
     A Quantum Leap Into The Future Of Chemistry


 Q-Chem 6.0 (devel), Q-Chem, Inc., Pleasanton, CA (2022)

 E. Epifanovsky,  A. T. B. Gilbert,  Xintian Feng,  Joonho Lee,  Yuezhi Mao,  
 N. Mardirossian,  P. Pokhilko,  A. White,  M. Wormit,  M. P. Coons,  
 A. L. Dempwolff,  Zhengting Gan,  D. Hait,  P. R. Horn,  L. D. Jacobson,  
 I. Kaliman,  J. Kussmann,  A. W. Lange,  Ka Un Lao,  D. S. Levine,  Jie Liu,  
 S. C. McKenzie,  A. F. Morrison,  K. Nanda,  F. Plasser,  D. R. Rehn,  
 M. L. Vidal,  Zhi-Qiang You,  Ying Zhu,  B. Alam,  B. Albrecht,  
 A. Aldossary,  E. Alguire,  J. H. Andersen,  V. Athavale,  D. Barton,  
 K. Begam,  A. Behn,  N. Bellonzi,  Y. A. Bernard,  E. J. Berquist,  
 H. Burton,  A. Carreras,  K. Carter-Fenk,  Romit Chakraborty,  
 Chandrima Chakravarty,  Junhan Chen,  A. D. Chien,  K. D. Closser,  
 V. Cofer-Shabica,  L. Cunha,  S. Dasgupta,  Jia Deng,  M. de Wergifosse,  
 M. Diedenhofen,  Hainam Do,  S. Ehlert,  Po-Tung Fang,  S. Fatehi,  
 Qingguo Feng,  T. Friedhoff,  B. Ganoe,  J. Gayvert,  Qinghui Ge,  
 G. Gidofalvi,  M. Goldey,  J. Gomes,  C. Gonzalez-Espinoza,  S. Gulania,  
 A. Gunina,  J. A. Gyamfi,  M. W. D. Hanson-Heine,  P. H. P. Harbach,  
 A. W. Hauser,  M. F. Herbst,  M. Hernandez Vera,  M. Hodecker,  
 Z. C. Holden,  S. Houck,  Xunkun Huang,  Kerwin Hui,  B. C. Huynh,  
 K. Ikeda,  M. Ivanov,  Hyunjun Ji,  Zuxin Jin,  Hanjie Jiang,  B. Kaduk,  
 S. Kaehler,  R. Kang,  K. Khistyaev,  Jaehoon Kim,  Yongbin Kim,  
 P. Klunzinger,  Z. Koczor-Benda,  Joong Hoon Koh,  D. Kosenkov,  
 Saikiran Kotaru,  L. Koulias,  T. Kowalczyk,  C. M. Krauter,  K. Kue,  
 A. Kunitsa,  T. Kus,  A. Landau,  K. V. Lawler,  D. Lefrancois,  S. Lehtola,  
 Rain Li,  Shaozhi Li,  Yi-Pei Li,  Jiashu Liang,  M. Liebenthal,  
 Hung-Hsuan Lin,  You-Sheng Lin,  Fenglai Liu,  Kuan-Yu Liu,  
 M. Loipersberger,  A. Luenser,  C. Malbon,  A. Manjanath,  P. Manohar,  
 E. Mansoor,  S. F. Manzer,  Shan-Ping Mao,  A. V. Marenich,  T. Markovich,  
 S. Mason,  F. Matz,  S. A. Maurer,  P. F. McLaughlin,  M. F. S. J. Menger,  
 J.-M. Mewes,  S. A. Mewes,  P. Morgante,  Mohammad Mostafanejad,  
 J. W. Mullinax,  K. J. Oosterbaan,  G. Paran,  V. Parravicini,  
 Alexander C. Paul,  Suranjan K. Paul,  F. Pavosevic,  Zheng Pei,  S. Prager,  
 E. I. Proynov,  E. Ramos,  B. Rana,  A. E. Rask,  A. Rettig,  R. M. Richard,  
 F. Rob,  E. Rossomme,  T. Scheele,  M. Scheurer,  M. Schneider,  
 P. E. Schneider,  N. Sergueev,  S. M. Sharada,  Hengyuan Shen,  
 W. Skomorowski,  D. W. Small,  C. J. Stein,  Yingli Su,  Yu-Chuan Su,  
 E. J. Sundstrom,  Zhen Tao,  J. Thirman,  Hung-Yi Tsai,  T. Tsuchimochi,  
 N. M. Tubman,  C. Utku,  S. P. Veccham,  O. Vydrov,  J. Wenzel,  
 Jonathan Wong,  J. Witte,  A. Yamada,  Chou-Hsun Yang,  Kun Yao,  
 S. Yeganeh,  S. R. Yost,  A. Zech,  F. Zeller,  Igor Ying Zhang,  
 Xing Zhang,  Yu Zhang,  D. Zuev,  A. Aspuru-Guzik,  A. T. Bell,  
 N. A. Besley,  K. B. Bravaya,  B. R. Brooks,  D. Casanova,  Jeng-Da Chai,  
 Hsing-Ta Chen,  S. Coriani,  C. J. Cramer,  A. E. DePrince, III,  
 R. A. DiStasio Jr.,  A. Dreuw,  B. D. Dunietz,  T. R. Furlani,  
 W. A. Goddard III,  S. Grimme,  S. Hammes-Schiffer,  T. Head-Gordon,  
 W. J. Hehre,  Chao-Ping Hsu,  T.-C. Jagau,  Yousung Jung,  A. Klamt,  
 Jing Kong,  D. S. Lambrecht,  Xiangyuan Li,  WanZhen Liang,  N. J. Mayhall,  
 C. W. McCurdy,  J. B. Neaton,  T. Neudecker,  C. Ochsenfeld,  
 J. A. Parkhill,  R. Peverati,  V. A. Rassolov,  Haisheng Ren,  Yihan Shao,  
 L. V. Slipchenko,  R. P. Steele,  J. E. Subotnik,  A. J. W. Thom,  
 A. Tkatchenko,  D. G. Truhlar,  T. Van Voorhis,  Fan Wang,  
 T. A. Wesolowski,  K. B. Whaley,  H. L. Woodcock III,  P. M. Zimmerman,  
 S. Faraji,  P. M. W. Gill,  M. Head-Gordon,  J. M. Herbert,  A. I. Krylov

 Contributors to earlier versions of Q-Chem not listed above: 
 R. D. Adamson,  B. Austin,  R. Baer,  J. Baker,  G. J. O. Beran,  
 K. Brandhorst,  S. T. Brown,  E. F. C. Byrd,  Arup K. Chakraborty,  
 G. K. L. Chan,  Chun-Min Chang,  Yunqing Chen,  C.-L. Cheng,  
 Siu Hung Chien,  D. M. Chipman,  D. L. Crittenden,  H. Dachsel,  
 R. J. Doerksen,  A. D. Dutoi,  R. G. Edgar,  J. Fosso-Tande,  
 L. Fusti-Molnar,  D. Ghosh,  A. Ghysels,  A. Golubeva-Zadorozhnaya,  
 J. Gonthier,  M. S. Gordon,  S. R. Gwaltney,  G. Hawkins,  J. E. Herr,  
 A. Heyden,  S. Hirata,  E. G. Hohenstein,  G. Kedziora,  F. J. Keil,  
 C. Kelley,  Jihan Kim,  R. A. King,  R. Z. Khaliullin,  P. P. Korambath,  
 W. Kurlancheek,  A. Laurent,  A. M. Lee,  M. S. Lee,  S. V. Levchenko,  
 Ching Yeh Lin,  D. Liotard,  E. Livshits,  R. C. Lochan,  I. Lotan,  
 L. A. Martinez-Martinez,  P. E. Maslen,  N. Nair,  D. P. O'Neill,  
 D. Neuhauser,  E. Neuscamman,  C. M. Oana,  R. Olivares-Amaya,  R. Olson,  
 T. M. Perrine,  B. Peters,  P. A. Pieniazek,  A. Prociuk,  Y. M. Rhee,  
 J. Ritchie,  M. A. Rohrdanz,  E. Rosta,  N. J. Russ,  H. F. Schaefer III,  
 M. W. Schmidt,  N. E. Schultz,  S. Sharma,  N. Shenvi,  C. D. Sherrill,  
 A. C. Simmonett,  A. Sodt,  T. Stein,  D. Stuck,  K. S. Thanthiriwatte,  
 V. Vanovschi,  L. Vogt,  Tao Wang,  A. Warshel,  M. A. Watson,  
 C. F. Williams,  Q. Wu,  X. Xu,  Jun Yang,  W. Zhang,  Yan Zhao

   Please cite Q-Chem as follows:
  "Software for the frontiers of quantum chemistry:
   An overview of developments in the Q-Chem 5 package"
   J. Chem. Phys. 155, 084801 (2021)
   https://doi.org/10.1063/5.0055522 (open access)

 Q-Chem 6.0.1 for Intel X86 EM64T Linux

 Parts of Q-Chem use Armadillo 9.900.5 (Nocturnal Misbehaviour).
 http://arma.sourceforge.net/

 Q-Chem begins on Thu Jul  6 10:16:26 2023  

 Host: atlas-179
0

     Scratch files written to ./qchem68607//
 Processing $rem in /scratch/abel/SOFTWARE/qchem/config/preferences:
 Processing $rem in /dipc/acebg/.qchemrc:

 Checking the input file for inconsistencies... 	...done.

--------------------------------------------------------------
User input:
--------------------------------------------------------------
$comment
 RAS-SF CALCULATION
$end

$molecule
 READ naphthalene.molecule
$end

$rem
!**CALCULATION TYPE***     
JOBTYPE            sp    
EXCHANGE           HF
CORRELATION        RASCI    !RASCI=Casanova; RASCI2=Zimmerman
BASIS              def2-TZVP

!***SCF REFERENCE***
!SKIP_SCFMAN        FALSE
UNRESTRICTED       FALSE
!SCF_GUESS          core
!SCF_GUESS_MIX      FALSE
!SCF_GUESS_ALWAYS   FALSE
MAX_SCF_CYCLES     500
!SCF_CONVERGENCE    8
!SCF_ALGORITHM      DIIS !DIIS,DM,DIIS_DM,GDM,DIIS_GDM,GD

!SYMMETRY           TRUE !use of symmetry for calculating integrals
!SYM_IGNORE         FALSE !turn off using symmetry
!SYM_TOL            5 !tolerance for determining point group

!THRESH             14
SCF_FINAL_PRINT     1 !0,1,2,3

!****RAS-SF****
RAS_ROOTS          20       !number of RAS-CI roots to be computed
SET_ITER           150     !number of iterations in RASCI
RAS_ELEC           4       !number of electrons in RAS2
RAS_ELEC_ALPHA     3       !spin-α electrons in RAS2 
RAS_ELEC_BETA      1      !spin-β electrons in RAS2

RAS_ACT            10       !number of orbitals in RAS2 
RAS_ACT_ORB   [32,34,35,37,39,40,42,43,49,50]  !user-selected RAS2 orbitals
RAS_OCC            32       !number of orbitals in RAS1
N_FROZEN_CORE      0     !Number of frozen core orbitals
N_FROZEN_VIRTUAL   276      !Number of frozen virtual orbitals

RAS_DO_HOLE        TRUE   !presence of hole excitations in RAS-CI wave function
RAS_DO_PART        TRUE   !presence of particle excitations
!RAS_AMPL_PRINT     10     !threshold (×10 2 ) for the CI amplitudes

!RAS_GUESS_CS       0      !number of closed shell guess conﬁgurations
!RAS_SPIN_MULT      0      !spin multiplicity: 0=any, 2n+1=defined 
!RAS_SRDFT          FALSE  !short-range density functional RAS-CI
!RAS_NFRAG          0     !fragments of excitation analysis in RASCI

RAS_PRINT          2      !level of information
RAS_NATORB         TRUE   !computation of the natural orbital occupancies
!RAS_NATORB_STATE  0      !Saves NO of i RAS computed state in .fchk ﬁle
!RAS_FOD            TRUE

!****RAS-SOC****
CALC_SOC           TRUE   !calculate SOC for EOM-CC, RAS-CI, ADC, TDDFT/TDA and TDDFT
!RAS_SOC_2E        TRUE   !two-electron mean-ﬁeld contribution, default=true
RAS_SOC_SYM_DENS   TRUE   !averaging of α and β densities

!****MEMORY****
MEM_TOTAL          60000 !Default 2000 MB
MEM_STATIC         16000  !Default 64 MB

!**Molecular Properties and Analysis **                                                                                          
!GUI                2
STATE_ANALYSIS     TRUE
MOLDEN_FORMAT      TRUE
PRINT_ORBITALS     20
$end                                           

--------------------------------------------------------------
 ----------------------------------------------------------------
             Standard Nuclear Orientation (Angstroms)
    I     Atom           X                Y                Z
 ----------------------------------------------------------------
    1      C       0.0000000000    -1.3623625091    -0.0000000000
    2      C       0.0000000000     1.3623625091     0.0000000000
    3      C      -2.3376206850    -2.6436978817    -0.0000000000
    4      C      -4.6989437780    -1.2863193617    -0.0000000000
    5      C      -4.6989437780     1.2863193617    -0.0000000000
    6      C      -2.3376206850     2.6436978817    -0.0000000000
    7      C       2.3376206850     2.6436978817     0.0000000000
    8      C       2.3376206850    -2.6436978817     0.0000000000
    9      C       4.6989437780    -1.2863193617     0.0000000000
   10      C       4.6989437780     1.2863193617     0.0000000000
   11      H       2.3527347410    -4.6914688881     0.0000000000
   12      H       6.4552948094    -2.3370951729     0.0000000000
   13      H       6.4552948094     2.3370951729     0.0000000000
   14      H       2.3527347410     4.6914688881     0.0000000000
   15      H      -2.3527347410    -4.6914688881    -0.0000000000
   16      H      -6.4552948094    -2.3370951729    -0.0000000000
   17      H      -6.4552948094     2.3370951729    -0.0000000000
   18      H      -2.3527347410     4.6914688881    -0.0000000000
 ----------------------------------------------------------------
 Molecular Point Group                 D2h   NOp =  8
 Largest Abelian Subgroup              D2h   NOp =  8
 Nuclear Repulsion Energy =         240.47174752 hartrees
 There are       35 alpha and       33 beta electrons
 Requested basis set is def2-TZVP
 There are 142 shells and 358 basis functions

 Q-Chem warning in module libmdc/get_mega.C, line 167:

 Allowed MEM_STATIC has been capped at MEM_STATIC=8191.
 Reduce the value of MEM_STATIC to silence this warning.


 Total QAlloc Memory Limit  60000 MB
 Mega-Array Size      8007 MB
 MEM_STATIC part      8191 MB

 A cutoff of  1.0D-09 yielded   5219 shell pairs
 There are     33251 function pairs (     42610 Cartesian)
 Smallest overlap matrix eigenvalue = 5.05E-03

 Scale SEOQF with 1.000000e-02/1.000000e-01/1.000000e+00

 Standard Electronic Orientation quadrupole field applied
 Nucleus-field energy     =     0.0000000273 hartrees
 Guess from superposition of atomic densities
 Warning:  Energy on first SCF cycle will be non-variational
 SAD guess density has 68.000000 electrons

 -----------------------------------------------------------------------
  General SCF calculation program by
  Eric Jon Sundstrom, Paul Horn, Yuezhi Mao, Dmitri Zuev, Alec White,
  David Stuck, Shaama M.S., Shane Yost, Joonho Lee, David Small,
  Daniel Levine, Susi Lehtola, Hugh Burton, Evgeny Epifanovsky,
  Bang C. Huynh
 -----------------------------------------------------------------------
 Hartree-Fock
 Orthonormalizing orbitals
 A restricted open-shell SCF calculation will be
 performed using GDM
 SCF converges when RMS gradient is below 1.0e-05
 ---------------------------------------
  Cycle       Energy        RMS Gradient
 ---------------------------------------
    1    -378.7980478102      4.99e-01   Descent step
    2    -379.2692935900      2.56e-01   Descent step
    3    -379.5211066569      1.42e-01   Descent step
    4    -379.6488683548      9.25e-02   Dog-leg BFGS step
    5    -379.7066017838      8.67e-02   Normal BFGS step
    6    -379.7313397298      8.74e-02   Normal BFGS step
    7    -379.7320896993      1.68e-01   Normal BFGS step
    8    -379.7517808164      2.40e-02   Normal BFGS step
    9    -379.7548583755      3.75e-02   Normal BFGS step
   10    -379.7556657465      1.63e-02   Normal BFGS step
   11    -379.7559107732      1.29e-02   Normal BFGS step
   12    -379.7561290193      3.22e-03   Normal BFGS step
   13    -379.7561944741      2.53e-03   Normal BFGS step
   14    -379.7562546030      2.88e-03   Normal BFGS step
   15    -379.7562796175      1.84e-03   Normal BFGS step
   16    -379.7563052129      1.24e-03   Normal BFGS step
   17    -379.7563254671      2.01e-03   Normal BFGS step
   18    -379.7563424980      1.57e-03   Normal BFGS step
   19    -379.7563505063      6.95e-04   Normal BFGS step
   20    -379.7563530373      3.08e-04   Normal BFGS step
   21    -379.7563535169      1.40e-04   Normal BFGS step
   22    -379.7563536621      9.32e-05   Normal BFGS step
   23    -379.7563538485      3.71e-05   Normal BFGS step
   24    -379.7563540370      1.77e-05   Normal BFGS step
   25    -379.7563543511      7.02e-06  Convergence criterion met
The disked orbital energies are calculated using alpha and beta Focks
 ---------------------------------------
 Alpha HF Exchange    Energy = -25.38059824376365
 Beta HF Exchange     Energy = -24.74813984025039
 Nuclear Attraction   Energy =   0.00000000000000
 One-Electron (alpha) Energy = -503.16812626784110
 One-Electron (beta)  Energy = -482.54276527264858
 Total Coulomb        Energy = 415.61152772877324
 Final Alpha MO Eigenvalues
            1           2           3           4           5           6
    1 -11.4829569 -11.4829549 -11.4829526 -11.4829517 -11.4685226 -11.4685225
            7           8           9          10          11          12
    1 -11.4684604 -11.4684603 -11.4589034 -11.4588338  -0.8387249  -0.8278196
           13          14          15          16          17          18
    1  -0.8276078  -0.8118966  -0.8137153  -0.7943757  -0.7558788  -0.7605155
           19          20          21          22          23          24
    1  -0.7493652  -0.7206437  -0.4108121  -0.4096862  -0.4004217  -0.3976462
           25          26          27          28          29          30
    1  -0.3887552  -0.3864841  -0.3664441  -0.3598859  -0.3531527  -0.3511536
           31          32          33          34          35          36
    1  -0.3056963  -0.3152788  -0.2188575  -0.2894149  -0.2529960  -0.1167383
           37          38          39          40          41          42
    1  -0.1695588  -0.0868649  -0.1112259  -0.0506621  -0.0265977  -0.0198308
           43          44          45          46          47          48
    1  -0.0217247  -0.0141199  -0.0094300  -0.0064135  -0.0022199   0.0143325
           49          50          51          52          53          54
    1   0.0258506   0.0264679   0.0343105   0.0369658   0.0386880   0.0581803
           55          56          57          58          59          60
    1   0.0596907   0.0721217   0.0759609   0.1001124   0.2398686   0.2709789
           61          62          63          64          65          66
    1   0.2920797   0.3118361   0.3170828   0.3213002   0.3145087   0.3230136
           67          68          69          70          71          72
    1   0.3291639   0.3344101   0.3503144   0.3461635   0.3579527   0.3587522
           73          74          75          76          77          78
    1   0.3589801   0.3611661   0.3703015   0.3777801   0.3746241   0.3848377
           79          80          81          82          83          84
    1   0.3897420   0.3938596   0.3967442   0.4036697   0.3989870   0.4039824
           85          86          87          88          89          90
    1   0.4125578   0.4199986   0.4258376   0.4261779   0.4289135   0.4411314
           91          92          93          94          95          96
    1   0.4437609   0.4507427   0.4522759   0.4680022   0.4864300   0.4904221
           97          98          99         100         101         102
    1   0.5249205   0.5333316   0.5344979   0.5650384   0.6177657   0.6212483
          103         104         105         106         107         108
    1   0.6228986   0.6287646   0.6873589   0.6859370   0.6874432   0.7205141
          109         110         111         112         113         114
    1   0.7221916   0.7370775   0.7414545   0.7486053   0.7466331   0.7536226
          115         116         117         118         119         120
    1   0.7613364   0.7611791   0.7643271   0.7691393   0.7819238   0.7902379
          121         122         123         124         125         126
    1   0.7903698   0.8167455   0.8182565   0.8263407   0.8282980   0.8444059
          127         128         129         130         131         132
    1   0.8463031   0.8456158   0.8679924   0.9021379   0.9188633   0.9354125
          133         134         135         136         137         138
    1   0.9441356   0.9443847   0.9517595   0.9582764   0.9639853   0.9876681
          139         140         141         142         143         144
    1   0.9944189   0.9947135   0.9977737   1.0370913   1.0417528   1.0666503
          145         146         147         148         149         150
    1   1.0716500   1.1791277   1.1923312   1.2029945   1.2130547   1.2162007
          151         152         153         154         155         156
    1   1.2216929   1.2396023   1.2526572   1.2625390   1.2914818   1.3215054
          157         158         159         160         161         162
    1   1.3278558   1.3626314   1.4084343   1.4268727   1.4422419   1.4757205
          163         164         165         166         167         168
    1   1.4977895   1.5012864   1.5380292   1.5602484   1.5600374   1.5861141
          169         170         171         172         173         174
    1   1.5994001   1.6102411   1.6119495   1.6292810   1.6258667   1.6377005
          175         176         177         178         179         180
    1   1.6467964   1.6421067   1.6636873   1.6645297   1.6659450   1.6783044
          181         182         183         184         185         186
    1   1.6782696   1.6806852   1.6842889   1.6855469   1.6860054   1.6870441
          187         188         189         190         191         192
    1   1.6874586   1.6880969   1.6931188   1.7003443   1.7021517   1.7023731
          193         194         195         196         197         198
    1   1.7193386   1.7185947   1.7197318   1.7222521   1.7240315   1.7324884
          199         200         201         202         203         204
    1   1.7472470   1.7451826   1.7521032   1.7726307   1.7789580   1.8216922
          205         206         207         208         209         210
    1   1.8238236   1.8395700   1.8755787   1.9031061   1.9079265   1.9277131
          211         212         213         214         215         216
    1   1.9984836   2.0078190   2.0124862   2.0229865   2.0332140   2.0366476
          217         218         219         220         221         222
    1   2.0435231   2.0463768   2.0630631   2.0648534   2.5770994   2.5872092
          223         224         225         226         227         228
    1   2.5868125   2.5996757   2.6026709   2.6104320   2.6160452   2.6183413
          229         230         231         232         233         234
    1   2.8395456   2.8430979   2.8431128   2.8471076   2.8564314   2.8606989
          235         236         237         238         239         240
    1   2.8628528   2.8641772   2.8644268   2.8685985   2.8652003   2.8671414
          241         242         243         244         245         246
    1   2.8702204   2.8693706   2.8703393   2.8723834   2.8747463   2.8758478
          247         248         249         250         251         252
    1   2.8775381   2.8823428   2.8833887   2.8827902   2.8918771   2.9059505
          253         254         255         256         257         258
    1   2.9066911   2.9090505   2.9067767   2.9139840   2.9144536   2.9182967
          259         260         261         262         263         264
    1   2.9177520   2.9203380   2.9219397   2.9240527   2.9236308   2.9336521
          265         266         267         268         269         270
    1   2.9340111   2.9414186   2.9424966   2.9429963   2.9488342   2.9543156
          271         272         273         274         275         276
    1   2.9539574   2.9572986   2.9559426   2.9591053   2.9616160   2.9648698
          277         278         279         280         281         282
    1   2.9667189   2.9680245   2.9706223   2.9709734   2.9711853   2.9771970
          283         284         285         286         287         288
    1   2.9954820   3.0006266   3.0008847   3.0176215   3.0218461   3.0276161
          289         290         291         292         293         294
    1   3.0299881   3.0339608   3.0342090   3.0350633   3.0644425   3.0726998
          295         296         297         298         299         300
    1   3.0729981   3.0752245   3.1234811   3.1232036   3.1380622   3.1390092
          301         302         303         304         305         306
    1   3.1655995   3.1729733   3.1825372   3.1819403   3.1856247   3.1853727
          307         308         309         310         311         312
    1   3.1929050   3.2103945   3.2137054   3.2467094   3.2556270   3.2669966
          313         314         315         316         317         318
    1   3.2716611   3.2801995   3.2767922   3.2807499   3.3000291   3.3012980
          319         320         321         322         323         324
    1   3.3082638   3.3116523   3.3155753   3.3183393   3.3235110   3.3514969
          325         326         327         328         329         330
    1   3.3582499   3.3574640   3.3648544   3.3891014   3.3955575   3.4145547
          331         332         333         334         335         336
    1   3.4156729   3.4555066   3.4612398   3.4900976   3.5137159   3.5392861
          337         338         339         340         341         342
    1   3.5471119   3.6082381   3.6163216   3.6352594   3.6588904   3.6703025
          343         344         345         346         347         348
    1   3.6735473   3.6785131   3.7121170   3.7285786   3.7677315   3.7747681
          349         350         351         352         353         354
    1  22.0980410  22.1687868  22.2131056  22.2444067  22.2692450  22.3360798
          355         356         357         358
    1  22.3934942  22.3944994  22.4344158  22.4819451
 Final Beta MO Eigenvalues
            1           2           3           4           5           6
    1 -11.4756221 -11.4756227 -11.4756197 -11.4756199 -11.4684679 -11.4684677
            7           8           9          10          11          12
    1 -11.4684058 -11.4684057 -11.4566904 -11.4566119  -0.8224616  -0.8197249
           13          14          15          16          17          18
    1  -0.7943392  -0.7996842  -0.7826012  -0.7586482  -0.7509054  -0.7325023
           19          20          21          22          23          24
    1  -0.7369274  -0.6994786  -0.4084253  -0.4077271  -0.3953345  -0.3931962
           25          26          27          28          29          30
    1  -0.3850522  -0.3827409  -0.3641541  -0.3570263  -0.3494947  -0.3482233
           31          32          33          34          35          36
    1  -0.3017549  -0.2225409  -0.2120875  -0.0345341   0.0094958  -0.1106768
           37          38          39          40          41          42
    1   0.0111630  -0.0795315   0.0072132   0.0225552  -0.0225277  -0.0136803
           43          44          45          46          47          48
    1  -0.0026660  -0.0100419  -0.0068608  -0.0042149   0.0061898   0.0195882
           49          50          51          52          53          54
    1   0.0325853   0.0352544   0.0391051   0.0423151   0.0432981   0.0595263
           55          56          57          58          59          60
    1   0.0605665   0.0782573   0.0821393   0.1065076   0.2453337   0.2746954
           61          62          63          64          65          66
    1   0.2997993   0.3135854   0.3197498   0.3226352   0.3379302   0.3286443
           67          68          69          70          71          72
    1   0.3444566   0.3610252   0.3529452   0.3723666   0.3601557   0.3617192
           73          74          75          76          77          78
    1   0.3644609   0.3623182   0.3736509   0.3797727   0.3906021   0.3859934
           79          80          81          82          83          84
    1   0.3917624   0.3989892   0.3972390   0.4043974   0.4170892   0.4079113
           85          86          87          88          89          90
    1   0.4217194   0.4210411   0.4296838   0.4295071   0.4323156   0.4427304
           91          92          93          94          95          96
    1   0.4451304   0.4559570   0.4537789   0.4799401   0.4924944   0.4933722
           97          98          99         100         101         102
    1   0.5263533   0.5352817   0.5368137   0.5668371   0.6207696   0.6240494
          103         104         105         106         107         108
    1   0.6254252   0.6316971   0.6906539   0.6991827   0.6992613   0.7286392
          109         110         111         112         113         114
    1   0.7415588   0.7433597   0.7557108   0.7511878   0.7567994   0.7588007
          115         116         117         118         119         120
    1   0.7745433   0.7752620   0.7797424   0.7787176   0.7847037   0.7978547
          121         122         123         124         125         126
    1   0.8068942   0.8191496   0.8253302   0.8278532   0.8386368   0.8502585
          127         128         129         130         131         132
    1   0.8478546   0.8524774   0.8886748   0.9168993   0.9214840   0.9481850
          133         134         135         136         137         138
    1   0.9506036   0.9530233   0.9599822   0.9614400   0.9796657   0.9915959
          139         140         141         142         143         144
    1   0.9978153   1.0005760   1.0124784   1.0481692   1.0516125   1.0692154
          145         146         147         148         149         150
    1   1.0765209   1.1839548   1.1959446   1.2068275   1.2207895   1.2205105
          151         152         153         154         155         156
    1   1.2234389   1.2461784   1.2591338   1.2699588   1.2951930   1.3233514
          157         158         159         160         161         162
    1   1.3339840   1.3666934   1.4168126   1.4286759   1.4480065   1.4808002
          163         164         165         166         167         168
    1   1.4995017   1.5068092   1.5405819   1.5627067   1.5636479   1.6038517
          169         170         171         172         173         174
    1   1.6107697   1.6140180   1.6415087   1.6383533   1.6547115   1.6387727
          175         176         177         178         179         180
    1   1.6493301   1.6660097   1.6658726   1.6693499   1.6791275   1.6795138
          181         182         183         184         185         186
    1   1.6818344   1.6831831   1.6865250   1.6861938   1.6869937   1.6873708
          187         188         189         190         191         192
    1   1.6878841   1.6883055   1.6952401   1.7014081   1.7048495   1.7115783
          193         194         195         196         197         198
    1   1.7203459   1.7219911   1.7209988   1.7229892   1.7260320   1.7349042
          199         200         201         202         203         204
    1   1.7487619   1.7560660   1.7528061   1.7761495   1.7815196   1.8239077
          205         206         207         208         209         210
    1   1.8270033   1.8408920   1.8784886   1.9054062   1.9092906   1.9314449
          211         212         213         214         215         216
    1   2.0009086   2.0098168   2.0141666   2.0239762   2.0361455   2.0382424
          217         218         219         220         221         222
    1   2.0464510   2.0490479   2.0632313   2.0653073   2.5783529   2.5876149
          223         224         225         226         227         228
    1   2.5888733   2.6005453   2.6042933   2.6122959   2.6162483   2.6189974
          229         230         231         232         233         234
    1   2.8413586   2.8433712   2.8433752   2.8512353   2.8587097   2.8631998
          235         236         237         238         239         240
    1   2.8744840   2.8764363   2.8766584   2.8705051   2.8776935   2.8743817
          241         242         243         244         245         246
    1   2.8736978   2.8768821   2.8777972   2.8800462   2.8818349   2.8802340
          247         248         249         250         251         252
    1   2.8856867   2.8891365   2.8897771   2.8931383   2.8981281   2.9077315
          253         254         255         256         257         258
    1   2.9077078   2.9142244   2.9189394   2.9159624   2.9213978   2.9223206
          259         260         261         262         263         264
    1   2.9235995   2.9333209   2.9329339   2.9311297   2.9331885   2.9413093
          265         266         267         268         269         270
    1   2.9417450   2.9450235   2.9487651   2.9489487   2.9564964   2.9600209
          271         272         273         274         275         276
    1   2.9619414   2.9605192   2.9661896   2.9618917   2.9627919   2.9692359
          277         278         279         280         281         282
    1   2.9726830   2.9727921   2.9744267   2.9754699   2.9770473   2.9840884
          283         284         285         286         287         288
    1   3.0042023   3.0074383   3.0070512   3.0193188   3.0244296   3.0342971
          289         290         291         292         293         294
    1   3.0327017   3.0357026   3.0361034   3.0365179   3.0709812   3.0793133
          295         296         297         298         299         300
    1   3.0801266   3.0837965   3.1247743   3.1256487   3.1485327   3.1503394
          301         302         303         304         305         306
    1   3.1810243   3.1865942   3.1845483   3.1948612   3.1885330   3.2000855
          307         308         309         310         311         312
    1   3.2040682   3.2197887   3.2257884   3.2665726   3.2622125   3.2782162
          313         314         315         316         317         318
    1   3.2879057   3.2825302   3.2911391   3.2846979   3.3032555   3.3129678
          319         320         321         322         323         324
    1   3.3158657   3.3194391   3.3186539   3.3250636   3.3373641   3.3562565
          325         326         327         328         329         330
    1   3.3641502   3.3705716   3.3673860   3.3973075   3.4034538   3.4159446
          331         332         333         334         335         336
    1   3.4191107   3.4587643   3.4682339   3.4958921   3.5178280   3.5431421
          337         338         339         340         341         342
    1   3.5513760   3.6135024   3.6191079   3.6391960   3.6634213   3.6746645
          343         344         345         346         347         348
    1   3.6775482   3.6802908   3.7142221   3.7298414   3.7692672   3.7760205
          349         350         351         352         353         354
    1  22.1005069  22.1702027  22.2167247  22.2449928  22.2729859  22.3393813
          355         356         357         358
    1  22.3939774  22.3976116  22.4353832  22.4839834
 SCF time:   CPU 87.68s  wall 90.00s 
<S^2> =          2.000000000
 SCF   energy in the final basis set =     -379.7563543511
 Total energy in the final basis set =     -379.7563543511

 Q-Chem warning in module 0, line  204:

 Quadrupole field failed to resolve orbital degeneracies.


 Q-Chem warning in module 0, line  204:

 Quadrupole field failed to resolve orbital degeneracies.

  
     ##========================================##
     ||                                        ||
     ||              R A S M A N 2             ||
     ||________________________________________||
     ||                                        ||
     ||  Author:                               ||
     ||                                        ||
     ||        David Casanova (2010)           ||
     ||                                        ||
     ##========================================##
  
Setting single-point xc-functionals (if necessary)

  ***************************************************
  *  RAS-CI Dimensions:                             *
  *                                                 *
  *  Active Elec.:   4 ( 3, 1)   Active Orb.:  10   *
  *  Doubly Occ. :  32           Doubly Vir.: 316   *
  *  Frozen Occ. :   0           Frozen Vir.: 276   *
  *                                                 *
  *  Total CI configurations:    264000             * 
  *    Active configurations:      1200             * 
  *      Hole configurations:    240000             * 
  *  Particle configurations:     22800             * 
  *                                                 *
  *   Requested states:       20                    *
  *  Spin multiplicity: Any multiplicity            *
  *                                                 *
  ***************************************************
-----------------------------------------
    Memory requirements of RASCI

 Each CI-vector requires      2.01 MiB 
 Max. subspace vectors           3000      

 Reduced Lists                0.00 MiB 
 Excitation Lists             0.00 MiB 
 Excitation Lists Sign        0.00 MiB 
 CI-space (Max)            6151.45 MiB 
 Integrals                  175.69 MiB 
 Memory required (Max)     6151.46 MiB 
 Memory available          7811.55 MiB 

    Disk requirements of RASCI

 Fock matrix                  1.96 MiB 
 2-electron integrals        11.21 MiB 
 CI-space                 12084.96 MiB 
 Disk required            12098.13 MiB 
-----------------------------------------
  
RAS1 HF-like energy:           -377.7003528880
 Computing integrals
 Computing J and K matrices
 Computing addressing
 Making amplitude guesses
 
Direct CI diagonalization
 ---------------------------------------------------
 Iter    Rts Conv    Rts Left    Ttl Dev     Max Dev
 ---------------------------------------------------
   1         0          20      0.008963    0.000533
   2         0          20      0.006672    0.000454
   3         0          20      0.004195    0.000422
   4         0          20      0.002601    0.000276
   5         0          20      0.001851    0.000224
   6         0          20      0.001546    0.000243
   7         0          20      0.001388    0.000209
   8         0          20      0.002015    0.000342
   9         0          20      0.001926    0.000241
  10         0          20      0.001693    0.000219
  11         0          20      0.001488    0.000196
  12         0          20      0.001298    0.000157
  13         0          20      0.000960    0.000112
  14         0          20      0.000741    0.000106
  15         0          20      0.000615    0.000105
  16         0          20      0.000517    0.000080
  17         0          20      0.000428    0.000070
  18         0          20      0.000402    0.000083
  19         0          20      0.000382    0.000086
  20         1          19      0.000345    0.000071
  21         1          19      0.000293    0.000062
  22         1          19      0.000247    0.000048
  23         3          17      0.000279    0.000062
  24         4          16      0.000271    0.000071
  25         6          14      0.000241    0.000070
  26         8          12      0.000216    0.000063
  27         8          12      0.000183    0.000049
  28         8          12      0.000175    0.000051
  29         8          12      0.000176    0.000052
  30         9          11      0.000249    0.000092
  31        10          10      0.000207    0.000070
  32        11           9      0.000169    0.000053
  33        11           9      0.000142    0.000042
  34        11           9      0.000104    0.000027
  35        13           7      0.000081    0.000024
  36        12           8      0.000075    0.000026
  37        13           7      0.000073    0.000029
  38        14           6      0.000069    0.000031
  39        14           6      0.000067    0.000034
  40        14           6      0.000061    0.000031
  41        14           6      0.000046    0.000021
  42        14           6      0.000035    0.000014
  43        14           6      0.000028    0.000010
  44        14           6      0.000022    0.000007
  45        14           6      0.000019    0.000005
  46        16           4      0.000015    0.000003
  47        16           4      0.000013    0.000002
  48        16           4      0.000012    0.000002
  49        17           3      0.000010    0.000001
  50        20           0      0.000009    0.000001    Roots Converged
 ---------------------------------------------------
   
**************************************************
 RAS-CI total energy for state   1:   -380.007179230417
  Excitation energy (eV) =  0.000000000000
  State symmetry: Au    (D2h      )
  <S^2>      :  6.0000
  Dipole Moment:    0.0000 X     0.0000 Y    -0.0000 Z
 NATURAL OCCUPATION NUMBERS (higher than 1.0E-05)
            1           2           3           4           5           6
    1   2.0000000   2.0000000   2.0000000   2.0000000   2.0000000   2.0000000
            7           8           9          10          11          12
    1   2.0000000   2.0000000   2.0000000   2.0000000   1.9999999   1.9999998
           13          14          15          16          17          18
    1   1.9999995   1.9999994   1.9999994   1.9999987   1.9999976   1.9999963
           19          20          21          22          23          24
    1   1.9999953   1.9999938   1.9999938   1.9999737   1.9999526   1.9999380
           25          26          27          28          29          30
    1   1.9999316   1.9997588   1.9995607   1.9991630   1.9986517   1.9889330
           31          32          33          34          35          36
    1   1.9770357   1.4292890   1.0372204   0.9952855   0.9918250   0.9484892
           37          38          39          40          41          42
    1   0.3676301   0.2655866   0.0005459   0.0005123   0.0003460   0.0003049
           43          44          45          46
    1   0.0000470   0.0000181   0.0000146   0.0000110
 Created directory ./qchem68607/plots

  Amplitudes : 
  
 | HOLE  | ALPHA      | BETA       | PART  |    AMPLITUDE 
--------------------------------------------------
 |  32   | 1111000000 | 1000000000 |       |     3.6791363606461E-01
 |  32   | 0111100000 | 1000000000 |       |    -1.1182604287026E-01
 |  32   | 1101100000 | 0010000000 |       |     1.0327318488154E-01
 |  32   | 1110100000 | 0001000000 |       |    -1.0172532636776E-01
 |  32   | 0111100000 | 0000100000 |       |     1.0935998169530E-01
 |  32   | 0111010000 | 0000010000 |       |     1.2293784934615E-01
 |  32   | 1110000000 | 1001000000 |       |    -3.6791363607037E-01
 |  32   | 1101000000 | 1010000000 |       |     3.6791363607517E-01
 |  32   | 1100100000 | 0011000000 |       |     1.8222402223342E-01
 |  32   | 1011000000 | 1100000000 |       |    -3.6791363606917E-01
 |  32   | 0111000000 | 1000100000 |       |     1.9998936476618E-01
 |  32   | 0110100000 | 0001100000 |       |    -1.0935998157536E-01
 |  32   | 0110010000 | 0001010000 |       |    -1.2293784930393E-01
 |  32   | 0101100000 | 0010100000 |       |     1.0935998163300E-01
 |  32   | 0101010000 | 0010010000 |       |     1.2293784939019E-01
 |  32   | 0011100000 | 1100000000 |       |    -1.1683518920625E-01
 |  32   | 0011100000 | 0100100000 |       |    -1.0935998157539E-01
 |  32   | 0011010000 | 0100010000 |       |    -1.2293784940359E-01
--------------------------------------------------
*** Contributions RASCI wfn    Active:   0.00
                                 Hole:  99.99
                                 Part:   0.01

      Mulliken population analysis 
 ---------------------------------------------------
   Atom    Charge (a.u.)   Spin (a.u.)  
 ---------------------------------------------------
   1  C    0.154765        0.006434 
   2  C    0.154765        0.006434 
   3  C   -0.181970        0.457012 
   4  C    0.046292        0.031561 
   5  C    0.046292        0.031561 
   6  C   -0.181970        0.457012 
   7  C   -0.181970        0.457012 
   8  C   -0.181970        0.457012 
   9  C    0.046292        0.031561 
  10  C    0.046292        0.031561 
  11  H    0.038933        0.002813 
  12  H    0.019362        0.005397 
  13  H    0.019362        0.005397 
  14  H    0.038933        0.002813 
  15  H    0.038933        0.002813 
  16  H    0.019362        0.005397 
  17  H    0.019362        0.005397 
  18  H    0.038933        0.002813 
 ---------------------------------------------------
   Sum:    0.000000        2.000000 
 ---------------------------------------------------
 
  
 NATURAL OCCUPATION NUMBERS (higher than 1.0E-05)
            1           2           3           4           5           6
    1   2.0000000   2.0000000   2.0000000   2.0000000   2.0000000   2.0000000
            7           8           9          10          11          12
    1   2.0000000   2.0000000   2.0000000   2.0000000   1.9999999   1.9999998
           13          14          15          16          17          18
    1   1.9999995   1.9999994   1.9999994   1.9999987   1.9999976   1.9999963
           19          20          21          22          23          24
    1   1.9999953   1.9999938   1.9999938   1.9999737   1.9999526   1.9999380
           25          26          27          28          29          30
    1   1.9999316   1.9997588   1.9995607   1.9991630   1.9986517   1.9889330
           31          32          33          34          35          36
    1   1.9770357   1.4292890   1.0372204   0.9952855   0.9918250   0.9484892
           37          38          39          40          41          42
    1   0.3676301   0.2655866   0.0005459   0.0005123   0.0003460   0.0003049
           43          44          45          46
    1   0.0000470   0.0000181   0.0000146   0.0000110
  
*** Unpaired Electrons
 Yamaguchi Nd:         5.95
 Head-Gordon Nu:       5.14
 Head-Gordon Nu_nl:    5.23
  
**************************************************
 RAS-CI total energy for state   2:   -380.004510030376
  Excitation energy (eV) =  0.072632628558
  State symmetry: B3g   (D2h      )
  <S^2>      :  2.0000
  Dipole Moment:    0.0000 X    -0.0000 Y    -0.0000 Z
  Trans. Moment:    0.0000 X    -0.0000 Y     0.0000 Z
  Strength   :  0.000000
  Natural transition orbitals ( 1 -> 2 ):
   e-/hole pair  1 alpha:  ampl =  0.320788 ( 10.3%)   [10 : 11]
   e-/hole pair  2 alpha:  ampl =  0.182289 (  3.3%)   [9 : 12]
   e-/hole pair  1 beta :  ampl =  0.320788 ( 10.3%)   [10 : 11]
   e-/hole pair  2 beta :  ampl =  0.182289 (  3.3%)   [9 : 12]
   Sum of square amplitudes: 0.37

 NATURAL OCCUPATION NUMBERS (higher than 1.0E-05)
            1           2           3           4           5           6
    1   2.0000000   2.0000000   2.0000000   2.0000000   2.0000000   2.0000000
            7           8           9          10          11          12
    1   2.0000000   2.0000000   2.0000000   2.0000000   1.9999998   1.9999995
           13          14          15          16          17          18
    1   1.9999993   1.9999990   1.9999964   1.9999953   1.9999934   1.9999921
           19          20          21          22          23          24
    1   1.9999886   1.9999838   1.9999811   1.9999641   1.9999474   1.9999255
           25          26          27          28          29          30
    1   1.9999165   1.9997022   1.9995703   1.9990856   1.9986075   1.9890987
           31          32          33          34          35          36
    1   1.9734178   1.4029844   1.2410140   1.0409581   0.9142519   0.6179696
           37          38          39          40          41          42
    1   0.5352921   0.2862379   0.0007054   0.0005739   0.0003792   0.0003477
           43          44          45          46
    1   0.0000640   0.0000197   0.0000167   0.0000151

  Amplitudes : 
  
 | HOLE  | ALPHA      | BETA       | PART  |    AMPLITUDE 
--------------------------------------------------
 |  32   | 1110000000 | 1100000000 |       |     5.2422981490031E-01
 |  32   | 1110000000 | 0011000000 |       |     1.2262598195332E-01
 |  32   | 1101000000 | 1000100000 |       |    -2.4310915528249E-01
 |  32   | 1100100000 | 1001000000 |       |    -1.6956116084159E-01
 |  32   | 1100100000 | 0110000000 |       |     1.9103783659255E-01
 |  32   | 1011000000 | 1001000000 |       |     3.1592428966369E-01
 |  32   | 1010100000 | 0100010000 |       |    -1.2576486940886E-01
 |  32   | 1001100000 | 0011000000 |       |     1.1218382476360E-01
 |  32   | 0111000000 | 1010000000 |       |    -2.2369763530941E-01
 |  32   | 0110100000 | 1100000000 |       |     2.0294894332118E-01
 |  32   | 0110100000 | 1000010000 |       |    -1.3284215929775E-01
 |  32   | 0110100000 | 0100100000 |       |     1.6893977878154E-01
 |  32   | 0110010000 | 0100010000 |       |     1.6705349623680E-01
 |  32   | 0101100000 | 1000100000 |       |    -1.4086940521630E-01
--------------------------------------------------
*** Contributions RASCI wfn    Active:   0.00
                                 Hole:  99.99
                                 Part:   0.01

      Mulliken population analysis 
 ---------------------------------------------------
   Atom    Charge (a.u.)   Spin (a.u.)  
 ---------------------------------------------------
   1  C    0.126223       -0.059504 
   2  C    0.126223       -0.059504 
   3  C   -0.167457        0.452498 
   4  C    0.046150        0.061109 
   5  C    0.046150        0.061109 
   6  C   -0.167457        0.452498 
   7  C   -0.167457        0.452498 
   8  C   -0.167457        0.452498 
   9  C    0.046150        0.061109 
  10  C    0.046150        0.061109 
  11  H    0.038811        0.005355 
  12  H    0.019386        0.010790 
  13  H    0.019386        0.010790 
  14  H    0.038811        0.005355 
  15  H    0.038811        0.005355 
  16  H    0.019386        0.010790 
  17  H    0.019386        0.010790 
  18  H    0.038811        0.005355 
 ---------------------------------------------------
   Sum:    0.000000        2.000000 
 ---------------------------------------------------
 
  
 NATURAL OCCUPATION NUMBERS (higher than 1.0E-05)
            1           2           3           4           5           6
    1   2.0000000   2.0000000   2.0000000   2.0000000   2.0000000   2.0000000
            7           8           9          10          11          12
    1   2.0000000   2.0000000   2.0000000   2.0000000   1.9999998   1.9999995
           13          14          15          16          17          18
    1   1.9999993   1.9999990   1.9999964   1.9999953   1.9999934   1.9999921
           19          20          21          22          23          24
    1   1.9999886   1.9999838   1.9999811   1.9999641   1.9999474   1.9999255
           25          26          27          28          29          30
    1   1.9999165   1.9997022   1.9995703   1.9990856   1.9986075   1.9890987
           31          32          33          34          35          36
    1   1.9734178   1.4029844   1.2410140   1.0409581   0.9142519   0.6179696
           37          38          39          40          41          42
    1   0.5352921   0.2862379   0.0007054   0.0005739   0.0003792   0.0003477
           43          44          45          46
    1   0.0000640   0.0000197   0.0000167   0.0000151
  
*** Unpaired Electrons
 Yamaguchi Nd:         5.98
 Head-Gordon Nu:       4.71
 Head-Gordon Nu_nl:    5.16
  
**************************************************
 RAS-CI total energy for state   3:   -380.003935128455
  Excitation energy (eV) =  0.088276505760
  State symmetry: B1u   (D2h      )
  <S^2>      :  2.0000
  Dipole Moment:    0.0000 X     0.0000 Y    -0.0000 Z
  Trans. Moment:    0.0000 X     0.0000 Y     0.0000 Z
  Strength   :  0.000000
  Natural transition orbitals ( 1 -> 3 ):
   e-/hole pair  1 alpha:  ampl =  0.313763 (  9.8%)   [10 : 11]
   e-/hole pair  2 alpha:  ampl =  0.196600 (  3.9%)   [9 : 12]
   e-/hole pair  1 beta :  ampl =  0.313763 (  9.8%)   [10 : 11]
   e-/hole pair  2 beta :  ampl =  0.196600 (  3.9%)   [9 : 12]
   Sum of square amplitudes: 0.38

 NATURAL OCCUPATION NUMBERS (higher than 1.0E-05)
            1           2           3           4           5           6
    1   2.0000000   2.0000000   2.0000000   2.0000000   2.0000000   2.0000000
            7           8           9          10          11          12
    1   2.0000000   2.0000000   2.0000000   2.0000000   1.9999998   1.9999996
           13          14          15          16          17          18
    1   1.9999994   1.9999988   1.9999959   1.9999949   1.9999928   1.9999922
           19          20          21          22          23          24
    1   1.9999878   1.9999870   1.9999841   1.9999575   1.9999506   1.9999346
           25          26          27          28          29          30
    1   1.9999173   1.9996981   1.9995706   1.9991823   1.9986231   1.9882489
           31          32          33          34          35          36
    1   1.9738796   1.4107041   1.2013360   1.0412207   0.9026482   0.6903055
           37          38          39          40          41          42
    1   0.5159280   0.2772472   0.0004552   0.0004491   0.0003882   0.0003077
           43          44          45          46
    1   0.0000601   0.0000187   0.0000181   0.0000123

  Amplitudes : 
  
 | HOLE  | ALPHA      | BETA       | PART  |    AMPLITUDE 
--------------------------------------------------
 |  32   | 1110000000 | 1000100000 |       |    -2.5668246374643E-01
 |  32   | 1101000000 | 1100000000 |       |     5.1092612521259E-01
 |  32   | 1101000000 | 0011000000 |       |    -1.3004038951572E-01
 |  32   | 1100100000 | 1010000000 |       |    -1.7192892184776E-01
 |  32   | 1100100000 | 0101000000 |       |     1.7739791124169E-01
 |  32   | 1011000000 | 1010000000 |       |    -3.4406201427781E-01
 |  32   | 1010100000 | 0011000000 |       |    -1.1366084037853E-01
 |  32   | 1001100000 | 0100010000 |       |    -1.1371896672338E-01
 |  32   | 0111000000 | 1001000000 |       |     2.2927966685622E-01
 |  32   | 0111000000 | 0001100000 |       |     1.0522261989441E-01
 |  32   | 0110100000 | 1000100000 |       |    -1.4379202328291E-01
 |  32   | 0101100000 | 1100000000 |       |     1.7890050201314E-01
 |  32   | 0101100000 | 1000010000 |       |    -1.1012845879475E-01
 |  32   | 0101100000 | 0100100000 |       |     1.6392990650370E-01
 |  32   | 0101010000 | 0100010000 |       |     1.7484759135641E-01
 |  32   | 0011010000 | 0010010000 |       |    -1.0610234366807E-01
--------------------------------------------------
*** Contributions RASCI wfn    Active:   0.00
                                 Hole:  99.99
                                 Part:   0.01

      Mulliken population analysis 
 ---------------------------------------------------
   Atom    Charge (a.u.)   Spin (a.u.)  
 ---------------------------------------------------
   1  C    0.136744       -0.041594 
   2  C    0.136744       -0.041594 
   3  C   -0.173456        0.444603 
   4  C    0.046804        0.059943 
   5  C    0.046804        0.059943 
   6  C   -0.173456        0.444603 
   7  C   -0.173456        0.444603 
   8  C   -0.173456        0.444603 
   9  C    0.046804        0.059943 
  10  C    0.046804        0.059943 
  11  H    0.038874        0.005432 
  12  H    0.019407        0.010820 
  13  H    0.019407        0.010820 
  14  H    0.038874        0.005432 
  15  H    0.038874        0.005432 
  16  H    0.019407        0.010820 
  17  H    0.019407        0.010820 
  18  H    0.038874        0.005432 
 ---------------------------------------------------
   Sum:    0.000000        2.000000 
 ---------------------------------------------------
 
  
 NATURAL OCCUPATION NUMBERS (higher than 1.0E-05)
            1           2           3           4           5           6
    1   2.0000000   2.0000000   2.0000000   2.0000000   2.0000000   2.0000000
            7           8           9          10          11          12
    1   2.0000000   2.0000000   2.0000000   2.0000000   1.9999998   1.9999996
           13          14          15          16          17          18
    1   1.9999994   1.9999988   1.9999959   1.9999949   1.9999928   1.9999922
           19          20          21          22          23          24
    1   1.9999878   1.9999870   1.9999841   1.9999575   1.9999506   1.9999346
           25          26          27          28          29          30
    1   1.9999173   1.9996981   1.9995706   1.9991823   1.9986231   1.9882489
           31          32          33          34          35          36
    1   1.9738796   1.4107041   1.2013360   1.0412207   0.9026482   0.6903055
           37          38          39          40          41          42
    1   0.5159280   0.2772472   0.0004552   0.0004491   0.0003882   0.0003077
           43          44          45          46
    1   0.0000601   0.0000187   0.0000181   0.0000123
  
*** Unpaired Electrons
 Yamaguchi Nd:         6.01
 Head-Gordon Nu:       4.78
 Head-Gordon Nu_nl:    5.22
  
**************************************************
 RAS-CI total energy for state   4:   -380.002538123514
  Excitation energy (eV) =  0.126290944327
  State symmetry: B2g   (D2h      )
  <S^2>      :  2.0000
  Dipole Moment:   -0.0000 X     0.0000 Y    -0.0000 Z
  Trans. Moment:    0.0000 X    -0.0000 Y    -0.0000 Z
  Strength   :  0.000000
  Natural transition orbitals ( 1 -> 4 ):
   e-/hole pair  1 alpha:  ampl =  0.244052 (  6.0%)   [10 : 11]
   e-/hole pair  2 alpha:  ampl =  0.233550 (  5.5%)   [9 : 12]
   e-/hole pair  1 beta :  ampl =  0.244057 (  6.0%)   [10 : 11]
   e-/hole pair  2 beta :  ampl =  0.233547 (  5.5%)   [9 : 12]
   Sum of square amplitudes: 0.39

 NATURAL OCCUPATION NUMBERS (higher than 1.0E-05)
            1           2           3           4           5           6
    1   2.0000000   2.0000000   2.0000000   2.0000000   2.0000000   2.0000000
            7           8           9          10          11          12
    1   2.0000000   2.0000000   2.0000000   2.0000000   1.9999998   1.9999995
           13          14          15          16          17          18
    1   1.9999993   1.9999987   1.9999953   1.9999952   1.9999937   1.9999936
           19          20          21          22          23          24
    1   1.9999908   1.9999873   1.9999723   1.9999644   1.9999448   1.9999282
           25          26          27          28          29          30
    1   1.9999207   1.9997450   1.9995471   1.9992043   1.9986431   1.9893430
           31          32          33          34          35          36
    1   1.9753328   1.3066939   1.0385919   1.0278904   1.0186967   0.9664398
           37          38          39          40          41          42
    1   0.4276748   0.2506887   0.0005845   0.0004940   0.0003426   0.0003129
           43          44          45          46
    1   0.0000440   0.0000161   0.0000125   0.0000118

  Amplitudes : 
  
 | HOLE  | ALPHA      | BETA       | PART  |    AMPLITUDE 
--------------------------------------------------
 |  32   | 1110000000 | 1010000000 |       |     4.2121003876744E-01
 |  32   | 1110000000 | 0101000000 |       |     1.4463053115314E-01
 |  32   | 1101000000 | 1001000000 |       |    -3.9689822055617E-01
 |  32   | 1101000000 | 0110000000 |       |    -1.6601552571880E-01
 |  32   | 1011000000 | 1000100000 |       |     2.6710836699987E-01
 |  32   | 1011000000 | 0100010000 |       |     1.0157991457446E-01
 |  32   | 1010100000 | 1001000000 |       |     1.3844943433188E-01
 |  32   | 1010100000 | 0010010000 |       |    -1.1017372148155E-01
 |  32   | 1010010000 | 0010100000 |       |    -1.0413607212175E-01
 |  32   | 1001100000 | 1010000000 |       |    -1.2705724564939E-01
 |  32   | 1001100000 | 0001010000 |       |     1.0054103578114E-01
 |  32   | 0111000000 | 1100000000 |       |    -3.4717421284523E-01
 |  32   | 0111000000 | 0100100000 |       |    -2.0232786011539E-01
 |  32   | 0110100000 | 0010100000 |       |     1.2482590695813E-01
 |  32   | 0110010000 | 0010010000 |       |     1.3669887168288E-01
 |  32   | 0101100000 | 0110000000 |       |     1.0010410619690E-01
 |  32   | 0101100000 | 0001100000 |       |    -1.2493368397883E-01
 |  32   | 0101010000 | 0001010000 |       |    -1.2960730739552E-01
 |  32   | 0011100000 | 1000100000 |       |     1.4004581918477E-01
 |  32   | 0011010000 | 1000010000 |       |     1.1495617205039E-01
--------------------------------------------------
*** Contributions RASCI wfn    Active:   0.00
                                 Hole:  99.99
                                 Part:   0.01

      Mulliken population analysis 
 ---------------------------------------------------
   Atom    Charge (a.u.)   Spin (a.u.)  
 ---------------------------------------------------
   1  C    0.155735        0.016700 
   2  C    0.155735        0.016700 
   3  C   -0.182774        0.416554 
   4  C    0.046388        0.058694 
   5  C    0.046388        0.058694 
   6  C   -0.182774        0.416554 
   7  C   -0.182774        0.416554 
   8  C   -0.182774        0.416554 
   9  C    0.046388        0.058694 
  10  C    0.046388        0.058694 
  11  H    0.039018        0.005530 
  12  H    0.019500        0.010872 
  13  H    0.019500        0.010872 
  14  H    0.039018        0.005530 
  15  H    0.039018        0.005530 
  16  H    0.019500        0.010872 
  17  H    0.019500        0.010872 
  18  H    0.039018        0.005530 
 ---------------------------------------------------
   Sum:    0.000000        2.000000 
 ---------------------------------------------------
 
  
 NATURAL OCCUPATION NUMBERS (higher than 1.0E-05)
            1           2           3           4           5           6
    1   2.0000000   2.0000000   2.0000000   2.0000000   2.0000000   2.0000000
            7           8           9          10          11          12
    1   2.0000000   2.0000000   2.0000000   2.0000000   1.9999998   1.9999995
           13          14          15          16          17          18
    1   1.9999993   1.9999987   1.9999953   1.9999952   1.9999937   1.9999936
           19          20          21          22          23          24
    1   1.9999908   1.9999873   1.9999723   1.9999644   1.9999448   1.9999282
           25          26          27          28          29          30
    1   1.9999207   1.9997450   1.9995471   1.9992043   1.9986431   1.9893430
           31          32          33          34          35          36
    1   1.9753328   1.3066939   1.0385919   1.0278904   1.0186967   0.9664398
           37          38          39          40          41          42
    1   0.4276748   0.2506887   0.0005845   0.0004940   0.0003426   0.0003129
           43          44          45          46
    1   0.0000440   0.0000161   0.0000125   0.0000118
  
*** Unpaired Electrons
 Yamaguchi Nd:         6.09
 Head-Gordon Nu:       5.29
 Head-Gordon Nu_nl:    5.46
  
**************************************************
 RAS-CI total energy for state   5:   -380.001974117491
  Excitation energy (eV) =  0.141638329061
  State symmetry: Au    (D2h      )
  <S^2>      :  2.0000
  Dipole Moment:    0.0000 X    -0.0000 Y    -0.0000 Z
  Trans. Moment:    0.0000 X    -0.0000 Y     0.0000 Z
  Strength   :  0.000000
  Natural transition orbitals ( 1 -> 5 ):
   e-/hole pair  1 alpha:  ampl =  0.084790 (  0.7%)   [10 : 11]
   e-/hole pair  2 alpha:  ampl =  0.081350 (  0.7%)   [9 : 12]
   e-/hole pair  1 beta :  ampl =  0.084790 (  0.7%)   [10 : 11]
   e-/hole pair  2 beta :  ampl =  0.081350 (  0.7%)   [9 : 12]
   Sum of square amplitudes: 0.03

 NATURAL OCCUPATION NUMBERS (higher than 1.0E-05)
            1           2           3           4           5           6
    1   2.0000000   2.0000000   2.0000000   2.0000000   2.0000000   2.0000000
            7           8           9          10          11          12
    1   2.0000000   2.0000000   2.0000000   2.0000000   1.9999998   1.9999998
           13          14          15          16          17          18
    1   1.9999997   1.9999985   1.9999962   1.9999949   1.9999938   1.9999906
           19          20          21          22          23          24
    1   1.9999871   1.9999777   1.9999692   1.9999489   1.9999436   1.9999237
           25          26          27          28          29          30
    1   1.9998841   1.9997037   1.9996275   1.9991424   1.9986868   1.9874533
           31          32          33          34          35          36
    1   1.9728815   1.3212746   1.2496716   1.0429877   0.7859015   0.7512133
           37          38          39          40          41          42
    1   0.6585651   0.2312877   0.0006746   0.0005474   0.0003902   0.0002927
           43          44
    1   0.0000577   0.0000231

  Amplitudes : 
  
 | HOLE  | ALPHA      | BETA       | PART  |    AMPLITUDE 
--------------------------------------------------
 |  32   | 1110000000 | 1001000000 |       |    -2.1339357712211E-01
 |  32   | 1110000000 | 0110000000 |       |     2.7580409589812E-01
 |  32   | 1101000000 | 1010000000 |       |    -2.2333522374364E-01
 |  32   | 1101000000 | 0101000000 |       |     1.8861624933085E-01
 |  32   | 1101000000 | 0010100000 |       |     1.1656004248346E-01
 |  32   | 1100100000 | 1100000000 |       |     4.2660779923883E-01
 |  32   | 1100100000 | 1000010000 |       |     1.1972317479106E-01
 |  32   | 1100100000 | 0100100000 |       |    -2.9321673147422E-01
 |  32   | 1100000100 | 1100000000 |       |    -1.0277824709614E-01
 |  32   | 1011000000 | 0011000000 |       |    -2.7083341658657E-01
 |  32   | 1010100000 | 1010000000 |       |    -1.7390741265895E-01
 |  32   | 1010100000 | 0101000000 |       |     1.8283439623284E-01
 |  32   | 1001100000 | 1001000000 |       |    -1.7818609138185E-01
 |  32   | 1001100000 | 0110000000 |       |     1.6671918963480E-01
 |  32   | 0100110000 | 1000100000 |       |    -1.0666402478911E-01
 |  32   | 0100110000 | 0100010000 |       |     1.2019338480535E-01
 |  32   | 0011100000 | 0011000000 |       |     1.3660424147172E-01
--------------------------------------------------
*** Contributions RASCI wfn    Active:   0.00
                                 Hole:  99.99
                                 Part:   0.01

      Mulliken population analysis 
 ---------------------------------------------------
   Atom    Charge (a.u.)   Spin (a.u.)  
 ---------------------------------------------------
   1  C    0.131786        0.559168 
   2  C    0.131786        0.559168 
   3  C   -0.169980        0.146592 
   4  C    0.045963        0.057766 
   5  C    0.045963        0.057766 
   6  C   -0.169980        0.146592 
   7  C   -0.169980        0.146592 
   8  C   -0.169980        0.146592 
   9  C    0.045963        0.057766 
  10  C    0.045963        0.057766 
  11  H    0.038697        0.005200 
  12  H    0.019427        0.010858 
  13  H    0.019427        0.010858 
  14  H    0.038697        0.005200 
  15  H    0.038697        0.005200 
  16  H    0.019427        0.010858 
  17  H    0.019427        0.010858 
  18  H    0.038697        0.005200 
 ---------------------------------------------------
   Sum:    0.000000        2.000000 
 ---------------------------------------------------
 
  
 NATURAL OCCUPATION NUMBERS (higher than 1.0E-05)
            1           2           3           4           5           6
    1   2.0000000   2.0000000   2.0000000   2.0000000   2.0000000   2.0000000
            7           8           9          10          11          12
    1   2.0000000   2.0000000   2.0000000   2.0000000   1.9999998   1.9999998
           13          14          15          16          17          18
    1   1.9999997   1.9999985   1.9999962   1.9999949   1.9999938   1.9999906
           19          20          21          22          23          24
    1   1.9999871   1.9999777   1.9999692   1.9999489   1.9999436   1.9999237
           25          26          27          28          29          30
    1   1.9998841   1.9997037   1.9996275   1.9991424   1.9986868   1.9874533
           31          32          33          34          35          36
    1   1.9728815   1.3212746   1.2496716   1.0429877   0.7859015   0.7512133
           37          38          39          40          41          42
    1   0.6585651   0.2312877   0.0006746   0.0005474   0.0003902   0.0002927
           43          44
    1   0.0000577   0.0000231
  
*** Unpaired Electrons
 Yamaguchi Nd:         6.11
 Head-Gordon Nu:       4.86
 Head-Gordon Nu_nl:    5.42
  
**************************************************
 RAS-CI total energy for state   6:   -380.001895620104
  Excitation energy (eV) =  0.143774351643
  State symmetry: B2g   (D2h      )
  <S^2>      :  6.0000
  Dipole Moment:   -0.0000 X    -0.0000 Y    -0.0000 Z
  Trans. Moment:    0.0000 X     0.5513 Y    -0.0000 Z
  Strength   :  0.001071
  Natural transition orbitals ( 1 -> 6 ):
   e-/hole pair  1 alpha:  ampl =  0.157849 (  2.5%)   [10 : 11]
   e-/hole pair  2 alpha:  ampl =  0.136420 (  1.9%)   [9 : 12]
   e-/hole pair  1 beta :  ampl =  0.215842 (  4.7%)   [10 : 11]
   e-/hole pair  2 beta :  ampl =  0.074147 (  0.5%)   [9 : 12]
   Sum of square amplitudes: 0.11

 NATURAL OCCUPATION NUMBERS (higher than 1.0E-05)
            1           2           3           4           5           6
    1   2.0000000   2.0000000   2.0000000   2.0000000   2.0000000   2.0000000
            7           8           9          10          11          12
    1   2.0000000   2.0000000   2.0000000   2.0000000   1.9999999   1.9999997
           13          14          15          16          17          18
    1   1.9999997   1.9999995   1.9999980   1.9999976   1.9999963   1.9999958
           19          20          21          22          23          24
    1   1.9999931   1.9999930   1.9999841   1.9999743   1.9999474   1.9999338
           25          26          27          28          29          30
    1   1.9999234   1.9997691   1.9996180   1.9992526   1.9986807   1.9884621
           31          32          33          34          35          36
    1   1.9736572   1.1119860   1.0408617   1.0375687   1.0090771   0.9764302
           37          38          39          40          41          42
    1   0.7122709   0.1508868   0.0005707   0.0004866   0.0003571   0.0002921
           43
    1   0.0000212

  Amplitudes : 
  
 | HOLE  | ALPHA      | BETA       | PART  |    AMPLITUDE 
--------------------------------------------------
 |  32   | 1011100000 | 1000000000 |       |    -1.5040245898438E-01
 |  32   | 1111000000 | 0100000000 |       |     2.3946532715441E-01
 |  32   | 0111100000 | 0100000000 |       |     1.1938486101043E-01
 |  32   | 1110100000 | 0010000000 |       |    -2.2654851893857E-01
 |  32   | 1101100000 | 0001000000 |       |     2.1904619539969E-01
 |  32   | 1110000000 | 0101000000 |       |    -2.3946503649507E-01
 |  32   | 1110000000 | 0010100000 |       |     2.2654604577882E-01
 |  32   | 1101000000 | 0110000000 |       |     2.3946478750076E-01
 |  32   | 1101000000 | 0001100000 |       |    -2.1904118013550E-01
 |  32   | 1011000000 | 1000100000 |       |     1.5040987230715E-01
 |  32   | 1010100000 | 1001000000 |       |    -1.5040375420883E-01
 |  32   | 1010100000 | 0110000000 |       |    -2.2654097761970E-01
 |  32   | 1001100000 | 1010000000 |       |     1.5041090472995E-01
 |  32   | 1001100000 | 0101000000 |       |     2.1903940793520E-01
 |  32   | 0111000000 | 1100000000 |       |    -2.3946748830496E-01
 |  32   | 0111000000 | 0100100000 |       |    -1.1938621883696E-01
 |  32   | 0110100000 | 1010000000 |       |     2.2655081649798E-01
 |  32   | 0110100000 | 0101000000 |       |     1.1938031961014E-01
 |  32   | 0101100000 | 1001000000 |       |    -2.1905165850341E-01
 |  32   | 0101100000 | 0110000000 |       |    -1.1938262376636E-01
--------------------------------------------------
*** Contributions RASCI wfn    Active:   0.00
                                 Hole: 100.00
                                 Part:   0.00

      Mulliken population analysis 
 ---------------------------------------------------
   Atom    Charge (a.u.)   Spin (a.u.)  
 ---------------------------------------------------
   1  C    0.163349        0.348168 
   2  C    0.163349        0.348168 
   3  C   -0.185901        0.287389 
   4  C    0.046113        0.030450 
   5  C    0.046113        0.030450 
   6  C   -0.185901        0.287389 
   7  C   -0.185901        0.287389 
   8  C   -0.185901        0.287389 
   9  C    0.046113        0.030450 
  10  C    0.046113        0.030450 
  11  H    0.038773        0.002695 
  12  H    0.019340        0.005383 
  13  H    0.019340        0.005383 
  14  H    0.038773        0.002695 
  15  H    0.038773        0.002695 
  16  H    0.019340        0.005383 
  17  H    0.019340        0.005383 
  18  H    0.038773        0.002695 
 ---------------------------------------------------
   Sum:    0.000000        2.000000 
 ---------------------------------------------------
 
  
 NATURAL OCCUPATION NUMBERS (higher than 1.0E-05)
            1           2           3           4           5           6
    1   2.0000000   2.0000000   2.0000000   2.0000000   2.0000000   2.0000000
            7           8           9          10          11          12
    1   2.0000000   2.0000000   2.0000000   2.0000000   1.9999999   1.9999997
           13          14          15          16          17          18
    1   1.9999997   1.9999995   1.9999980   1.9999976   1.9999963   1.9999958
           19          20          21          22          23          24
    1   1.9999931   1.9999930   1.9999841   1.9999743   1.9999474   1.9999338
           25          26          27          28          29          30
    1   1.9999234   1.9997691   1.9996180   1.9992526   1.9986807   1.9884621
           31          32          33          34          35          36
    1   1.9736572   1.1119860   1.0408617   1.0375687   1.0090771   0.9764302
           37          38          39          40          41          42
    1   0.7122709   0.1508868   0.0005707   0.0004866   0.0003571   0.0002921
           43
    1   0.0000212
  
*** Unpaired Electrons
 Yamaguchi Nd:         6.26
 Head-Gordon Nu:       5.68
 Head-Gordon Nu_nl:    5.89
  
**************************************************
 RAS-CI total energy for state   7:   -379.999741265330
  Excitation energy (eV) =  0.202397327671
  State symmetry: Au    (D2h      )
  <S^2>      :  2.0000
  Dipole Moment:    0.0000 X     0.0000 Y    -0.0000 Z
  Trans. Moment:   -0.0000 X    -0.0000 Y    -0.0000 Z
  Strength   :  0.000000
  Natural transition orbitals ( 1 -> 7 ):
   e-/hole pair  1 alpha:  ampl =  0.062057 (  0.4%)   [10 : 11]
   e-/hole pair  2 alpha:  ampl =  0.041725 (  0.2%)   [9 : 12]
   e-/hole pair  1 beta :  ampl =  0.062057 (  0.4%)   [10 : 11]
   e-/hole pair  2 beta :  ampl =  0.041725 (  0.2%)   [9 : 12]
   Sum of square amplitudes: 0.01

 NATURAL OCCUPATION NUMBERS (higher than 1.0E-05)
            1           2           3           4           5           6
    1   2.0000000   2.0000000   2.0000000   2.0000000   2.0000000   2.0000000
            7           8           9          10          11          12
    1   2.0000000   2.0000000   2.0000000   2.0000000   1.9999998   1.9999997
           13          14          15          16          17          18
    1   1.9999997   1.9999987   1.9999970   1.9999947   1.9999930   1.9999924
           19          20          21          22          23          24
    1   1.9999876   1.9999863   1.9999753   1.9999608   1.9999417   1.9999291
           25          26          27          28          29          30
    1   1.9999128   1.9997531   1.9995970   1.9992588   1.9987002   1.9885131
           31          32          33          34          35          36
    1   1.9728919   1.1191408   1.1083000   1.0416867   0.9939447   0.9886773
           37          38          39          40          41          42
    1   0.5860708   0.2020587   0.0005499   0.0004599   0.0003604   0.0002988
           43          44
    1   0.0000401   0.0000138

  Amplitudes : 
  
 | HOLE  | ALPHA      | BETA       | PART  |    AMPLITUDE 
--------------------------------------------------
 |  32   | 1110000000 | 1001000000 |       |    -1.1410527089069E-01
 |  32   | 1110000000 | 0110000000 |       |    -3.6460502721744E-01
 |  32   | 1101000000 | 0101000000 |       |     3.9373099617945E-01
 |  32   | 1100100000 | 0011000000 |       |    -2.5511986647643E-01
 |  32   | 1011000000 | 1100000000 |       |     2.1796103746813E-01
 |  32   | 1011000000 | 0100100000 |       |    -1.2737778241782E-01
 |  32   | 1010100000 | 1010000000 |       |    -2.9650136397808E-01
 |  32   | 1010100000 | 0010100000 |       |     1.5290892623638E-01
 |  32   | 1010010000 | 0010010000 |       |     1.3247958873696E-01
 |  32   | 1001100000 | 1001000000 |       |     2.5576323846708E-01
 |  32   | 1001100000 | 0110000000 |       |     1.0945894401300E-01
 |  32   | 1001100000 | 0001100000 |       |    -1.4717867318311E-01
 |  32   | 1001010000 | 0001010000 |       |    -1.2286021140513E-01
 |  32   | 0110100000 | 0110000000 |       |     2.0696267983831E-01
 |  32   | 0110010000 | 1010000000 |       |    -1.1225574244050E-01
 |  32   | 0101100000 | 0101000000 |       |    -2.1381978789075E-01
 |  32   | 0101010000 | 1001000000 |       |     1.1712221193468E-01
--------------------------------------------------
*** Contributions RASCI wfn    Active:   0.00
                                 Hole:  99.99
                                 Part:   0.01

      Mulliken population analysis 
 ---------------------------------------------------
   Atom    Charge (a.u.)   Spin (a.u.)  
 ---------------------------------------------------
   1  C    0.159353        0.578013 
   2  C    0.159353        0.578013 
   3  C   -0.184400        0.137885 
   4  C    0.046374        0.056918 
   5  C    0.046374        0.056918 
   6  C   -0.184400        0.137885 
   7  C   -0.184400        0.137885 
   8  C   -0.184400        0.137885 
   9  C    0.046374        0.056918 
  10  C    0.046374        0.056918 
  11  H    0.038869        0.005334 
  12  H    0.019480        0.010856 
  13  H    0.019480        0.010856 
  14  H    0.038869        0.005334 
  15  H    0.038869        0.005334 
  16  H    0.019480        0.010856 
  17  H    0.019480        0.010856 
  18  H    0.038869        0.005334 
 ---------------------------------------------------
   Sum:    0.000000        2.000000 
 ---------------------------------------------------
 
  
 NATURAL OCCUPATION NUMBERS (higher than 1.0E-05)
            1           2           3           4           5           6
    1   2.0000000   2.0000000   2.0000000   2.0000000   2.0000000   2.0000000
            7           8           9          10          11          12
    1   2.0000000   2.0000000   2.0000000   2.0000000   1.9999998   1.9999997
           13          14          15          16          17          18
    1   1.9999997   1.9999987   1.9999970   1.9999947   1.9999930   1.9999924
           19          20          21          22          23          24
    1   1.9999876   1.9999863   1.9999753   1.9999608   1.9999417   1.9999291
           25          26          27          28          29          30
    1   1.9999128   1.9997531   1.9995970   1.9992588   1.9987002   1.9885131
           31          32          33          34          35          36
    1   1.9728919   1.1191408   1.1083000   1.0416867   0.9939447   0.9886773
           37          38          39          40          41          42
    1   0.5860708   0.2020587   0.0005499   0.0004599   0.0003604   0.0002988
           43          44
    1   0.0000401   0.0000138
  
*** Unpaired Electrons
 Yamaguchi Nd:         6.25
 Head-Gordon Nu:       5.54
 Head-Gordon Nu_nl:    5.77
  
**************************************************
 RAS-CI total energy for state   8:   -379.993102657987
  Excitation energy (eV) =  0.383043024440
  State symmetry: Au    (D2h      )
  <S^2>      :  2.0000
  Dipole Moment:    0.0000 X     0.0000 Y    -0.0000 Z
  Trans. Moment:   -0.0000 X    -0.0000 Y    -0.0000 Z
  Strength   :  0.000000
  Natural transition orbitals ( 1 -> 8 ):
   e-/hole pair  1 alpha:  ampl =  0.405398 ( 16.4%)   [10 : 11]
   e-/hole pair  2 alpha:  ampl =  0.137504 (  1.9%)   [9 : 12]
   e-/hole pair  1 beta :  ampl =  0.405398 ( 16.4%)   [10 : 11]
   e-/hole pair  2 beta :  ampl =  0.137504 (  1.9%)   [9 : 12]
   Sum of square amplitudes: 0.44

 NATURAL OCCUPATION NUMBERS (higher than 1.0E-05)
            1           2           3           4           5           6
    1   2.0000000   2.0000000   2.0000000   2.0000000   2.0000000   2.0000000
            7           8           9          10          11          12
    1   2.0000000   2.0000000   2.0000000   2.0000000   1.9999998   1.9999996
           13          14          15          16          17          18
    1   1.9999995   1.9999968   1.9999880   1.9999874   1.9999852   1.9999838
           19          20          21          22          23          24
    1   1.9999800   1.9999658   1.9999654   1.9999412   1.9999346   1.9999025
           25          26          27          28          29          30
    1   1.9998762   1.9996996   1.9996286   1.9992862   1.9987743   1.9896909
           31          32          33          34          35          36
    1   1.9693280   1.4120890   1.0442606   0.9943457   0.9936241   0.9280876
           37          38          39          40          41          42
    1   0.3849226   0.2846267   0.0006163   0.0005967   0.0003956   0.0003480
           43          44          45          46
    1   0.0001024   0.0000312   0.0000186   0.0000126

  Amplitudes : 
  
 | HOLE  | ALPHA      | BETA       | PART  |    AMPLITUDE 
--------------------------------------------------
 |  32   | 1111000000 | 1000000000 |       |     6.2110500799894E-01
 |  32   | 1011010000 | 1000000000 |       |     1.1096576011177E-01
 |  32   | 0111100000 | 1000000000 |       |    -2.0799176927249E-01
 |  32   | 0111010000 | 0100000000 |       |    -1.3057983355831E-01
 |  32   | 1101100000 | 0010000000 |       |     1.6239455206052E-01
 |  32   | 1110100000 | 0001000000 |       |    -1.5580113158490E-01
 |  32   | 1111000000 | 0000100000 |       |    -1.1665625358067E-01
 |  32   | 1011010000 | 0000100000 |       |    -1.2268969763946E-01
 |  32   | 0111100000 | 0000100000 |       |     1.8625155678276E-01
 |  32   | 1011100000 | 0000010000 |       |    -1.7403486231310E-01
 |  32   | 0111010000 | 0000010000 |       |     2.0572003260525E-01
 |  32   | 1110000000 | 1001000000 |       |     1.9964095944927E-01
[...]
    43   -2.756936157901e-02
    44   -7.850679381141e-15
    45    4.498388024143e-12
    46    1.558071995688e-16
    47    2.818999052600e-12
    48    8.871378987871e-15
    49   -9.049663662067e-17
    50    6.996510152414e-04
    51   -5.154431720329e-16
    52    3.956937062234e-11
    53    2.792989981224e-13
    54   -3.482791396104e-16
    55    2.551077174460e-04
    56   -2.448437173358e-14
    57    1.457587776584e-05
    58   -1.121790518614e-17
    59    5.638097731077e-14
    60    2.600286033717e-12
    61   -6.372521630556e-04
    62    5.031161881832e-17
    63   -1.712233017825e-03
    64   -3.812148951427e-03
    65    5.063082312560e-03
    66    1.844912772810e-02
    67   -3.305147320015e-04
    68    4.661596229162e-02
    69   -6.269349734719e-02
    70   -6.699427545662e-10
    71    4.250116674158e-02
    72   -5.607041732321e-02
    73   -6.442947147133e-10
    74    7.447979072773e-02
    75   -1.134657213228e-01
    76   -5.546570836860e-10
    77   -4.957789578530e-05
    78    1.272748803472e-12
    79    3.837434293686e-12
    80   -1.017611950807e-04
    81   -1.405170980610e-03
    82    2.213475232465e-04
    83   -7.098070040825e-12
    84   -7.626452537335e-12
    85   -2.711589759446e-03
    86   -4.708113468359e-03
    87   -5.037849136805e-12
    88    2.180710999738e-04
    89   -3.029383467280e-04
    90   -2.950308819003e-12
    91    2.398931025867e-15
    92    3.465901918330e-04
    93   -2.656396680377e-04
    94    6.253535644052e-04
    95    1.491247623119e-03
    96   -2.720598482614e-03
    97    9.504948099295e-03
    98   -2.798456740355e-02
    99    1.481060271220e-01
   100    1.053631122212e-01
   101   -8.223064287387e-11
   102    1.343873411799e-01
   103    9.515806481234e-02
   104   -7.282549877145e-11
   105    2.588086591967e-01
   106    1.991703412639e-01
   107   -1.008741395105e-10
   108    5.043075795265e-04
   109   -7.521646042558e-13
   110    4.766781750985e-13
   111    1.131385355705e-03
   112    1.044223217965e-03
   113    2.511016273081e-03
   114   -8.243751319476e-12
   115    2.230287181017e-12
   116    8.947374220220e-04
   117   -2.173461803325e-03
   118   -2.854600690916e-13
   119    1.756326923728e-03
   120    1.196947931756e-03
   121   -2.610047613184e-13
   122    6.878763166012e-13
   123   -1.009309231389e-04
   124    2.751942588061e-04
   125   -6.253535644052e-04
   126   -1.491247623119e-03
   127    2.720598482612e-03
   128   -9.504948099291e-03
   129    2.798456740356e-02
   130   -1.481060271220e-01
   131    1.053631122212e-01
   132   -8.085855884824e-11
   133   -1.343873411799e-01
   134    9.515806481234e-02
   135   -7.151685875131e-11
   136   -2.588086591967e-01
   137    1.991703412639e-01
   138   -9.916922556444e-11
   139   -5.043075795265e-04
   140   -7.385884556117e-13
   141   -4.575925472098e-13
   142   -1.131385355705e-03
   143    1.044223217965e-03
   144   -2.511016273080e-03
   145   -8.170413596441e-12
   146   -2.159159123468e-12
   147   -8.947374220223e-04
   148   -2.173461803326e-03
   149   -2.739668332011e-13
   150   -1.756326923728e-03
   151    1.196947931756e-03
   152   -2.527686556657e-13
   153   -6.781727971351e-13
   154    1.009309231388e-04
   155    2.751942588061e-04
   156    1.712233017825e-03
   157    3.812148951426e-03
   158   -5.063082312559e-03
   159   -1.844912772809e-02
   160    3.305147319985e-04
   161   -4.661596229160e-02
   162   -6.269349734717e-02
   163   -6.600459936265e-10
   164   -4.250116674156e-02
   165   -5.607041732320e-02
   166   -6.346324953190e-10
   167   -7.447979072769e-02
   168   -1.134657213228e-01
   169   -5.471445406505e-10
   170    4.957789578540e-05
   171    1.280371058634e-12
   172   -3.801677256861e-12
   173    1.017611950808e-04
   174   -1.405170980610e-03
   175   -2.213475232463e-04
   176   -6.721655580995e-12
   177    7.446490817714e-12
   178    2.711589759446e-03
   179   -4.708113468358e-03
   180   -4.976076189269e-12
   181   -2.180710999737e-04
   182   -3.029383467279e-04
   183   -2.885241772310e-12
   184   -1.971741127956e-14
   185   -3.465901918327e-04
   186   -2.656396680377e-04
   187   -1.712233017825e-03
   188   -3.812148951426e-03
   189    5.063082312557e-03
   190    1.844912772810e-02
   191   -3.305147320090e-04
   192   -4.661596229161e-02
   193    6.269349734719e-02
   194    6.699423908316e-10
   195   -4.250116674156e-02
   196    5.607041732321e-02
   197    6.442944522002e-10
   198   -7.447979072772e-02
   199    1.134657213229e-01
   200    5.546564270637e-10
   201   -4.957789578553e-05
   202    1.272736372528e-12
   203    3.837450921059e-12
   204   -1.017611950808e-04
   205   -1.405170980610e-03
   206    2.213475232469e-04
   207   -7.098078414103e-12
   208   -7.626521924660e-12
   209   -2.711589759446e-03
   210   -4.708113468357e-03
   211    5.037827130892e-12
   212   -2.180710999737e-04
   213    3.029383467281e-04
   214    2.950340434868e-12
   215   -2.387990288425e-15
   216   -3.465901918327e-04
   217    2.656396680378e-04
   218    1.712233017825e-03
   219    3.812148951427e-03
   220   -5.063082312557e-03
   221   -1.844912772811e-02
   222    3.305147320139e-04
   223    4.661596229161e-02
   224    6.269349734718e-02
   225    6.600455623763e-10
   226    4.250116674156e-02
   227    5.607041732320e-02
   228    6.346320701582e-10
   229    7.447979072772e-02
   230    1.134657213229e-01
   231    5.471439865126e-10
   232    4.957789578546e-05
   233    1.280350800148e-12
   234   -3.801666036487e-12
   235    1.017611950809e-04
   236   -1.405170980610e-03
   237   -2.213475232469e-04
   238   -6.721622690354e-12
   239    7.446538972552e-12
   240    2.711589759445e-03
   241   -4.708113468357e-03
   242    4.976051120750e-12
   243    2.180710999737e-04
   244    3.029383467280e-04
   245    2.885210463755e-12
   246    1.962295544079e-14
   247    3.465901918329e-04
   248    2.656396680378e-04
   249   -6.253535644052e-04
   250   -1.491247623119e-03
   251    2.720598482607e-03
   252   -9.504948099263e-03
   253    2.798456740349e-02
   254    1.481060271220e-01
   255   -1.053631122212e-01
   256    8.086036734630e-11
   257    1.343873411799e-01
   258   -9.515806481235e-02
   259    7.151841923835e-11
   260    2.588086591967e-01
   261   -1.991703412640e-01
   262    9.917185278920e-11
   263   -5.043075795272e-04
   264   -7.385922417929e-13
   265   -4.575798022001e-13
   266   -1.131385355706e-03
   267    1.044223217965e-03
   268   -2.511016273078e-03
   269   -8.170355863969e-12
   270   -2.159124434868e-12
   271   -8.947374220190e-04
   272   -2.173461803327e-03
   273    2.741063131761e-13
   274    1.756326923728e-03
   275   -1.196947931757e-03
   276    2.527818587912e-13
   277    6.782027452426e-13
   278   -1.009309231388e-04
   279   -2.751942588058e-04
   280    6.253535644059e-04
   281    1.491247623120e-03
   282   -2.720598482603e-03
   283    9.504948099238e-03
   284   -2.798456740347e-02
   285   -1.481060271220e-01
   286   -1.053631122212e-01
   287    8.223201812068e-11
   288   -1.343873411799e-01
   289   -9.515806481235e-02
   290    7.282665973528e-11
   291   -2.588086591967e-01
   292   -1.991703412640e-01
   293    1.008761853543e-10
   294    5.043075795269e-04
   295   -7.521764036721e-13
   296    4.766500760419e-13
   297    1.131385355706e-03
   298    1.044223217965e-03
   299    2.511016273078e-03
   300   -8.243761890406e-12
   301    2.230271684031e-12
   302    8.947374220194e-04
   303   -2.173461803325e-03
   304    2.855530487954e-13
   305   -1.756326923728e-03
   306   -1.196947931756e-03
   307    2.610513874735e-13
   308   -6.878825535992e-13
   309    1.009309231391e-04
   310   -2.751942588059e-04
   311    1.815665086752e-02
   312    1.806665805598e-02
   313    1.383456164327e-01
   314    1.541522910603e-03
   315   -2.703401043713e-03
   316    6.956047072452e-12
   317   -5.454644818606e-02
   318   -6.078457024004e-02
   319   -4.047484786526e-01
   320   -6.492629373684e-03
   321    3.243935495814e-03
   322    9.420409624795e-13
   323    5.454644818606e-02
   324    6.078457024005e-02
   325    4.047484786526e-01
   326    6.492629373684e-03
   327    3.243935495815e-03
   328    9.658255555527e-13
   329   -1.815665086752e-02
   330   -1.806665805598e-02
   331   -1.383456164327e-01
   332   -1.541522910603e-03
   333   -2.703401043713e-03
   334    7.050402379479e-12
   335   -1.815665086752e-02
   336   -1.806665805599e-02
   337   -1.383456164327e-01
   338    1.541522910603e-03
   339    2.703401043714e-03
   340   -7.050421060070e-12
   341    5.454644818606e-02
   342    6.078457024004e-02
   343    4.047484786526e-01
   344   -6.492629373684e-03
   345   -3.243935495814e-03
   346   -9.657984342639e-13
   347   -5.454644818605e-02
   348   -6.078457024003e-02
   349   -4.047484786525e-01
   350    6.492629373683e-03
   351   -3.243935495814e-03
   352   -9.420044970953e-13
   353    1.815665086752e-02
   354    1.806665805598e-02
   355    1.383456164327e-01
   356   -1.541522910603e-03
   357    2.703401043713e-03
   358   -6.956086082137e-12
Sym=X
Ene= 0.059691
Spin=Alpha
Occup=0
     1    1.717104913435e-03
     2    4.040004636271e-03
     3   -9.309845468863e-03
     4   -1.974347638848e-03
     5   -3.529764761805e-02
     6   -6.821896961820e-15
     7   -1.411896227645e-02
     8   -1.120476056621e-13
     9   -3.772045789126e-15
    10   -7.975501285024e-03
    11   -1.063710301474e-13
    12   -2.388158446356e-14
    13   -4.243988734006e-02
    14   -1.043304739589e-13
    15   -4.652686018764e-04
    16   -5.225061311304e-13
    17    1.933800575248e-16
    18    4.404989832917e-04
    19   -2.875437574446e-16
    20    3.683705582023e-04
    21   -7.352031789021e-12
    22    6.445167195125e-15
    23    1.702682281481e-03
    24    5.297733205354e-16
    25    5.590321092532e-16
    26    9.518963781334e-17
    27    8.440546205878e-05
    28   -1.308655576022e-15
    29    4.839780080053e-13
    30   -9.173273858919e-17
    31   -2.538925053601e-04
    32   -1.717104913435e-03
    33   -4.040004636271e-03
    34    9.309845468859e-03
    35    1.974347638860e-03
    36    3.529764761804e-02
    37    3.024676039941e-15
    38   -1.411896227645e-02
    39    1.119766165976e-13
    40    7.689454589380e-16
    41   -7.975501285023e-03
    42    1.063599749437e-13
    43    1.272592533790e-14
    44   -4.243988734006e-02
    45    1.041513943786e-13
    46    4.652686018764e-04
    47   -5.225045403206e-13
    48    1.854585048154e-16
    49   -4.404989832916e-04
    50    1.401943067791e-16
    51   -3.683705582019e-04
    52   -7.351989012222e-12
    53    6.453787253149e-15
    54   -1.702682281481e-03
    55    1.262799019469e-16
    56   -5.608614022596e-16
    57   -3.868106092483e-18
    58    8.440546205879e-05
    59    1.309303561028e-15
    60   -4.839753981935e-13
    61    2.624569252199e-17
    62   -2.538925053601e-04
    63    1.557352142192e-03
    64    3.514234465746e-03
    65   -5.420715903714e-03
    66   -1.012700366690e-02
    67   -1.908085069387e-02
    68   -8.466814535035e-03
    69    6.577409551282e-02
    70    1.234936263913e-10
    71   -6.781293296440e-03
    72    5.888158253626e-02
    73    1.188149788226e-10
    74   -2.489798579031e-02
    75    1.164596505042e-01
    76    1.020097370049e-10
    77   -3.585169713441e-05
    78   -2.376007321591e-13
    79   -7.096913398507e-13
    80    3.524025291769e-04
    81    8.082961949826e-04
    82    7.538189081665e-04
    83    1.283164935947e-12
    84    1.405056972564e-12
    85    2.889242027589e-03
    86    2.319853231068e-03
    87    9.340970970869e-13
    88   -1.095784815683e-05
    89    3.227493830294e-04
    90    5.418275174748e-13
    91   -2.304334417003e-15
    92   -2.529404042273e-04
    93    1.741760118100e-04
    94   -3.675409460906e-04
    95   -8.998049098284e-04
    96    1.685637549356e-03
    97   -1.098915119971e-02
    98    2.516400395164e-02
    99   -1.316143642161e-01
   100   -1.366580833044e-01
   101    1.520459852883e-11
   102   -1.195365121602e-01
   103   -1.247216149992e-01
   104    1.346898766853e-11
   105   -2.345076326670e-01
   106   -2.458070828033e-01
   107    1.864641529533e-11
   108   -4.542769419056e-04
   109    1.375303066318e-13
   110   -8.618928369249e-14
   111   -1.701812018586e-03
   112   -6.298488346146e-04
   113   -2.772096241894e-03
   114    1.519866641232e-12
   115   -4.014310386142e-13
   116   -1.900877133862e-03
   117    2.653801922462e-03
   118    5.254904108942e-14
   119   -1.524058024953e-03
   120   -1.634752073811e-03
   121    4.741812316049e-14
   122   -1.268546850704e-13
   123    2.641689828611e-04
   124   -2.677919720779e-04
   125    3.675409460907e-04
   126    8.998049098272e-04
   127   -1.685637549353e-03
   128    1.098915119972e-02
   129   -2.516400395165e-02
   130    1.316143642161e-01
   131   -1.366580833044e-01
   132    1.523603869049e-11
   133    1.195365121602e-01
   134   -1.247216149992e-01
   135    1.349898401022e-11
   136    2.345076326670e-01
   137   -2.458070828033e-01
   138    1.868556445638e-11
   139    4.542769419057e-04
   140    1.378723900668e-13
   141    8.662941003510e-14
   142    1.701812018586e-03
   143   -6.298488346145e-04
   144    2.772096241893e-03
   145    1.521487985177e-12
   146    4.030545903657e-13
   147    1.900877133863e-03
   148    2.653801922463e-03
   149    5.282116472610e-14
   150    1.524058024953e-03
   151   -1.634752073811e-03
   152    4.760686176710e-14
   153    1.270739536435e-13
   154   -2.641689828610e-04
   155   -2.677919720779e-04
   156   -1.557352142192e-03
   157   -3.514234465746e-03
   158    5.420715903715e-03
   159    1.012700366689e-02
   160    1.908085069388e-02
   161    8.466814535029e-03
   162    6.577409551281e-02
   163    1.237218043052e-10
   164    6.781293296435e-03
   165    5.888158253625e-02
   166    1.190382208664e-10
   167    2.489798579030e-02
   168    1.164596505042e-01
   169    1.021811371333e-10
   170    3.585169713437e-05
   171   -2.373960049293e-13
   172    7.105405142221e-13
   173   -3.524025291769e-04
   174    8.082961949824e-04
   175   -7.538189081669e-04
   176    1.291916100249e-12
   177   -1.409284614649e-12
   178   -2.889242027589e-03
   179    2.319853231067e-03
   180    9.355364291976e-13
   181    1.095784815687e-05
   182    3.227493830293e-04
   183    5.433391930838e-13
   184    1.907883689187e-15
   185    2.529404042272e-04
   186    1.741760118100e-04
   187   -1.557352142191e-03
   188   -3.514234465745e-03
   189    5.420715903710e-03
   190    1.012700366690e-02
   191    1.908085069386e-02
   192   -8.466814535029e-03
   193    6.577409551281e-02
   194   -1.234935540001e-10
   195   -6.781293296434e-03
   196    5.888158253625e-02
   197   -1.188149406159e-10
   198   -2.489798579030e-02
   199    1.164596505042e-01
   200   -1.020096877744e-10
   201    3.585169713421e-05
   202   -2.375896669139e-13
   203   -7.096877142973e-13
   204   -3.524025291768e-04
   205   -8.082961949825e-04
   206   -7.538189081660e-04
   207    1.283130259120e-12
   208    1.405034127012e-12
   209   -2.889242027589e-03
   210   -2.319853231067e-03
   211   -9.341000546089e-13
   212   -1.095784815680e-05
   213    3.227493830293e-04
   214   -5.418251296735e-13
   215    2.306958362196e-15
   216   -2.529404042272e-04
   217    1.741760118100e-04
   218    1.557352142192e-03
   219    3.514234465745e-03
   220   -5.420715903708e-03
   221   -1.012700366691e-02
   222   -1.908085069384e-02
   223    8.466814535025e-03
   224    6.577409551281e-02
   225   -1.237215415510e-10
   226    6.781293296430e-03
   227    5.888158253625e-02
   228   -1.190378515820e-10
   229    2.489798579029e-02
   230    1.164596505042e-01
   231   -1.021810879915e-10
   232   -3.585169713399e-05
   233   -2.373864760779e-13
   234    7.105361456729e-13
   235    3.524025291768e-04
   236   -8.082961949824e-04
   237    7.538189081653e-04
   238    1.291879091890e-12
   239   -1.409294447789e-12
   240    2.889242027588e-03
   241   -2.319853231067e-03
   242   -9.355426872413e-13
   243    1.095784815683e-05
   244    3.227493830292e-04
   245   -5.433370778885e-13
   246   -1.903105032688e-15
   247    2.529404042271e-04
   248    1.741760118101e-04
   249   -3.675409460905e-04
   250   -8.998049098275e-04
   251    1.685637549347e-03
   252   -1.098915119968e-02
   253    2.516400395156e-02
   254    1.316143642161e-01
   255   -1.366580833044e-01
   256   -1.523704971801e-11
   257    1.195365121602e-01
   258   -1.247216149991e-01
   259   -1.349989993065e-11
   260    2.345076326670e-01
   261   -2.458070828033e-01
   262   -1.868690227307e-11
   263   -4.542769419063e-04
   264    1.378657803660e-13
   265    8.661693206583e-14
   266   -1.701812018586e-03
   267    6.298488346145e-04
   268   -2.772096241889e-03
   269    1.521487710542e-12
   270    4.030533250265e-13
   271   -1.900877133859e-03
   272   -2.653801922463e-03
   273   -5.283473047195e-14
   274    1.524058024953e-03
   275   -1.634752073810e-03
   276   -4.760256957746e-14
   277   -1.270719731280e-13
   278   -2.641689828610e-04
   279   -2.677919720775e-04
   280    3.675409460913e-04
   281    8.998049098281e-04
   282   -1.685637549344e-03
   283    1.098915119966e-02
   284   -2.516400395155e-02
   285   -1.316143642161e-01
   286   -1.366580833044e-01
   287   -1.520421121651e-11
   288   -1.195365121602e-01
   289   -1.247216149991e-01
   290   -1.346846734242e-11
   291   -2.345076326670e-01
   292   -2.458070828033e-01
   293   -1.864620879650e-11
   294    4.542769419063e-04
   295    1.375449539521e-13
   296   -8.618703267034e-14
   297    1.701812018586e-03
   298    6.298488346145e-04
   299    2.772096241890e-03
   300    1.519825863059e-12
   301   -4.014233485834e-13
   302    1.900877133858e-03
   303   -2.653801922461e-03
   304   -5.254449457247e-14
   305   -1.524058024953e-03
   306   -1.634752073810e-03
   307   -4.740717659193e-14
   308    1.268514004718e-13
   309    2.641689828611e-04
   310   -2.677919720776e-04
   311    1.814020750789e-02
   312    1.387947370439e-02
   313    1.488358560010e-01
   314    5.937218332400e-04
   315   -2.776725896609e-03
   316   -1.298858727940e-12
   317   -5.427596851973e-02
   318   -5.984122792925e-02
   319   -4.057203507883e-01
   320   -6.892097405139e-03
   321    2.739871943917e-03
   322   -1.790070930610e-13
   323    5.427596851973e-02
   324    5.984122792927e-02
   325    4.057203507883e-01
   326    6.892097405140e-03
   327    2.739871943917e-03
   328   -1.784319767849e-13
   329   -1.814020750789e-02
   330   -1.387947370439e-02
   331   -1.488358560010e-01
   332   -5.937218332401e-04
   333   -2.776725896609e-03
   334   -1.296695802457e-12
   335    1.814020750789e-02
   336    1.387947370439e-02
   337    1.488358560010e-01
   338   -5.937218332402e-04
   339   -2.776725896610e-03
   340    1.296705640930e-12
   341   -5.427596851974e-02
   342   -5.984122792927e-02
   343   -4.057203507883e-01
   344    6.892097405141e-03
   345    2.739871943917e-03
   346    1.784479432959e-13
   347    5.427596851974e-02
   348    5.984122792926e-02
   349    4.057203507883e-01
   350   -6.892097405141e-03
   351    2.739871943917e-03
   352    1.790013306544e-13
   353   -1.814020750789e-02
   354   -1.387947370439e-02
   355   -1.488358560010e-01
   356    5.937218332401e-04
   357   -2.776725896609e-03
   358    1.298865243354e-12
[5D7F]

======= END OF MOLDEN-FORMATTED INPUT FILE =======


        *************************************************************
        *                                                           *
        *  Thank you very much for using Q-Chem.  Have a nice day.  *
        *                                                           *
        *************************************************************


