                  Welcome to Q-Chem
     A Quantum Leap Into The Future Of Chemistry


 Q-Chem 6.0 (devel), Q-Chem, Inc., Pleasanton, CA (2022)

 E. Epifanovsky,  A. T. B. Gilbert,  Xintian Feng,  Joonho Lee,  Yuezhi Mao,  
 N. Mardirossian,  P. Pokhilko,  A. White,  M. Wormit,  M. P. Coons,  
 A. L. Dempwolff,  Zhengting Gan,  D. Hait,  P. R. Horn,  L. D. Jacobson,  
 I. Kaliman,  J. Kussmann,  A. W. Lange,  Ka Un Lao,  D. S. Levine,  Jie Liu,  
 S. C. McKenzie,  A. F. Morrison,  K. Nanda,  F. Plasser,  D. R. Rehn,  
 M. L. Vidal,  Zhi-Qiang You,  Ying Zhu,  B. Alam,  B. Albrecht,  
 A. Aldossary,  E. Alguire,  J. H. Andersen,  V. Athavale,  D. Barton,  
 K. Begam,  A. Behn,  N. Bellonzi,  Y. A. Bernard,  E. J. Berquist,  
 H. Burton,  A. Carreras,  K. Carter-Fenk,  Romit Chakraborty,  
 Chandrima Chakravarty,  Junhan Chen,  A. D. Chien,  K. D. Closser,  
 V. Cofer-Shabica,  L. Cunha,  S. Dasgupta,  Jia Deng,  M. de Wergifosse,  
 M. Diedenhofen,  Hainam Do,  S. Ehlert,  Po-Tung Fang,  S. Fatehi,  
 Qingguo Feng,  T. Friedhoff,  B. Ganoe,  J. Gayvert,  Qinghui Ge,  
 G. Gidofalvi,  M. Goldey,  J. Gomes,  C. Gonzalez-Espinoza,  S. Gulania,  
 A. Gunina,  J. A. Gyamfi,  M. W. D. Hanson-Heine,  P. H. P. Harbach,  
 A. W. Hauser,  M. F. Herbst,  M. Hernandez Vera,  M. Hodecker,  
 Z. C. Holden,  S. Houck,  Xunkun Huang,  Kerwin Hui,  B. C. Huynh,  
 K. Ikeda,  M. Ivanov,  Hyunjun Ji,  Zuxin Jin,  Hanjie Jiang,  B. Kaduk,  
 S. Kaehler,  R. Kang,  K. Khistyaev,  Jaehoon Kim,  Yongbin Kim,  
 P. Klunzinger,  Z. Koczor-Benda,  Joong Hoon Koh,  D. Kosenkov,  
 Saikiran Kotaru,  L. Koulias,  T. Kowalczyk,  C. M. Krauter,  K. Kue,  
 A. Kunitsa,  T. Kus,  A. Landau,  K. V. Lawler,  D. Lefrancois,  S. Lehtola,  
 Rain Li,  Shaozhi Li,  Yi-Pei Li,  Jiashu Liang,  M. Liebenthal,  
 Hung-Hsuan Lin,  You-Sheng Lin,  Fenglai Liu,  Kuan-Yu Liu,  
 M. Loipersberger,  A. Luenser,  C. Malbon,  A. Manjanath,  P. Manohar,  
 E. Mansoor,  S. F. Manzer,  Shan-Ping Mao,  A. V. Marenich,  T. Markovich,  
 S. Mason,  F. Matz,  S. A. Maurer,  P. F. McLaughlin,  M. F. S. J. Menger,  
 J.-M. Mewes,  S. A. Mewes,  P. Morgante,  Mohammad Mostafanejad,  
 J. W. Mullinax,  K. J. Oosterbaan,  G. Paran,  V. Parravicini,  
 Alexander C. Paul,  Suranjan K. Paul,  F. Pavosevic,  Zheng Pei,  S. Prager,  
 E. I. Proynov,  E. Ramos,  B. Rana,  A. E. Rask,  A. Rettig,  R. M. Richard,  
 F. Rob,  E. Rossomme,  T. Scheele,  M. Scheurer,  M. Schneider,  
 P. E. Schneider,  N. Sergueev,  S. M. Sharada,  Hengyuan Shen,  
 W. Skomorowski,  D. W. Small,  C. J. Stein,  Yingli Su,  Yu-Chuan Su,  
 E. J. Sundstrom,  Zhen Tao,  J. Thirman,  Hung-Yi Tsai,  T. Tsuchimochi,  
 N. M. Tubman,  C. Utku,  S. P. Veccham,  O. Vydrov,  J. Wenzel,  
 Jonathan Wong,  J. Witte,  A. Yamada,  Chou-Hsun Yang,  Kun Yao,  
 S. Yeganeh,  S. R. Yost,  A. Zech,  F. Zeller,  Igor Ying Zhang,  
 Xing Zhang,  Yu Zhang,  D. Zuev,  A. Aspuru-Guzik,  A. T. Bell,  
 N. A. Besley,  K. B. Bravaya,  B. R. Brooks,  D. Casanova,  Jeng-Da Chai,  
 Hsing-Ta Chen,  S. Coriani,  C. J. Cramer,  A. E. DePrince, III,  
 R. A. DiStasio Jr.,  A. Dreuw,  B. D. Dunietz,  T. R. Furlani,  
 W. A. Goddard III,  S. Grimme,  S. Hammes-Schiffer,  T. Head-Gordon,  
 W. J. Hehre,  Chao-Ping Hsu,  T.-C. Jagau,  Yousung Jung,  A. Klamt,  
 Jing Kong,  D. S. Lambrecht,  Xiangyuan Li,  WanZhen Liang,  N. J. Mayhall,  
 C. W. McCurdy,  J. B. Neaton,  T. Neudecker,  C. Ochsenfeld,  
 J. A. Parkhill,  R. Peverati,  V. A. Rassolov,  Haisheng Ren,  Yihan Shao,  
 L. V. Slipchenko,  R. P. Steele,  J. E. Subotnik,  A. J. W. Thom,  
 A. Tkatchenko,  D. G. Truhlar,  T. Van Voorhis,  Fan Wang,  
 T. A. Wesolowski,  K. B. Whaley,  H. L. Woodcock III,  P. M. Zimmerman,  
 S. Faraji,  P. M. W. Gill,  M. Head-Gordon,  J. M. Herbert,  A. I. Krylov

 Contributors to earlier versions of Q-Chem not listed above: 
 R. D. Adamson,  B. Austin,  R. Baer,  J. Baker,  G. J. O. Beran,  
 K. Brandhorst,  S. T. Brown,  E. F. C. Byrd,  Arup K. Chakraborty,  
 G. K. L. Chan,  Chun-Min Chang,  Yunqing Chen,  C.-L. Cheng,  
 Siu Hung Chien,  D. M. Chipman,  D. L. Crittenden,  H. Dachsel,  
 R. J. Doerksen,  A. D. Dutoi,  R. G. Edgar,  J. Fosso-Tande,  
 L. Fusti-Molnar,  D. Ghosh,  A. Ghysels,  A. Golubeva-Zadorozhnaya,  
 J. Gonthier,  M. S. Gordon,  S. R. Gwaltney,  G. Hawkins,  J. E. Herr,  
 A. Heyden,  S. Hirata,  E. G. Hohenstein,  G. Kedziora,  F. J. Keil,  
 C. Kelley,  Jihan Kim,  R. A. King,  R. Z. Khaliullin,  P. P. Korambath,  
 W. Kurlancheek,  A. Laurent,  A. M. Lee,  M. S. Lee,  S. V. Levchenko,  
 Ching Yeh Lin,  D. Liotard,  E. Livshits,  R. C. Lochan,  I. Lotan,  
 L. A. Martinez-Martinez,  P. E. Maslen,  N. Nair,  D. P. O'Neill,  
 D. Neuhauser,  E. Neuscamman,  C. M. Oana,  R. Olivares-Amaya,  R. Olson,  
 T. M. Perrine,  B. Peters,  P. A. Pieniazek,  A. Prociuk,  Y. M. Rhee,  
 J. Ritchie,  M. A. Rohrdanz,  E. Rosta,  N. J. Russ,  H. F. Schaefer III,  
 M. W. Schmidt,  N. E. Schultz,  S. Sharma,  N. Shenvi,  C. D. Sherrill,  
 A. C. Simmonett,  A. Sodt,  T. Stein,  D. Stuck,  K. S. Thanthiriwatte,  
 V. Vanovschi,  L. Vogt,  Tao Wang,  A. Warshel,  M. A. Watson,  
 C. F. Williams,  Q. Wu,  X. Xu,  Jun Yang,  W. Zhang,  Yan Zhao

   Please cite Q-Chem as follows:
  "Software for the frontiers of quantum chemistry:
   An overview of developments in the Q-Chem 5 package"
   J. Chem. Phys. 155, 084801 (2021)
   https://doi.org/10.1063/5.0055522 (open access)

 Q-Chem 6.0.1 for Intel X86 EM64T Linux

 Parts of Q-Chem use Armadillo 9.900.5 (Nocturnal Misbehaviour).
 http://arma.sourceforge.net/

 Q-Chem begins on Sat Nov  4 08:48:15 2023  

 Host: atlas-089
0

     Scratch files written to ./qchem6484//
 Processing $rem in /scratch/abel/SOFTWARE/qchem/config/preferences:
 Processing $rem in /dipc/acebg/.qchemrc:

 Checking the input file for inconsistencies... 	...done.

--------------------------------------------------------------
User input:
--------------------------------------------------------------
$comment
 RAS-SF CALCULATION
$end

$molecule
 READ nbr.molecule
$end

$rem
!**CALCULATION TYPE***     
JOBTYPE            sp    
EXCHANGE           HF
CORRELATION        RASCI    !RASCI=Casanova; RASCI2=Zimmerman
BASIS              def2-TZVP

!***SCF REFERENCE***
!SKIP_SCFMAN        FALSE
UNRESTRICTED       FALSE
!SCF_GUESS          core
!SCF_GUESS_MIX      FALSE
!SCF_GUESS_ALWAYS   FALSE
MAX_SCF_CYCLES     500
!SCF_CONVERGENCE    8
SCF_ALGORITHM      DIIS_GDM !DIIS,DM,DIIS_DM,GDM,DIIS_GDM,GD

!SYMMETRY           TRUE !use of symmetry for calculating integrals
!SYM_IGNORE         FALSE !turn off using symmetry
!SYM_TOL            5 !tolerance for determining point group

!THRESH             14
SCF_FINAL_PRINT     1 !0,1,2,3

!****RAS-SF****
RAS_ROOTS          30       !number of RAS-CI roots to be computed
SET_ITER           150      !number of iterations in RASCI
RAS_ELEC           12       !number of electrons in RAS2
!RAS_ELEC_ALPHA     7       !spin-α electrons in RAS2 
!RAS_ELEC_BETA      5       !spin-β electrons in RAS2

RAS_ACT            9       !number of orbitals in RAS2 
RAS_ACT_ORB   [16,17,18,19,20,21,22,23,24]  !user-selected RAS2 orbitals
RAS_OCC            15       !number of orbitals in RAS1
N_FROZEN_CORE      5     !Number of frozen core orbitals
N_FROZEN_VIRTUAL   45      !Number of frozen virtual orbitals

RAS_DO_HOLE        TRUE   !presence of hole excitations in RAS-CI wave function
RAS_DO_PART        TRUE   !presence of particle excitations
!RAS_AMPL_PRINT     10     !threshold (×10 2 ) for the CI amplitudes

!RAS_GUESS_CS       0      !number of closed shell guess conﬁgurations
RAS_SPIN_MULT      0      !spin multiplicity: 0=any, 2n+1=defined 
!RAS_SRDFT          FALSE  !short-range density functional RAS-CI
!RAS_NFRAG          0     !fragments of excitation analysis in RASCI

RAS_PRINT          2      !level of information
RAS_NATORB         TRUE   !computation of the natural orbital occupancies
!RAS_NATORB_STATE  0      !Saves NO of i RAS computed state in .fchk ﬁle
!RAS_FOD            TRUE

!****RAS-SOC****
CALC_SOC           TRUE   !calculate SOC for EOM-CC, RAS-CI, ADC, TDDFT/TDA and TDDFT
!RAS_SOC_2E        TRUE   !two-electron mean-ﬁeld contribution, default=true
RAS_SOC_SYM_DENS   TRUE   !averaging of α and β densities

!****MEMORY****
MEM_TOTAL          60000 !Default 2000 MB
MEM_STATIC         10000  !Default 64 MB

!**Molecular Properties and Analysis **                                                                                          
!GUI                2
STATE_ANALYSIS     TRUE
MOLDEN_FORMAT      TRUE
PRINT_ORBITALS     20
$end                                           

--------------------------------------------------------------
 ----------------------------------------------------------------
             Standard Nuclear Orientation (Angstroms)
    I     Atom           X                Y                Z
 ----------------------------------------------------------------
    1      N       0.0000000000     0.0000000000    -1.4891666667
    2      Br      0.0000000000     0.0000000000     0.2978333333
 ----------------------------------------------------------------
 Molecular Point Group                 C2v   NOp =  4
 Largest Abelian Subgroup              C2v   NOp =  4
 Nuclear Repulsion Energy =          72.55087669 hartrees
 There are       22 alpha and       20 beta electrons
 Requested basis set is def2-TZVP
 There are 27 shells and 79 basis functions

 Q-Chem warning in module libmdc/get_mega.C, line 167:

 Allowed MEM_STATIC has been capped at MEM_STATIC=8191.
 Reduce the value of MEM_STATIC to silence this warning.


 Total QAlloc Memory Limit  60000 MB
 Mega-Array Size      8007 MB
 MEM_STATIC part      8191 MB


                       Distance Matrix (Angstroms)
             N (  1)
   Br(  2)  1.787000
 
 A cutoff of  1.0D-09 yielded    370 shell pairs
 There are      3270 function pairs (      4373 Cartesian)
 Smallest overlap matrix eigenvalue = 5.53E-03

 Scale SEOQF with 1.000000e+00/1.000000e+00/1.000000e-01

 Standard Electronic Orientation quadrupole field applied
 Nucleus-field energy     =    -0.0000000020 hartrees
 Guess from superposition of atomic densities
 Warning:  Energy on first SCF cycle will be non-variational
 SAD guess density has 42.000000 electrons

 -----------------------------------------------------------------------
  General SCF calculation program by
  Eric Jon Sundstrom, Paul Horn, Yuezhi Mao, Dmitri Zuev, Alec White,
  David Stuck, Shaama M.S., Shane Yost, Joonho Lee, David Small,
  Daniel Levine, Susi Lehtola, Hugh Burton, Evgeny Epifanovsky,
  Bang C. Huynh
 -----------------------------------------------------------------------
 Hartree-Fock
 Orthonormalizing orbitals
 A restricted open-shell SCF calculation will be
 performed using DIIS, GDM
 SCF converges when RMS gradient is below 1.0e-05
 ---------------------------------------
  Cycle       Energy         DIIS error
 ---------------------------------------
    1   -2625.6266782541      1.01e-01  
    2   -2626.3175476414      7.07e-02  
    3   -2626.6743862798      2.57e-02  
    4   -2626.7583711957      1.12e-02  
    5   -2626.7823378158      4.00e-03  Done DIIS. Switching to GDM
 ---------------------------------------
  Cycle       Energy        RMS Gradient
 ---------------------------------------
    1   -2626.7823378158      6.25e-02   Normal BFGS step
    2   -2626.7914368130      8.48e-02   Normal BFGS step
    3   -2626.7957271214      2.35e-02   Normal BFGS step
    4   -2626.7964610214      6.30e-03   Normal BFGS step
    5   -2626.7965156234      2.08e-03   Normal BFGS step
    6   -2626.7965234570      2.81e-04   Normal BFGS step
    7   -2626.7965237189      1.15e-04   Normal BFGS step
    8   -2626.7965237591      2.63e-05   Normal BFGS step
    9   -2626.7965237578      1.27e-05   Normal BFGS step
   10   -2626.7965237655      3.72e-06  Convergence criterion met
The disked orbital energies are calculated using alpha and beta Focks
 ---------------------------------------
 Alpha HF Exchange    Energy = -48.68641582792784
 Beta HF Exchange     Energy = -47.53603400721892
 Nuclear Attraction   Energy =   0.00000000000000
 One-Electron (alpha) Energy = -1915.37856540453072
 One-Electron (beta)  Energy = -1884.91139539112692
 Total Coulomb        Energy = 1197.16501017675932
 Final Alpha MO Eigenvalues
            1           2           3           4           5           6
    1-490.0636474 -65.2057571 -58.5609751 -58.5597064 -58.5597064 -15.7002674
            7           8           9          10          11          12
    1  -9.8800143  -7.4922324  -7.4852016  -7.4852016  -3.2356520  -3.2315583
           13          14          15          16          17          18
    1  -3.2315583  -3.2218596  -3.2218596  -1.2233777  -0.9688849  -0.5624014
           19          20          21          22          23          24
    1  -0.5010896  -0.5010897  -0.5405088  -0.5405090   0.1024866   0.3143145
           25          26          27          28          29          30
    1   0.3530095   0.3530095   0.4085050   0.4212130   0.4285871   0.4285871
           31          32          33          34          35          36
    1   0.4553577   0.4553576   0.5273932   0.5273932   0.6863696   1.0754742
           37          38          39          40          41          42
    1   1.1689280   1.1689280   1.3015658   1.3015658   1.4176241   1.5619263
           43          44          45          46          47          48
    1   1.5619263   1.6025906   1.6025906   1.7818411   1.7818411   1.8135564
           49          50          51          52          53          54
    1   1.8135564   1.8335082   1.8480156   1.8480157   1.8566197   2.0588172
           55          56          57          58          59          60
    1   2.0588171   2.1447234   2.2888026   2.4258141   2.4258140   3.3514687
           61          62          63          64          65          66
    1   4.1616558   4.1616559   4.1591461   4.1591461   4.1873638   4.1873638
           67          68          69          70          71          72
    1   4.4097388   4.4097388   4.4033784   4.7036997   4.7036997   4.7634606
           73          74          75          76          77          78
    1   4.7634606   4.9292908   5.0709772   5.0709772   5.3952596   8.1460829
           79
    1  32.5498541
 Final Beta MO Eigenvalues
            1           2           3           4           5           6
    1-490.0630754 -65.2052307 -58.5606127 -58.5586233 -58.5586233 -15.6441847
            7           8           9          10          11          12
    1  -9.8787230  -7.4915860  -7.4829512  -7.4829512  -3.2348841  -3.2302554
           13          14          15          16          17          18
    1  -3.2302554  -3.2204013  -3.2204013  -1.1165073  -0.8267888  -0.5028971
           19          20          21          22          23          24
    1  -0.4614145  -0.4614145   0.1496137   0.1496136   0.1316835   0.3232130
           25          26          27          28          29          30
    1   0.3573175   0.3573175   0.4314777   0.4399985   0.4375100   0.4375100
           31          32          33          34          35          36
    1   0.5193470   0.5193469   0.5519212   0.5519212   0.7065825   1.0856448
           37          38          39          40          41          42
    1   1.2883794   1.2883794   1.3529669   1.3529669   1.4440167   1.5678826
           43          44          45          46          47          48
    1   1.5678826   1.6168440   1.6168440   1.7886740   1.7886740   1.8292824
           49          50          51          52          53          54
    1   1.8292824   1.8383216   1.8536385   1.8536385   1.8876326   2.1083555
           55          56          57          58          59          60
    1   2.1083555   2.2061703   2.3082321   2.5326483   2.5326483   3.3847259
           61          62          63          64          65          66
    1   4.1936328   4.1936328   4.2568695   4.2568695   4.2521382   4.2521382
           67          68          69          70          71          72
    1   4.4174502   4.4174502   4.4370973   4.7347718   4.7347718   4.9170557
           73          74          75          76          77          78
    1   4.9170557   4.9506806   5.1443487   5.1443487   5.4394565   8.1492839
           79
    1  32.5826566
 SCF time:   CPU 13.54s  wall 14.00s 
<S^2> =          2.000000000
 SCF   energy in the final basis set =    -2626.7965237655
 Total energy in the final basis set =    -2626.7965237655
  
     ##========================================##
     ||                                        ||
     ||              R A S M A N 2             ||
     ||________________________________________||
     ||                                        ||
     ||  Author:                               ||
     ||                                        ||
     ||        David Casanova (2010)           ||
     ||                                        ||
     ##========================================##
  
Setting single-point xc-functionals (if necessary)

  ***************************************************
  *  RAS-CI Dimensions:                             *
  *                                                 *
  *  Active Elec.:  12 ( 6, 6)   Active Orb.:   9   *
  *  Doubly Occ. :  15           Doubly Vir.:  55   *
  *  Frozen Occ. :   5           Frozen Vir.:  45   *
  *                                                 *
  *  Total CI configurations:    279216             * 
  *    Active configurations:      7056             * 
  *      Hole configurations:     60480             * 
  *  Particle configurations:    211680             * 
  *                                                 *
  *   Requested states:       30                    *
  *  Spin multiplicity: Any multiplicity            *
  *                                                 *
  ***************************************************
-----------------------------------------
    Memory requirements of RASCI

 Each CI-vector requires      2.13 MiB 
 Max. subspace vectors           4500      

 Reduced Lists                0.00 MiB 
 Excitation Lists             0.01 MiB 
 Excitation Lists Sign        0.01 MiB 
 CI-space (Max)            9804.56 MiB 
 Integrals                    8.71 MiB 
 Memory required (Max)     9804.58 MiB 
 Memory available          7811.55 MiB 

 Q-Chem warning in module rasman2/ras_mem_check.C, line 162:

 Static memory may be insufficient to store the subspace vectors


    Disk requirements of RASCI

 Fock matrix                  0.10 MiB 
 2-electron integrals         0.94 MiB 
 CI-space                 19172.24 MiB 
 Disk required            19173.28 MiB 
-----------------------------------------
  
RAS1 HF-like energy:          -2593.6948822280
 Computing integrals
 Computing J and K matrices
 Computing addressing
 Making amplitude guesses
 
Direct CI diagonalization
 ---------------------------------------------------
 Iter    Rts Conv    Rts Left    Ttl Dev     Max Dev
 ---------------------------------------------------
   1         0          30      0.031821    0.001687
   2         0          30      0.018409    0.000999
   3         0          30      0.017881    0.001077
   4         0          30      0.009385    0.000619
   5         0          30      0.007744    0.000580
   6         0          30      0.005909    0.000520
   7         0          30      0.005284    0.000487
   8         0          30      0.005977    0.001117
   9         0          30      0.005894    0.000926
  10         0          30      0.005968    0.000910
  11         0          30      0.006209    0.000809
  12         0          30      0.005779    0.000910
  13         0          30      0.004930    0.000835
  14         0          30      0.005624    0.000769
  15         0          30      0.004997    0.000706
  16         0          30      0.006246    0.000709
  17         1          29      0.005949    0.000678
  18         2          28      0.005927    0.000781
  19         3          27      0.005733    0.000712
  20         4          26      0.005389    0.000629
  21         4          26      0.004534    0.000554
  22         4          26      0.004072    0.000521
  23         4          26      0.003354    0.000451
  24         5          25      0.003179    0.000407
  25         9          21      0.002639    0.000343
  26        13          17      0.002331    0.000369
  27        13          17      0.002104    0.000334
  28        12          18      0.002023    0.000308
  29        14          16      0.001641    0.000278
  30        14          16      0.001735    0.000495
  31        14          16      0.001459    0.000427
  32        16          14      0.001138    0.000311
  33        16          14      0.000935    0.000250
  34        16          14      0.000739    0.000200
  35        16          14      0.000599    0.000177
  36        16          14      0.000477    0.000149
  37        16          14      0.000388    0.000131
  38        16          14      0.000301    0.000103
  39        17          13      0.000236    0.000083
  40        17          13      0.000186    0.000063
  41        17          13      0.000139    0.000045
  42        19          11      0.000108    0.000033
  43        22           8      0.000086    0.000026
  44        23           7      0.000072    0.000020
  45        23           7      0.000059    0.000015
  46        23           7      0.000051    0.000013
  47        24           6      0.000043    0.000010
  48        24           6      0.000037    0.000008
  49        24           6      0.000031    0.000006
  50        24           6      0.000028    0.000005
  51        26           4      0.000025    0.000004
  52        27           3      0.000023    0.000003
  53        27           3      0.000021    0.000002
  54        27           3      0.000020    0.000002
  55        28           2      0.000019    0.000001
  56        28           2      0.000018    0.000001
  57        30           0      0.000017    0.000001    Roots Converged
 ---------------------------------------------------
   
**************************************************
 RAS-CI total energy for state   1:  -2626.876584973137
  Excitation energy (eV) =  0.000000000000
  State symmetry: A2    (C2v      )
  <S^2>      :  2.0000
  Dipole Moment:   -0.0000 X    -0.0000 Y    -0.4557 Z
 NATURAL OCCUPATION NUMBERS (higher than 1.0E-05)
            1           2           3           4           5           6
    1   2.0000000   2.0000000   2.0000000   2.0000000   2.0000000   1.9999999
            7           8           9          10          11          12
    1   1.9999997   1.9999997   1.9999996   1.9999995   1.9999995   1.9999992
           13          14          15          16          17          18
    1   1.9999981   1.9999981   1.9999925   1.9951680   1.9859926   1.9751420
           19          20          21          22          23          24
    1   1.9751420   1.9518244   1.0111410   1.0111410   0.0567478   0.0084348
           25          26          27          28          29          30
    1   0.0084348   0.0053625   0.0025580   0.0025580   0.0024314   0.0018836
           31          32          33          34
    1   0.0018367   0.0018367   0.0011896   0.0011896
 Created directory ./qchem6484/plots

  Amplitudes : 
  
 | HOLE  | ALPHA     | BETA      | PART  |    AMPLITUDE 
--------------------------------------------------
 |       | 111111000 | 111110100 |       |    -6.7143693104929E-01
 |       | 111110100 | 111111000 |       |     6.7143693104938E-01
--------------------------------------------------
*** Contributions RASCI wfn    Active:  95.93
                                 Hole:   0.00
                                 Part:   4.06

      Mulliken population analysis 
 ---------------------------------------------------
   Atom    Charge (a.u.)   Spin (a.u.)  
 ---------------------------------------------------
   1  N   -0.120494       -0.000000 
   2 Br    0.120494        0.000000 
 ---------------------------------------------------
   Sum:    0.000000        0.000000 
 ---------------------------------------------------
 
  
 NATURAL OCCUPATION NUMBERS (higher than 1.0E-05)
            1           2           3           4           5           6
    1   2.0000000   2.0000000   2.0000000   2.0000000   2.0000000   1.9999999
            7           8           9          10          11          12
    1   1.9999997   1.9999997   1.9999996   1.9999995   1.9999995   1.9999992
           13          14          15          16          17          18
    1   1.9999981   1.9999981   1.9999925   1.9951680   1.9859926   1.9751420
           19          20          21          22          23          24
    1   1.9751420   1.9518244   1.0111410   1.0111410   0.0567478   0.0084348
           25          26          27          28          29          30
    1   0.0084348   0.0053625   0.0025580   0.0025580   0.0024314   0.0018836
           31          32          33          34
    1   0.0018367   0.0018367   0.0011896   0.0011896
  
*** Unpaired Electrons
 Yamaguchi Nd:         2.41
 Head-Gordon Nu:       2.19
 Head-Gordon Nu_nl:    2.03
  
**************************************************
 RAS-CI total energy for state   2:  -2626.822843968836
  Excitation energy (eV) =  1.462367129963
  State symmetry: A1    (C2v      )
  <S^2>      :  0.0000
  Dipole Moment:    0.0000 X    -0.0000 Y    -0.6867 Z
  Trans. Moment:   -0.0000 X     0.0000 Y    -0.0000 Z
  Strength   :  0.000000
  Natural transition orbitals ( 1 -> 2 ):
   e-/hole pair  1:  ampl =  0.678663 ( 46.1%)   [9 : 10]
   e-/hole pair  2:  ampl =  0.678662 ( 46.1%)   [8 : 11]
   Sum of square amplitudes: 0.93

 NATURAL OCCUPATION NUMBERS (higher than 1.0E-05)
            1           2           3           4           5           6
    1   2.0000000   2.0000000   2.0000000   2.0000000   2.0000000   1.9999999
            7           8           9          10          11          12
    1   1.9999998   1.9999996   1.9999996   1.9999995   1.9999992   1.9999983
           13          14          15          16          17          18
    1   1.9999980   1.9999980   1.9999925   1.9952822   1.9872179   1.9617059
           19          20          21          22          23          24
    1   1.9617058   1.9506237   1.0247662   1.0247643   0.0559799   0.0088782
           25          26          27          28          29          30
    1   0.0088781   0.0049720   0.0027923   0.0025858   0.0020559   0.0019268
           31          32          33          34
    1   0.0019268   0.0013746   0.0012896   0.0012896

  Amplitudes : 
  
 | HOLE  | ALPHA     | BETA      | PART  |    AMPLITUDE 
--------------------------------------------------
 |       | 111111000 | 111111000 |       |    -6.3999518293649E-01
 |       | 111111000 | 111101100 |       |    -1.4865450165904E-01
 |       | 111110100 | 111110100 |       |     6.3999547914416E-01
 |       | 111110100 | 111011100 |       |     1.4865546763080E-01
 |       | 111101100 | 111111000 |       |    -1.4865450165902E-01
 |       | 111011100 | 111110100 |       |     1.4865546763080E-01
--------------------------------------------------
*** Contributions RASCI wfn    Active:  94.71
                                 Hole:   0.00
                                 Part:   5.28

      Mulliken population analysis 
 ---------------------------------------------------
   Atom    Charge (a.u.)   Spin (a.u.)  
 ---------------------------------------------------
   1  N   -0.204997       -0.000000 
   2 Br    0.204997        0.000000 
 ---------------------------------------------------
   Sum:    0.000000       -0.000000 
 ---------------------------------------------------
 
  
 NATURAL OCCUPATION NUMBERS (higher than 1.0E-05)
            1           2           3           4           5           6
    1   2.0000000   2.0000000   2.0000000   2.0000000   2.0000000   1.9999999
            7           8           9          10          11          12
    1   1.9999998   1.9999996   1.9999996   1.9999995   1.9999992   1.9999983
           13          14          15          16          17          18
    1   1.9999980   1.9999980   1.9999925   1.9952822   1.9872179   1.9617059
           19          20          21          22          23          24
    1   1.9617058   1.9506237   1.0247662   1.0247643   0.0559799   0.0088782
           25          26          27          28          29          30
    1   0.0088781   0.0049720   0.0027923   0.0025858   0.0020559   0.0019268
           31          32          33          34
    1   0.0019268   0.0013746   0.0012896   0.0012896
  
*** Unpaired Electrons
 Yamaguchi Nd:         2.46
 Head-Gordon Nu:       2.19
 Head-Gordon Nu_nl:    2.03
  
**************************************************
 RAS-CI total energy for state   3:  -2626.822843960058
  Excitation energy (eV) =  1.462367368804
  State symmetry: A2    (C2v      )
  <S^2>      :  0.0000
  Dipole Moment:    0.0000 X     0.0000 Y    -0.6867 Z
  Trans. Moment:    0.0000 X     0.0000 Y    -0.0000 Z
  Strength   :  0.000000
  Natural transition orbitals ( 1 -> 3 ):
   e-/hole pair  1:  ampl =  0.678663 ( 46.1%)   [9 : 10]
   e-/hole pair  2:  ampl =  0.678662 ( 46.1%)   [8 : 11]
   Sum of square amplitudes: 0.93

 NATURAL OCCUPATION NUMBERS (higher than 1.0E-05)
            1           2           3           4           5           6
    1   2.0000000   2.0000000   2.0000000   2.0000000   2.0000000   1.9999999
            7           8           9          10          11          12
    1   1.9999998   1.9999996   1.9999996   1.9999995   1.9999992   1.9999983
           13          14          15          16          17          18
    1   1.9999980   1.9999980   1.9999925   1.9952822   1.9872173   1.9617042
           19          20          21          22          23          24
    1   1.9617042   1.9506284   1.0247668   1.0247659   0.0559778   0.0088775
           25          26          27          28          29          30
    1   0.0088775   0.0049722   0.0027924   0.0025858   0.0020558   0.0019270
           31          32          33          34
    1   0.0019270   0.0013748   0.0012896   0.0012896

  Amplitudes : 
  
 | HOLE  | ALPHA     | BETA      | PART  |    AMPLITUDE 
--------------------------------------------------
 |       | 111111000 | 111110100 |       |     6.3999535753668E-01
 |       | 111111000 | 111011100 |       |     1.4865528759964E-01
 |       | 111110100 | 111111000 |       |     6.3999535753659E-01
 |       | 111110100 | 111101100 |       |     1.4865469221768E-01
 |       | 111101100 | 111110100 |       |     1.4865469221768E-01
 |       | 111011100 | 111111000 |       |     1.4865528759962E-01
--------------------------------------------------
*** Contributions RASCI wfn    Active:  94.71
                                 Hole:   0.00
                                 Part:   5.28

      Mulliken population analysis 
 ---------------------------------------------------
   Atom    Charge (a.u.)   Spin (a.u.)  
 ---------------------------------------------------
   1  N   -0.204981       -0.000000 
   2 Br    0.204981        0.000000 
 ---------------------------------------------------
   Sum:    0.000000        0.000000 
 ---------------------------------------------------
 
  
 NATURAL OCCUPATION NUMBERS (higher than 1.0E-05)
            1           2           3           4           5           6
    1   2.0000000   2.0000000   2.0000000   2.0000000   2.0000000   1.9999999
            7           8           9          10          11          12
    1   1.9999998   1.9999996   1.9999996   1.9999995   1.9999992   1.9999983
           13          14          15          16          17          18
    1   1.9999980   1.9999980   1.9999925   1.9952822   1.9872173   1.9617042
           19          20          21          22          23          24
    1   1.9617042   1.9506284   1.0247668   1.0247659   0.0559778   0.0088775
           25          26          27          28          29          30
    1   0.0088775   0.0049722   0.0027924   0.0025858   0.0020558   0.0019270
           31          32          33          34
    1   0.0019270   0.0013748   0.0012896   0.0012896
  
*** Unpaired Electrons
 Yamaguchi Nd:         2.46
 Head-Gordon Nu:       2.19
 Head-Gordon Nu_nl:    2.03
  
**************************************************
 RAS-CI total energy for state   4:  -2626.801550239728
  Excitation energy (eV) =  2.041798979530
  State symmetry: A1    (C2v      )
  <S^2>      :  0.0000
  Dipole Moment:   -0.0000 X     0.0000 Y    -0.7629 Z
  Trans. Moment:   -0.0000 X     0.0000 Y    -0.0000 Z
  Strength   :  0.000000
  Natural transition orbitals ( 1 -> 4 ):
   e-/hole pair  1:  ampl =  0.662898 ( 43.9%)   [9 : 10]
   e-/hole pair  2:  ampl =  0.662897 ( 43.9%)   [8 : 11]
   Sum of square amplitudes: 0.88

 NATURAL OCCUPATION NUMBERS (higher than 1.0E-05)
            1           2           3           4           5           6
    1   2.0000000   2.0000000   2.0000000   2.0000000   2.0000000   1.9999999
            7           8           9          10          11          12
    1   1.9999996   1.9999995   1.9999995   1.9999990   1.9999990   1.9999983
           13          14          15          16          17          18
    1   1.9999979   1.9999979   1.9999919   1.9933858   1.9651782   1.9527975
           19          20          21          22          23          24
    1   1.9527974   1.9352989   1.0516041   1.0516019   0.0592688   0.0087568
           25          26          27          28          29          30
    1   0.0087567   0.0051928   0.0025671   0.0025671   0.0021598   0.0020051
           31          32          33          34
    1   0.0020051   0.0014663   0.0013040   0.0013040

  Amplitudes : 
  
 | HOLE  | ALPHA     | BETA      | PART  |    AMPLITUDE 
--------------------------------------------------
 |       | 111111000 | 111111000 |       |     6.1239131392973E-01
 |       | 111111000 | 111101100 |       |     1.7602572948480E-01
 |       | 111110100 | 111110100 |       |     6.1239023818875E-01
 |       | 111110100 | 111011100 |       |     1.7602635824011E-01
 |       | 111101100 | 111111000 |       |     1.7602572948478E-01
 |       | 111011100 | 111110100 |       |     1.7602635824011E-01
--------------------------------------------------
*** Contributions RASCI wfn    Active:  94.08
                                 Hole:   0.00
                                 Part:   5.92

      Mulliken population analysis 
 ---------------------------------------------------
   Atom    Charge (a.u.)   Spin (a.u.)  
 ---------------------------------------------------
   1  N   -0.238915       -0.000000 
   2 Br    0.238915        0.000000 
 ---------------------------------------------------
   Sum:    0.000000       -0.000000 
 ---------------------------------------------------
 
  
 NATURAL OCCUPATION NUMBERS (higher than 1.0E-05)
            1           2           3           4           5           6
    1   2.0000000   2.0000000   2.0000000   2.0000000   2.0000000   1.9999999
            7           8           9          10          11          12
    1   1.9999996   1.9999995   1.9999995   1.9999990   1.9999990   1.9999983
           13          14          15          16          17          18
    1   1.9999979   1.9999979   1.9999919   1.9933858   1.9651782   1.9527975
           19          20          21          22          23          24
    1   1.9527974   1.9352989   1.0516041   1.0516019   0.0592688   0.0087568
           25          26          27          28          29          30
    1   0.0087567   0.0051928   0.0025671   0.0025671   0.0021598   0.0020051
           31          32          33          34
    1   0.0020051   0.0014663   0.0013040   0.0013040
  
*** Unpaired Electrons
 Yamaguchi Nd:         2.58
 Head-Gordon Nu:       2.19
 Head-Gordon Nu_nl:    2.04
  
**************************************************
 RAS-CI total energy for state   5:  -2626.702068304112
  Excitation energy (eV) =  4.748840177613
  State symmetry: B1    (C2v      )
  <S^2>      :  2.0000
  Dipole Moment:   -0.0000 X     0.0000 Y    -0.3086 Z
  Trans. Moment:    0.0052 X    -0.1937 Y    -0.0000 Z
  Strength   :  0.004370
  Natural transition orbitals ( 1 -> 5 ):
   e-/hole pair  1:  ampl =  0.479721 ( 23.0%)   [9 : 10]
   e-/hole pair  2:  ampl =  0.454919 ( 20.7%)   [8 : 11]
   Sum of square amplitudes: 0.44

 NATURAL OCCUPATION NUMBERS (higher than 1.0E-05)
            1           2           3           4           5           6
    1   2.0000000   2.0000000   2.0000000   2.0000000   2.0000000   1.9999999
            7           8           9          10          11          12
    1   1.9999997   1.9999993   1.9999993   1.9999990   1.9999988   1.9999983
           13          14          15          16          17          18
    1   1.9999976   1.9999972   1.9999889   1.9929493   1.9701371   1.9687956
           19          20          21          22          23          24
    1   1.9225113   1.4884673   1.0655518   1.0173995   0.5315123   0.0094721
           25          26          27          28          29          30
    1   0.0080007   0.0055253   0.0052183   0.0027379   0.0027013   0.0024234
           31          32          33          34
    1   0.0020379   0.0019127   0.0013520   0.0013161

  Amplitudes : 
  
 | HOLE  | ALPHA     | BETA      | PART  |    AMPLITUDE 
--------------------------------------------------
 |       | 111111000 | 111110010 |       |    -3.6987140132614E-01
 |       | 111111000 | 111100110 |       |     1.6190958662712E-01
 |       | 111111000 | 111011010 |       |    -1.0050921174242E-01
 |       | 111110100 | 110111100 |       |     4.6628208630144E-01
 |       | 111110100 | 101111100 |       |     1.0107225965483E-01
 |       | 111110010 | 111111000 |       |     3.6989009731013E-01
 |       | 111110010 | 111101100 |       |     2.2428654689449E-01
 |       | 111101100 | 111110010 |       |    -2.2429465868630E-01
 |       | 111100110 | 111111000 |       |    -1.6189904499292E-01
 |       | 111011010 | 111111000 |       |     1.0049864688513E-01
 |       | 110111100 | 111110100 |       |    -4.6628204273362E-01
 |       | 101111100 | 111110100 |       |    -1.0108471318852E-01
--------------------------------------------------
*** Contributions RASCI wfn    Active:  94.46
                                 Hole:   0.00
                                 Part:   5.54

      Mulliken population analysis 
 ---------------------------------------------------
   Atom    Charge (a.u.)   Spin (a.u.)  
 ---------------------------------------------------
   1  N   -0.129650       -0.000011 
   2 Br    0.129650        0.000011 
 ---------------------------------------------------
   Sum:    0.000000       -0.000000 
 ---------------------------------------------------
 
  
 NATURAL OCCUPATION NUMBERS (higher than 1.0E-05)
            1           2           3           4           5           6
    1   2.0000000   2.0000000   2.0000000   2.0000000   2.0000000   1.9999999
            7           8           9          10          11          12
    1   1.9999997   1.9999993   1.9999993   1.9999990   1.9999988   1.9999983
           13          14          15          16          17          18
    1   1.9999976   1.9999972   1.9999889   1.9929493   1.9701371   1.9687956
           19          20          21          22          23          24
    1   1.9225113   1.4884673   1.0655518   1.0173995   0.5315123   0.0094721
           25          26          27          28          29          30
    1   0.0080007   0.0055253   0.0052183   0.0027379   0.0027013   0.0024234
           31          32          33          34
    1   0.0020379   0.0019127   0.0013520   0.0013161
  
*** Unpaired Electrons
 Yamaguchi Nd:         3.91
 Head-Gordon Nu:       3.15
 Head-Gordon Nu_nl:    3.21
  
**************************************************
 RAS-CI total energy for state   6:  -2626.702068268050
  Excitation energy (eV) =  4.748841158907
  State symmetry: B2    (C2v      )
  <S^2>      :  2.0000
  Dipole Moment:   -0.0000 X    -0.0000 Y    -0.3087 Z
  Trans. Moment:   -0.1938 X    -0.0052 Y     0.0000 Z
  Strength   :  0.004372
  Natural transition orbitals ( 1 -> 6 ):
   e-/hole pair  1:  ampl =  0.479723 ( 23.0%)   [9 : 10]
   e-/hole pair  2:  ampl =  0.454916 ( 20.7%)   [8 : 11]
   Sum of square amplitudes: 0.44

 NATURAL OCCUPATION NUMBERS (higher than 1.0E-05)
            1           2           3           4           5           6
    1   2.0000000   2.0000000   2.0000000   2.0000000   2.0000000   1.9999999
            7           8           9          10          11          12
    1   1.9999997   1.9999993   1.9999993   1.9999990   1.9999988   1.9999983
           13          14          15          16          17          18
    1   1.9999976   1.9999972   1.9999889   1.9929501   1.9701362   1.9687945
           19          20          21          22          23          24
    1   1.9225059   1.4884649   1.0655595   1.0174048   0.5315111   0.0094720
           25          26          27          28          29          30
    1   0.0079978   0.0055251   0.0052173   0.0027378   0.0027014   0.0024248
           31          32          33          34
    1   0.0020380   0.0019130   0.0013518   0.0013159

  Amplitudes : 
  
 | HOLE  | ALPHA     | BETA      | PART  |    AMPLITUDE 
--------------------------------------------------
 |       | 111111000 | 110111100 |       |    -4.6628254437333E-01
 |       | 111111000 | 101111100 |       |    -1.0107214831484E-01
 |       | 111110100 | 111110010 |       |    -3.6988890360837E-01
 |       | 111110100 | 111100110 |       |     1.0050262011047E-01
 |       | 111110100 | 111011010 |       |    -1.6190330983826E-01
 |       | 111110010 | 111110100 |       |     3.6988890348222E-01
 |       | 111110010 | 111011100 |       |     2.2427164984732E-01
 |       | 111100110 | 111110100 |       |    -1.0050262067307E-01
 |       | 111011100 | 111110010 |       |    -2.2427164998459E-01
 |       | 111011010 | 111110100 |       |     1.6190331036632E-01
 |       | 110111100 | 111111000 |       |     4.6628254437875E-01
 |       | 101111100 | 111111000 |       |     1.0107214862426E-01
--------------------------------------------------
*** Contributions RASCI wfn    Active:  94.46
                                 Hole:   0.00
                                 Part:   5.54

      Mulliken population analysis 
 ---------------------------------------------------
   Atom    Charge (a.u.)   Spin (a.u.)  
 ---------------------------------------------------
   1  N   -0.129634       -0.000000 
   2 Br    0.129634        0.000000 
 ---------------------------------------------------
   Sum:    0.000000        0.000000 
 ---------------------------------------------------
 
  
 NATURAL OCCUPATION NUMBERS (higher than 1.0E-05)
            1           2           3           4           5           6
    1   2.0000000   2.0000000   2.0000000   2.0000000   2.0000000   1.9999999
            7           8           9          10          11          12
    1   1.9999997   1.9999993   1.9999993   1.9999990   1.9999988   1.9999983
           13          14          15          16          17          18
    1   1.9999976   1.9999972   1.9999889   1.9929501   1.9701362   1.9687945
           19          20          21          22          23          24
    1   1.9225059   1.4884649   1.0655595   1.0174048   0.5315111   0.0094720
           25          26          27          28          29          30
    1   0.0079978   0.0055251   0.0052173   0.0027378   0.0027014   0.0024248
           31          32          33          34
    1   0.0020380   0.0019130   0.0013518   0.0013159
  
*** Unpaired Electrons
 Yamaguchi Nd:         3.91
 Head-Gordon Nu:       3.15
 Head-Gordon Nu_nl:    3.21
  
**************************************************
 RAS-CI total energy for state   7:  -2626.697392316234
  Excitation energy (eV) =  4.876080281547
  State symmetry: B1    (C2v      )
  <S^2>      :  2.0000
  Dipole Moment:   -0.0000 X    -0.0000 Y    -0.2758 Z
  Trans. Moment:    0.0018 X     0.0908 Y    -0.0000 Z
  Strength   :  0.000986
  Natural transition orbitals ( 1 -> 7 ):
   e-/hole pair  1:  ampl =  0.484975 ( 23.5%)   [9 : 10]
   e-/hole pair  2:  ampl =  0.459676 ( 21.1%)   [8 : 11]
   Sum of square amplitudes: 0.45

 NATURAL OCCUPATION NUMBERS (higher than 1.0E-05)
            1           2           3           4           5           6
    1   2.0000000   2.0000000   2.0000000   2.0000000   2.0000000   1.9999999
            7           8           9          10          11          12
    1   1.9999997   1.9999994   1.9999993   1.9999989   1.9999988   1.9999988
           13          14          15          16          17          18
    1   1.9999984   1.9999972   1.9999914   1.9921939   1.9775519   1.9680410
           19          20          21          22          23          24
    1   1.9128279   1.4791055   1.0892895   1.0179334   0.5211930   0.0082411
           25          26          27          28          29          30
    1   0.0077623   0.0058212   0.0047904   0.0029943   0.0029109   0.0027524
           31          32          33          34
    1   0.0019634   0.0019067   0.0014159   0.0013234

  Amplitudes : 
  
 | HOLE  | ALPHA     | BETA      | PART  |    AMPLITUDE 
--------------------------------------------------
 |       | 111111000 | 111110010 |       |    -3.7311112341009E-01
 |       | 111111000 | 111100110 |       |     1.6404459228325E-01
 |       | 111111000 | 111011010 |       |    -1.0109961831165E-01
 |       | 111110100 | 110111100 |       |    -4.7622133691030E-01
 |       | 111110010 | 111111000 |       |     3.7313102850426E-01
 |       | 111110010 | 111101100 |       |     2.0542986462644E-01
 |       | 111101100 | 111110010 |       |    -2.0543871098912E-01
 |       | 111100110 | 111111000 |       |    -1.6403302039424E-01
 |       | 111011010 | 111111000 |       |     1.0108761222648E-01
 |       | 110111100 | 111110100 |       |     4.7622138481466E-01
--------------------------------------------------
*** Contributions RASCI wfn    Active:  94.39
                                 Hole:   0.00
                                 Part:   5.61

      Mulliken population analysis 
 ---------------------------------------------------
   Atom    Charge (a.u.)   Spin (a.u.)  
 ---------------------------------------------------
   1  N   -0.138507       -0.000026 
   2 Br    0.138507        0.000026 
 ---------------------------------------------------
   Sum:    0.000000        0.000000 
 ---------------------------------------------------
 
  
 NATURAL OCCUPATION NUMBERS (higher than 1.0E-05)
            1           2           3           4           5           6
    1   2.0000000   2.0000000   2.0000000   2.0000000   2.0000000   1.9999999
            7           8           9          10          11          12
    1   1.9999997   1.9999994   1.9999993   1.9999989   1.9999988   1.9999988
           13          14          15          16          17          18
    1   1.9999984   1.9999972   1.9999914   1.9921939   1.9775519   1.9680410
           19          20          21          22          23          24
    1   1.9128279   1.4791055   1.0892895   1.0179334   0.5211930   0.0082411
           25          26          27          28          29          30
    1   0.0077623   0.0058212   0.0047904   0.0029943   0.0029109   0.0027524
           31          32          33          34
    1   0.0019634   0.0019067   0.0014159   0.0013234
  
*** Unpaired Electrons
 Yamaguchi Nd:         3.91
 Head-Gordon Nu:       3.13
 Head-Gordon Nu_nl:    3.21
  
**************************************************
 RAS-CI total energy for state   8:  -2626.697392272949
  Excitation energy (eV) =  4.876081459372
  State symmetry: B2    (C2v      )
  <S^2>      :  2.0000
  Dipole Moment:   -0.0000 X     0.0000 Y    -0.2758 Z
  Trans. Moment:   -0.0908 X     0.0018 Y    -0.0000 Z
  Strength   :  0.000985
  Natural transition orbitals ( 1 -> 8 ):
   e-/hole pair  1:  ampl =  0.484973 ( 23.5%)   [9 : 10]
   e-/hole pair  2:  ampl =  0.459672 ( 21.1%)   [8 : 11]
   Sum of square amplitudes: 0.45

 NATURAL OCCUPATION NUMBERS (higher than 1.0E-05)
            1           2           3           4           5           6
    1   2.0000000   2.0000000   2.0000000   2.0000000   2.0000000   1.9999999
            7           8           9          10          11          12
    1   1.9999997   1.9999994   1.9999993   1.9999989   1.9999988   1.9999988
           13          14          15          16          17          18
    1   1.9999984   1.9999972   1.9999914   1.9921938   1.9775524   1.9680378
           19          20          21          22          23          24
    1   1.9128193   1.4791114   1.0893007   1.0179328   0.5211893   0.0082421
           25          26          27          28          29          30
    1   0.0077613   0.0058201   0.0047903   0.0029945   0.0029116   0.0027513
           31          32          33          34
    1   0.0019635   0.0019065   0.0014158   0.0013235

  Amplitudes : 
  
 | HOLE  | ALPHA     | BETA      | PART  |    AMPLITUDE 
--------------------------------------------------
 |       | 111111000 | 110111100 |       |    -4.7622092828483E-01
 |       | 111110100 | 111110010 |       |     3.7313114348862E-01
 |       | 111110100 | 111100110 |       |    -1.0109227162252E-01
 |       | 111110100 | 111011010 |       |     1.6403728998131E-01
 |       | 111110010 | 111110100 |       |    -3.7313114370247E-01
 |       | 111110010 | 111011100 |       |    -2.0541366115549E-01
 |       | 111100110 | 111110100 |       |     1.0109227118109E-01
 |       | 111011100 | 111110010 |       |     2.0541366107861E-01
 |       | 111011010 | 111110100 |       |    -1.6403728954910E-01
 |       | 110111100 | 111111000 |       |     4.7622092828942E-01
--------------------------------------------------
*** Contributions RASCI wfn    Active:  94.39
                                 Hole:   0.00
                                 Part:   5.61

      Mulliken population analysis 
 ---------------------------------------------------
   Atom    Charge (a.u.)   Spin (a.u.)  
 ---------------------------------------------------
   1  N   -0.138459       -0.000000 
   2 Br    0.138459        0.000000 
 ---------------------------------------------------
   Sum:    0.000000       -0.000000 
 ---------------------------------------------------
 
  
 NATURAL OCCUPATION NUMBERS (higher than 1.0E-05)
            1           2           3           4           5           6
    1   2.0000000   2.0000000   2.0000000   2.0000000   2.0000000   1.9999999
            7           8           9          10          11          12
    1   1.9999997   1.9999994   1.9999993   1.9999989   1.9999988   1.9999988
           13          14          15          16          17          18
    1   1.9999984   1.9999972   1.9999914   1.9921938   1.9775524   1.9680378
           19          20          21          22          23          24
    1   1.9128193   1.4791114   1.0893007   1.0179328   0.5211893   0.0082421
           25          26          27          28          29          30
    1   0.0077613   0.0058201   0.0047903   0.0029945   0.0029116   0.0027513
           31          32          33          34
    1   0.0019635   0.0019065   0.0014158   0.0013235
  
*** Unpaired Electrons
 Yamaguchi Nd:         3.91
 Head-Gordon Nu:       3.13
 Head-Gordon Nu_nl:    3.21
  
**************************************************
 RAS-CI total energy for state   9:  -2626.694325813803
  Excitation energy (eV) =  4.959524058179
  State symmetry: A2    (C2v      )
  <S^2>      :  0.0000
  Dipole Moment:   -0.0000 X    -0.0000 Y    -1.3320 Z
  Trans. Moment:    0.0000 X     0.0000 Y    -0.0000 Z
  Strength   :  0.000000
  Natural transition orbitals ( 1 -> 9 ):
   e-/hole pair  1:  ampl =  0.462471 ( 21.4%)   [9 : 10]
   e-/hole pair  2:  ampl =  0.462471 ( 21.4%)   [8 : 11]
   Sum of square amplitudes: 0.44

 NATURAL OCCUPATION NUMBERS (higher than 1.0E-05)
            1           2           3           4           5           6
    1   2.0000000   2.0000000   2.0000000   2.0000000   2.0000000   1.9999999
            7           8           9          10          11          12
    1   1.9999999   1.9999993   1.9999992   1.9999992   1.9999983   1.9999983
           13          14          15          16          17          18
    1   1.9999960   1.9999960   1.9999942   1.9902293   1.9878848   1.9485065
           19          20          21          22          23          24
    1   1.5043287   1.5043281   1.4802418   1.4802412   0.0575156   0.0132644
           25          26          27          28          29          30
    1   0.0132644   0.0046863   0.0029996   0.0029996   0.0019179   0.0019179
           31          32          33          34
    1   0.0018978   0.0016698   0.0010630   0.0010630

  Amplitudes : 
  
 | HOLE  | ALPHA     | BETA      | PART  |    AMPLITUDE 
--------------------------------------------------
 |       | 111111000 | 111011100 |       |    -4.4475857446158E-01
 |       | 111110100 | 111101100 |       |     4.4475885047647E-01
 |       | 111101100 | 111110100 |       |     4.4475885047638E-01
 |       | 111101100 | 110110110 |       |    -1.0297688703662E-01
 |       | 111011100 | 111111000 |       |    -4.4475857446150E-01
 |       | 111011100 | 110111010 |       |     1.0297684929448E-01
 |       | 110111010 | 111011100 |       |     1.0297684929450E-01
 |       | 110110110 | 111101100 |       |    -1.0297688703658E-01
--------------------------------------------------
*** Contributions RASCI wfn    Active:  88.37
                                 Hole:   0.00
                                 Part:  11.63

      Mulliken population analysis 
 ---------------------------------------------------
   Atom    Charge (a.u.)   Spin (a.u.)  
 ---------------------------------------------------
   1  N   -0.446438       -0.000000 
   2 Br    0.446438        0.000000 
 ---------------------------------------------------
   Sum:    0.000000       -0.000000 
 ---------------------------------------------------
 
  
 NATURAL OCCUPATION NUMBERS (higher than 1.0E-05)
            1           2           3           4           5           6
    1   2.0000000   2.0000000   2.0000000   2.0000000   2.0000000   1.9999999
            7           8           9          10          11          12
    1   1.9999999   1.9999993   1.9999992   1.9999992   1.9999983   1.9999983
           13          14          15          16          17          18
    1   1.9999960   1.9999960   1.9999942   1.9902293   1.9878848   1.9485065
           19          20          21          22          23          24
    1   1.5043287   1.5043281   1.4802418   1.4802412   0.0575156   0.0132644
           25          26          27          28          29          30
    1   0.0132644   0.0046863   0.0029996   0.0029996   0.0019179   0.0019179
           31          32          33          34
    1   0.0018978   0.0016698   0.0010630   0.0010630
  
*** Unpaired Electrons
 Yamaguchi Nd:         3.38
 Head-Gordon Nu:       2.21
 Head-Gordon Nu_nl:    2.32
  
**************************************************
 RAS-CI total energy for state  10:  -2626.686486613080
  Excitation energy (eV) =  5.172839563004
  State symmetry: A1    (C2v      )
  <S^2>      :  2.0000
  Dipole Moment:    0.0000 X    -0.0000 Y    -1.3399 Z
  Trans. Moment:   -0.0000 X    -0.0000 Y     0.0000 Z
  Strength   :  0.000000
  Natural transition orbitals ( 1 -> 10 ):
   e-/hole pair  1:  ampl =  0.462969 ( 21.4%)   [9 : 10]
   e-/hole pair  2:  ampl =  0.462965 ( 21.4%)   [8 : 11]
   Sum of square amplitudes: 0.43

 NATURAL OCCUPATION NUMBERS (higher than 1.0E-05)
            1           2           3           4           5           6
    1   2.0000000   2.0000000   2.0000000   2.0000000   2.0000000   1.9999999
            7           8           9          10          11          12
    1   1.9999999   1.9999993   1.9999992   1.9999992   1.9999982   1.9999978
           13          14          15          16          17          18
    1   1.9999955   1.9999955   1.9999940   1.9918397   1.9858602   1.9539851
           19          20          21          22          23          24
    1   1.5007324   1.5007242   1.4861354   1.4861272   0.0524746   0.0106368
           25          26          27          28          29          30
    1   0.0106368   0.0044566   0.0033939   0.0031130   0.0020677   0.0020677
           31          32          33          34
    1   0.0018843   0.0017394   0.0010732   0.0010732

  Amplitudes : 
  
 | HOLE  | ALPHA     | BETA      | PART  |    AMPLITUDE 
--------------------------------------------------
 |       | 111111000 | 111101100 |       |    -4.3718749185591E-01
 |       | 111110100 | 111011100 |       |     4.3719119643617E-01
 |       | 111101100 | 111111000 |       |     4.3718749185573E-01
 |       | 111101100 | 110111010 |       |    -1.0696032821968E-01
 |       | 111011100 | 111110100 |       |    -4.3719119643606E-01
 |       | 111011100 | 110110110 |       |     1.0696126495811E-01
 |       | 110111010 | 111101100 |       |     1.0696032821968E-01
 |       | 110110110 | 111011100 |       |    -1.0696126495811E-01
--------------------------------------------------
*** Contributions RASCI wfn    Active:  88.99
                                 Hole:   0.00
                                 Part:  11.00

      Mulliken population analysis 
 ---------------------------------------------------
   Atom    Charge (a.u.)   Spin (a.u.)  
 ---------------------------------------------------
   1  N   -0.449873       -0.000000 
   2 Br    0.449873        0.000000 
 ---------------------------------------------------
   Sum:    0.000000        0.000000 
 ---------------------------------------------------
 
  
 NATURAL OCCUPATION NUMBERS (higher than 1.0E-05)
            1           2           3           4           5           6
    1   2.0000000   2.0000000   2.0000000   2.0000000   2.0000000   1.9999999
            7           8           9          10          11          12
    1   1.9999999   1.9999993   1.9999992   1.9999992   1.9999982   1.9999978
           13          14          15          16          17          18
    1   1.9999955   1.9999955   1.9999940   1.9918397   1.9858602   1.9539851
           19          20          21          22          23          24
    1   1.5007324   1.5007242   1.4861354   1.4861272   0.0524746   0.0106368
           25          26          27          28          29          30
    1   0.0106368   0.0044566   0.0033939   0.0031130   0.0020677   0.0020677
           31          32          33          34
    1   0.0018843   0.0017394   0.0010732   0.0010732
  
*** Unpaired Electrons
 Yamaguchi Nd:         3.35
 Head-Gordon Nu:       2.19
 Head-Gordon Nu_nl:    2.31
  
**************************************************
 RAS-CI total energy for state  11:  -2626.686486613079
  Excitation energy (eV) =  5.172839563037
  State symmetry: A2    (C2v      )
  <S^2>      :  2.0000
  Dipole Moment:   -0.0000 X    -0.0000 Y    -1.3399 Z
  Trans. Moment:    0.0000 X    -0.0000 Y    -0.0000 Z
  Strength   :  0.000000
  Natural transition orbitals ( 1 -> 11 ):
   e-/hole pair  1:  ampl =  0.462967 ( 21.4%)   [9 : 10]
   e-/hole pair  2:  ampl =  0.462966 ( 21.4%)   [8 : 11]
   Sum of square amplitudes: 0.43

 NATURAL OCCUPATION NUMBERS (higher than 1.0E-05)
            1           2           3           4           5           6
    1   2.0000000   2.0000000   2.0000000   2.0000000   2.0000000   1.9999999
            7           8           9          10          11          12
    1   1.9999999   1.9999993   1.9999992   1.9999992   1.9999982   1.9999978
           13          14          15          16          17          18
    1   1.9999955   1.9999955   1.9999940   1.9918397   1.9858602   1.9539851
           19          20          21          22          23          24
    1   1.5007295   1.5007272   1.4861325   1.4861302   0.0524746   0.0106368
           25          26          27          28          29          30
    1   0.0106368   0.0044566   0.0033939   0.0031130   0.0020677   0.0020677
           31          32          33          34
    1   0.0018843   0.0017394   0.0010732   0.0010732

  Amplitudes : 
  
 | HOLE  | ALPHA     | BETA      | PART  |    AMPLITUDE 
--------------------------------------------------
 |       | 111111000 | 111011100 |       |     4.3718877636754E-01
 |       | 111110100 | 111101100 |       |     4.3718991190225E-01
 |       | 111101100 | 111110100 |       |    -4.3718991190216E-01
 |       | 111101100 | 110110110 |       |     1.0696092043654E-01
 |       | 111011100 | 111111000 |       |    -4.3718877636747E-01
 |       | 111011100 | 110111010 |       |     1.0696067279179E-01
 |       | 110111010 | 111011100 |       |    -1.0696067279185E-01
 |       | 110110110 | 111101100 |       |    -1.0696092043655E-01
--------------------------------------------------
*** Contributions RASCI wfn    Active:  88.99
                                 Hole:   0.00
                                 Part:  11.00

      Mulliken population analysis 
 ---------------------------------------------------
   Atom    Charge (a.u.)   Spin (a.u.)  
 ---------------------------------------------------
   1  N   -0.449873       -0.000000 
   2 Br    0.449873        0.000000 
 ---------------------------------------------------
   Sum:    0.000000        0.000000 
 ---------------------------------------------------
 
  
 NATURAL OCCUPATION NUMBERS (higher than 1.0E-05)
            1           2           3           4           5           6
    1   2.0000000   2.0000000   2.0000000   2.0000000   2.0000000   1.9999999
            7           8           9          10          11          12
    1   1.9999999   1.9999993   1.9999992   1.9999992   1.9999982   1.9999978
           13          14          15          16          17          18
    1   1.9999955   1.9999955   1.9999940   1.9918397   1.9858602   1.9539851
           19          20          21          22          23          24
    1   1.5007295   1.5007272   1.4861325   1.4861302   0.0524746   0.0106368
           25          26          27          28          29          30
    1   0.0106368   0.0044566   0.0033939   0.0031130   0.0020677   0.0020677
           31          32          33          34
    1   0.0018843   0.0017394   0.0010732   0.0010732
  
*** Unpaired Electrons
 Yamaguchi Nd:         3.35
 Head-Gordon Nu:       2.19
 Head-Gordon Nu_nl:    2.31
  
**************************************************
 RAS-CI total energy for state  12:  -2626.682101049348
  Excitation energy (eV) =  5.292176823837
  State symmetry: A1    (C2v      )
  <S^2>      :  2.0000
  Dipole Moment:   -0.0000 X     0.0000 Y    -1.3437 Z
  Trans. Moment:   -0.0000 X     0.0000 Y    -0.0000 Z
  Strength   :  0.000000
  Natural transition orbitals ( 1 -> 12 ):
   e-/hole pair  1:  ampl =  0.462905 ( 21.4%)   [9 : 10]
   e-/hole pair  2:  ampl =  0.462901 ( 21.4%)   [8 : 11]
   Sum of square amplitudes: 0.43

 NATURAL OCCUPATION NUMBERS (higher than 1.0E-05)
            1           2           3           4           5           6
    1   2.0000000   2.0000000   2.0000000   2.0000000   2.0000000   1.9999999
            7           8           9          10          11          12
    1   1.9999999   1.9999993   1.9999992   1.9999992   1.9999982   1.9999982
           13          14          15          16          17          18
    1   1.9999955   1.9999955   1.9999939   1.9913306   1.9854864   1.9545942
           19          20          21          22          23          24
    1   1.5002973   1.5002892   1.4877841   1.4877759   0.0518897   0.0098658
           25          26          27          28          29          30
    1   0.0098657   0.0044699   0.0031254   0.0031254   0.0021461   0.0021461
           31          32          33          34
    1   0.0019053   0.0017791   0.0010725   0.0010725

  Amplitudes : 
  
 | HOLE  | ALPHA     | BETA      | PART  |    AMPLITUDE 
--------------------------------------------------
 |       | 111111000 | 111101100 |       |     4.4766545253621E-01
 |       | 111110100 | 111011100 |       |     4.4766180294145E-01
 |       | 111101100 | 111111000 |       |    -4.4766545253599E-01
 |       | 111101100 | 110111010 |       |     1.0956691932381E-01
 |       | 111011100 | 111110100 |       |    -4.4766180294143E-01
 |       | 111011100 | 110110110 |       |     1.0956604601390E-01
 |       | 110111010 | 111101100 |       |    -1.0956691932386E-01
 |       | 110110110 | 111011100 |       |    -1.0956604601389E-01
--------------------------------------------------
*** Contributions RASCI wfn    Active:  89.23
                                 Hole:   0.00
                                 Part:  10.76

      Mulliken population analysis 
 ---------------------------------------------------
   Atom    Charge (a.u.)   Spin (a.u.)  
 ---------------------------------------------------
   1  N   -0.453446       -0.000000 
   2 Br    0.453446        0.000000 
 ---------------------------------------------------
   Sum:    0.000000       -0.000000 
 ---------------------------------------------------
 
  
 NATURAL OCCUPATION NUMBERS (higher than 1.0E-05)
            1           2           3           4           5           6
    1   2.0000000   2.0000000   2.0000000   2.0000000   2.0000000   1.9999999
            7           8           9          10          11          12
    1   1.9999999   1.9999993   1.9999992   1.9999992   1.9999982   1.9999982
           13          14          15          16          17          18
    1   1.9999955   1.9999955   1.9999939   1.9913306   1.9854864   1.9545942
           19          20          21          22          23          24
    1   1.5002973   1.5002892   1.4877841   1.4877759   0.0518897   0.0098658
           25          26          27          28          29          30
    1   0.0098657   0.0044699   0.0031254   0.0031254   0.0021461   0.0021461
           31          32          33          34
    1   0.0019053   0.0017791   0.0010725   0.0010725
  
*** Unpaired Electrons
 Yamaguchi Nd:         3.34
 Head-Gordon Nu:       2.18
 Head-Gordon Nu_nl:    2.31
  
**************************************************
 RAS-CI total energy for state  13:  -2626.671102838911
  Excitation energy (eV) =  5.591453356537
  State symmetry: A2    (C2v      )
  <S^2>      :  2.0000
  Dipole Moment:   -0.0000 X    -0.0000 Y    -1.0490 Z
  Trans. Moment:    0.0000 X     0.0000 Y    -0.5881 Z
  Strength   :  0.047387
  Natural transition orbitals ( 1 -> 13 ):
   e-/hole pair  1:  ampl =  0.435874 ( 19.0%)   [9 : 10]
   e-/hole pair  2:  ampl =  0.435873 ( 19.0%)   [8 : 11]
   Sum of square amplitudes: 0.47

 NATURAL OCCUPATION NUMBERS (higher than 1.0E-05)
            1           2           3           4           5           6
    1   2.0000000   2.0000000   2.0000000   2.0000000   2.0000000   1.9999999
            7           8           9          10          11          12
    1   1.9999996   1.9999994   1.9999994   1.9999993   1.9999987   1.9999987
           13          14          15          16          17          18
    1   1.9999961   1.9999961   1.9999920   1.9912069   1.9828107   1.8730028
           19          20          21          22          23          24
    1   1.5817695   1.5817678   1.3953686   1.3953670   0.1396949   0.0178190
           25          26          27          28          29          30
    1   0.0178190   0.0052774   0.0027337   0.0027337   0.0027223   0.0027223
           31          32          33          34
    1   0.0023416   0.0018996   0.0014820   0.0014820

  Amplitudes : 
  
 | HOLE  | ALPHA     | BETA      | PART  |    AMPLITUDE 
--------------------------------------------------
 |       | 111111000 | 111110100 |       |     1.4837686120872E-01
 |       | 111111000 | 111011100 |       |    -4.1862841924543E-01
 |       | 111111000 | 110110110 |       |     1.1296754872596E-01
 |       | 111110100 | 111111000 |       |    -1.4837686120870E-01
 |       | 111110100 | 111101100 |       |     4.1862741168433E-01
 |       | 111110100 | 110111010 |       |    -1.1296759406805E-01
 |       | 111101100 | 111110100 |       |    -4.1862741168443E-01
 |       | 111101100 | 110110110 |       |     1.0270442844534E-01
 |       | 111011100 | 111111000 |       |     4.1862841924548E-01
 |       | 111011100 | 110111010 |       |    -1.0270486703406E-01
 |       | 110111010 | 111110100 |       |     1.1296759406797E-01
 |       | 110111010 | 111011100 |       |     1.0270486703397E-01
 |       | 110110110 | 111111000 |       |    -1.1296754872593E-01
 |       | 110110110 | 111101100 |       |    -1.0270442844529E-01
--------------------------------------------------
*** Contributions RASCI wfn    Active:  89.31
                                 Hole:   0.00
                                 Part:  10.69

      Mulliken population analysis 
 ---------------------------------------------------
   Atom    Charge (a.u.)   Spin (a.u.)  
 ---------------------------------------------------
   1  N   -0.353547        0.000000 
   2 Br    0.353547       -0.000000 
 ---------------------------------------------------
   Sum:    0.000000       -0.000000 
 ---------------------------------------------------
 
  
 NATURAL OCCUPATION NUMBERS (higher than 1.0E-05)
            1           2           3           4           5           6
    1   2.0000000   2.0000000   2.0000000   2.0000000   2.0000000   1.9999999
            7           8           9          10          11          12
    1   1.9999996   1.9999994   1.9999994   1.9999993   1.9999987   1.9999987
           13          14          15          16          17          18
    1   1.9999961   1.9999961   1.9999920   1.9912069   1.9828107   1.8730028
           19          20          21          22          23          24
    1   1.5817695   1.5817678   1.3953686   1.3953670   0.1396949   0.0178190
           25          26          27          28          29          30
    1   0.0178190   0.0052774   0.0027337   0.0027337   0.0027223   0.0027223
           31          32          33          34
    1   0.0023416   0.0018996   0.0014820   0.0014820
  
*** Unpaired Electrons
 Yamaguchi Nd:         3.68
 Head-Gordon Nu:       2.40
 Head-Gordon Nu_nl:    2.43
  
**************************************************
 RAS-CI total energy for state  14:  -2626.666889679372
  Excitation energy (eV) =  5.706099260609
  State symmetry: B1    (C2v      )
  <S^2>      :  0.0000
  Dipole Moment:   -0.0000 X     0.0000 Y    -0.0383 Z
  Trans. Moment:   -0.0000 X     0.0000 Y     0.0000 Z
  Strength   :  0.000000
  Natural transition orbitals ( 1 -> 14 ):
   e-/hole pair  1:  ampl =  0.652470 ( 42.6%)   [9 : 10]
   e-/hole pair  2:  ampl =  0.035661 (  0.1%)   [8 : 11]
   Sum of square amplitudes: 0.43

 NATURAL OCCUPATION NUMBERS (higher than 1.0E-05)
            1           2           3           4           5           6
    1   2.0000000   2.0000000   2.0000000   2.0000000   2.0000000   1.9999999
            7           8           9          10          11          12
    1   1.9999998   1.9999997   1.9999989   1.9999988   1.9999984   1.9999979
           13          14          15          16          17          18
    1   1.9999978   1.9999967   1.9999949   1.9932536   1.9772060   1.9635163
           19          20          21          22          23          24
    1   1.9609733   1.8534986   1.0264187   1.0131728   0.1685768   0.0083377
           25          26          27          28          29          30
    1   0.0081439   0.0061518   0.0042332   0.0040989   0.0039209   0.0027087
           31          32          33          34
    1   0.0018053   0.0017191   0.0016403   0.0006415

  Amplitudes : 
  
 | HOLE  | ALPHA     | BETA      | PART  |    AMPLITUDE 
--------------------------------------------------
 |       | 111111000 | 111110010 |       |     5.3444026404547E-01
 |       | 111111000 | 111100110 |       |    -2.2585883150796E-01
 |       | 111111000 | 111011010 |       |     1.3885493900476E-01
 |       | 111110010 | 111111000 |       |     5.3442695860066E-01
 |       | 111110010 | 111101100 |       |     3.0121427279956E-01
 |       | 111101100 | 111110010 |       |     3.0120105327004E-01
 |       | 111100110 | 111111000 |       |    -2.2585855608620E-01
 |       | 111011010 | 111111000 |       |     1.3884355253782E-01
--------------------------------------------------
*** Contributions RASCI wfn    Active:  94.93
                                 Hole:   0.00
                                 Part:   5.07

      Mulliken population analysis 
 ---------------------------------------------------
   Atom    Charge (a.u.)   Spin (a.u.)  
 ---------------------------------------------------
   1  N   -0.028950       -0.000004 
   2 Br    0.028950        0.000004 
 ---------------------------------------------------
   Sum:    0.000000        0.000000 
 ---------------------------------------------------
 
  
 NATURAL OCCUPATION NUMBERS (higher than 1.0E-05)
            1           2           3           4           5           6
    1   2.0000000   2.0000000   2.0000000   2.0000000   2.0000000   1.9999999
            7           8           9          10          11          12
    1   1.9999998   1.9999997   1.9999989   1.9999988   1.9999984   1.9999979
           13          14          15          16          17          18
    1   1.9999978   1.9999967   1.9999949   1.9932536   1.9772060   1.9635163
           19          20          21          22          23          24
    1   1.9609733   1.8534986   1.0264187   1.0131728   0.1685768   0.0083377
           25          26          27          28          29          30
    1   0.0081439   0.0061518   0.0042332   0.0040989   0.0039209   0.0027087
           31          32          33          34
    1   0.0018053   0.0017191   0.0016403   0.0006415
  
*** Unpaired Electrons
 Yamaguchi Nd:         2.87
 Head-Gordon Nu:       2.42
 Head-Gordon Nu_nl:    2.18
  
**************************************************
 RAS-CI total energy for state  15:  -2626.666889650227
  Excitation energy (eV) =  5.706100053683
  State symmetry: B2    (C2v      )
  <S^2>      :  0.0000
  Dipole Moment:    0.0000 X    -0.0000 Y    -0.0381 Z
  Trans. Moment:    0.0000 X    -0.0000 Y    -0.0000 Z
  Strength   :  0.000000
  Natural transition orbitals ( 1 -> 15 ):
   e-/hole pair  1:  ampl =  0.652468 ( 42.6%)   [9 : 10]
   e-/hole pair  2:  ampl =  0.035658 (  0.1%)   [8 : 11]
   Sum of square amplitudes: 0.43

 NATURAL OCCUPATION NUMBERS (higher than 1.0E-05)
            1           2           3           4           5           6
    1   2.0000000   2.0000000   2.0000000   2.0000000   2.0000000   1.9999999
            7           8           9          10          11          12
    1   1.9999998   1.9999997   1.9999989   1.9999988   1.9999984   1.9999979
           13          14          15          16          17          18
    1   1.9999978   1.9999967   1.9999949   1.9932533   1.9772102   1.9635242
           19          20          21          22          23          24
    1   1.9609655   1.8534618   1.0264222   1.0131607   0.1686170   0.0083358
           25          26          27          28          29          30
    1   0.0081429   0.0061500   0.0042346   0.0041012   0.0039219   0.0027099
           31          32          33          34
    1   0.0018051   0.0017192   0.0016403   0.0006414

  Amplitudes : 
  
 | HOLE  | ALPHA     | BETA      | PART  |    AMPLITUDE 
--------------------------------------------------
 |       | 111110100 | 111110010 |       |    -5.3443635705716E-01
 |       | 111110100 | 111100110 |       |     1.3885505211192E-01
 |       | 111110100 | 111011010 |       |    -2.2586380101080E-01
 |       | 111110010 | 111110100 |       |    -5.3443635709895E-01
 |       | 111110010 | 111011100 |       |    -3.0120461972489E-01
 |       | 111100110 | 111110100 |       |     1.3885505209935E-01
 |       | 111011100 | 111110010 |       |    -3.0120461989308E-01
 |       | 111011010 | 111110100 |       |    -2.2586380104301E-01
--------------------------------------------------
*** Contributions RASCI wfn    Active:  94.93
                                 Hole:   0.00
                                 Part:   5.07

      Mulliken population analysis 
 ---------------------------------------------------
   Atom    Charge (a.u.)   Spin (a.u.)  
 ---------------------------------------------------
   1  N   -0.028863        0.000000 
   2 Br    0.028863       -0.000000 
 ---------------------------------------------------
   Sum:    0.000000       -0.000000 
 ---------------------------------------------------
 
  
 NATURAL OCCUPATION NUMBERS (higher than 1.0E-05)
            1           2           3           4           5           6
    1   2.0000000   2.0000000   2.0000000   2.0000000   2.0000000   1.9999999
            7           8           9          10          11          12
    1   1.9999998   1.9999997   1.9999989   1.9999988   1.9999984   1.9999979
           13          14          15          16          17          18
    1   1.9999978   1.9999967   1.9999949   1.9932533   1.9772102   1.9635242
           19          20          21          22          23          24
    1   1.9609655   1.8534618   1.0264222   1.0131607   0.1686170   0.0083358
           25          26          27          28          29          30
    1   0.0081429   0.0061500   0.0042346   0.0041012   0.0039219   0.0027099
           31          32          33          34
    1   0.0018051   0.0017192   0.0016403   0.0006414
  
*** Unpaired Electrons
 Yamaguchi Nd:         2.87
 Head-Gordon Nu:       2.42
 Head-Gordon Nu_nl:    2.18
  
**************************************************
 RAS-CI total energy for state  16:  -2626.640862568998
  Excitation energy (eV) =  6.414332967685
  Warning: not all configurations have same symmetry
  State symmetry: *B1    (C2v      )
  <S^2>      :  0.0000
  Dipole Moment:   -0.0000 X     0.0000 Y    -0.7374 Z
  Trans. Moment:    0.0000 X    -0.0000 Y    -0.0000 Z
  Strength   :  0.000000
  Natural transition orbitals ( 1 -> 16 ):
   e-/hole pair  1:  ampl =  0.678769 ( 46.1%)   [9 : 10]
   e-/hole pair  2:  ampl =  0.048681 (  0.2%)   [8 : 11]
   Sum of square amplitudes: 0.47

 NATURAL OCCUPATION NUMBERS (higher than 1.0E-05)
            1           2           3           4           5           6
    1   2.0000000   2.0000000   2.0000000   2.0000000   2.0000000   1.9999999
            7           8           9          10          11          12
    1   1.9999999   1.9999998   1.9999998   1.9999997   1.9999987   1.9999984
           13          14          15          16          17          18
    1   1.9999982   1.9999957   1.9999876   1.9909863   1.9900099   1.9781343
           19          20          21          22          23          24
    1   1.9773480   1.9668199   1.0090937   1.0077222   0.0444947   0.0103745
           25          26          27          28          29          30
    1   0.0066088   0.0039003   0.0023803   0.0023517   0.0022010   0.0021427
           31          32          33          34
[...]
    48   -3.341911595458e-01
    49    6.043566210697e-15
    50   -1.242994669720e-06
    51    8.974272047490e-01
    52   -1.294730245757e-15
    53    1.382759734358e-16
    54   -1.619256542688e-07
    55    1.213532034153e-01
    56   -1.187985320602e-16
    57   -7.043796106111e-16
    58   -2.348634188251e-16
    59    1.440355780220e-07
    60   -1.105818260269e-01
    61    5.147821050252e-16
    62   -2.452768345481e-16
    63    3.236041640929e-16
    64   -1.613121691103e-07
    65    1.273449635057e-01
    66   -1.020180938477e-15
    67    1.595122096981e-15
    68   -2.710847882415e-15
    69    1.248632603798e-06
    70   -9.828406182401e-01
    71    2.425918045122e-16
    72    1.805840549291e-15
    73    1.869765728671e-16
    74   -1.576787932449e-08
    75    2.036765502092e-02
    76    8.146046273474e-17
    77    2.469744812092e-16
    78   -2.223299199813e-12
    79   -3.486013038708e-09
Sym=X
Ene= 0.686370
Spin=Alpha
Occup=0
     1   -2.770934784414e-02
     2   -6.433109346124e-02
     3    1.624368430417e-02
     4    1.184880553351e+00
     5   -1.344162190138e+00
     6   -6.209118597936e-16
     7    4.363767178177e-16
     8    2.440148100821e-01
     9    5.433078375375e-16
    10   -7.201582223707e-18
    11    6.909089831577e-01
    12   -2.441187488691e-15
    13    8.101136264137e-17
    14   -1.247584418797e+00
    15    1.574910941455e-02
    16    2.146058816063e-16
    17   -7.073441489483e-17
    18   -2.248413010306e-09
    19   -6.279770879074e-17
    20   -7.549819849294e-02
    21    8.230010102062e-17
    22    9.529512287754e-16
    23   -2.748892136310e-08
    24   -3.285707282215e-16
    25   -2.094637010171e-02
    26   -9.235971247188e-17
    27    7.140979920531e-18
    28   -2.262677963228e-09
    29    7.469985381255e-18
    30    7.371630181022e-18
    31   -6.415607027389e-17
    32    1.192980068805e-02
    33   -5.144907928243e-02
    34    6.587392196715e-02
    35    2.582289487716e-01
    36   -8.324401191074e-01
    37    1.378561759156e+00
    38    5.563428736866e-17
    39    3.165540125185e-16
    40    2.929572031439e-02
    41   -3.443687436580e-16
    42   -1.505604812255e-15
    43   -9.948486398361e-02
    44    1.408141741531e-16
    45    3.098451732511e-15
    46    1.300958497147e-01
    47    1.308603901277e-15
    48   -1.341494248441e-15
    49   -1.049470959177e-01
    50   -3.706353724049e-16
    51   -6.111523363127e-16
    52   -1.698453718692e-01
    53    9.546873227305e-02
    54   -5.336697941362e-17
    55   -3.371052411438e-16
    56    1.145499692213e-08
    57   -2.335589046345e-16
    58   -1.581714435636e-01
    59    3.801305417726e-16
    60   -1.028673507372e-15
    61   -1.520476409025e-08
    62    1.252004801860e-15
    63    2.895002992828e-01
    64   -1.239247453325e-15
    65    2.499091315971e-15
    66    2.161842430477e-08
    67   -1.818829478322e-15
    68   -1.006333305623e+00
    69    5.380984928362e-16
    70    1.241860474153e-15
    71   -7.360268647675e-08
    72    8.774472666360e-16
    73   -7.101190410589e-02
    74    1.845864312803e-16
    75   -6.977963228408e-17
    76    1.996942592033e-08
    77    7.352978538596e-17
    78   -3.076237422774e-19
    79   -1.304436852412e-16
Sym=X
Ene= 1.075474
Spin=Alpha
Occup=0
     1    2.473163606464e-03
     2    3.504677724857e-03
     3    4.499718205872e-02
     4    1.433134180210e-01
     5   -3.096398094954e+00
     6    5.648531313837e-16
     7   -1.371828303562e-15
     8   -7.683702989390e-02
     9   -4.178260756128e-16
    10    2.461838511968e-15
    11   -4.958875528106e-01
    12   -8.242361850019e-16
    13   -5.126358264832e-16
    14   -1.409456926747e+00
    15    2.305507960568e-02
    16   -5.201533568138e-16
    17    1.354935173828e-16
    18   -1.494314191928e-09
    19    3.153333611232e-17
    20   -6.982173301910e-02
    21   -2.834857739515e-15
    22    2.976815642010e-15
    23    8.571531549566e-08
    24   -5.533384745025e-16
    25   -2.564634683967e-02
    26    1.984046954842e-16
    27    2.393664195666e-16
    28    1.569177614566e-09
    29   -1.752245011980e-16
    30   -2.435552991342e-16
    31   -1.614797007468e-16
    32    2.656803283192e-02
    33   -1.444147112822e-01
    34    1.065239936180e-01
    35    8.756884850768e-01
    36   -3.344896529234e+00
    37    4.779554449148e+00
    38    1.198136259547e-16
    39    1.782208092952e-19
    40   -2.942811482792e-02
    41   -2.079503575300e-16
    42    6.039613856894e-16
    43    1.008678882892e-01
    44    9.849998444874e-18
    45    1.793497990915e-16
    46   -8.297668734439e-02
    47   -1.242738748891e-15
    48   -4.431310903622e-16
    49   -4.527927365934e-01
    50    2.682865118084e-15
    51    2.394081506564e-16
    52   -1.772882770424e+00
    53   -8.044113793806e-02
    54   -5.601280831981e-16
    55    1.006734858550e-15
    56    1.481248856552e-08
    57   -1.260402287289e-15
    58   -3.092280865245e-04
    59   -1.580326042882e-15
    60    2.370238096455e-15
    61   -1.256711779425e-08
    62    2.526894090381e-15
    63    8.290764329303e-02
    64    6.403172640704e-15
    65   -6.263058968572e-15
    66   -1.144734904096e-08
    67    6.885725686716e-16
    68    1.082464098545e+00
    69   -4.354704769470e-15
    70    7.006554979107e-15
    71   -1.734256311565e-08
    72   -1.197002198096e-15
    73    2.463341578958e-02
    74   -7.509204696545e-16
    75    1.400787128947e-16
    76   -1.809941166252e-08
    77    1.925942089598e-15
    78    5.363067541491e-18
    79   -4.471703243805e-16
Sym=X
Ene= 1.168928
Spin=Alpha
Occup=0
     1    1.077150915924e-17
     2   -4.183078917455e-17
     3    2.224988094453e-16
     4    9.137507246420e-16
     5   -6.434241752330e-15
     6   -7.663256142628e-16
     7   -8.595252345532e-16
     8    3.057117940568e-16
     9   -1.489761601953e-16
    10   -3.319649952431e-16
    11   -6.678569283432e-16
    12    4.514974597299e-15
    13    3.809766173011e-15
    14   -3.570062054853e-15
    15    2.789843391247e-17
    16   -4.736565168834e-17
    17    1.682039438995e-16
    18    1.422127131463e-15
    19   -1.851922308317e-02
    20    8.126380947171e-16
    21    6.625490625888e-15
    22    8.536233267325e-15
    23   -7.306979694433e-14
    24    9.691385695863e-01
    25   -6.859899350353e-17
    26    2.018886318966e-16
    27    8.486359307544e-17
    28   -1.143860238208e-15
    29    1.490044962168e-02
    30    7.817955309675e-17
    31   -1.097369686071e-16
    32   -1.827817873916e-16
    33   -3.197941401825e-16
    34   -7.032573378789e-17
    35    1.654536570137e-15
    36   -5.391468030788e-15
    37    8.388118660130e-15
    38   -1.797232248918e-16
    39   -3.867956309740e-16
    40   -1.056510804887e-16
    41    5.756842056133e-16
    42    1.725250222633e-15
    43   -2.751295004087e-16
    44   -1.265604135832e-15
    45   -3.456194293754e-15
    46    1.141031862293e-15
    47    9.257141750665e-16
    48    4.598622543439e-16
    49   -1.826225740008e-15
    50   -3.702324726039e-15
    51   -1.461111273257e-15
    52   -3.118708967657e-15
    53   -2.746527794195e-17
    54    4.674078739365e-16
    55    7.450196064132e-16
    56   -2.891968369998e-15
    57    4.133926601646e-02
    58   -8.051307801809e-17
    59    1.338676542344e-15
    60    6.417728054299e-16
    61    6.821492490440e-17
    62    7.408033983321e-03
    63   -1.919325013804e-16
    64   -5.357519871688e-15
    65   -5.879471638058e-15
    66    5.896857031536e-15
    67   -9.972646624110e-02
    68    1.807451163801e-15
    69    7.813824235429e-15
    70    7.872798930571e-15
    71    9.948002589467e-15
    72   -1.251595398936e-01
    73    2.969865178049e-16
    74    2.168077846241e-15
    75    2.268114660367e-15
    76    1.444154498542e-14
    77   -1.934287633916e-01
    78    1.349201434951e-15
    79    2.437567369660e-16
Sym=X
Ene= 1.168928
Spin=Alpha
Occup=0
     1    3.721353749004e-09
     2    7.543808445525e-09
     3    7.962331445432e-09
     4   -6.115881404673e-08
     5   -1.219594886391e-07
     6    4.003507271036e-16
     7   -7.930526910127e-16
     8   -2.908597376986e-08
     9   -1.139333079774e-16
    10    1.032378707740e-15
    11   -5.787979479278e-08
    12   -2.347238196746e-15
    13    2.792528215692e-15
    14   -2.289922609723e-08
    15    7.083501299303e-10
    16   -2.682450223140e-16
    17    1.439324204128e-16
    18    1.851922306183e-02
    19    1.695314103435e-15
    20    2.974605938390e-08
    21   -4.009968118294e-15
    22    3.915812995504e-15
    23   -9.691385696045e-01
    24   -7.281575651686e-14
    25    2.844910253655e-09
    26   -9.921992160000e-17
    27    5.205994992819e-17
    28   -1.490044959869e-02
    29   -1.076421698409e-15
    30    3.681214718483e-17
    31    1.588048744413e-16
    32    2.276123607770e-09
    33   -1.137049073592e-08
    34    1.044537480402e-08
    35    6.452242348587e-08
    36   -2.253703375068e-07
    37    2.480512896001e-07
    38    1.518340491866e-16
    39   -3.497036473703e-17
    40   -7.242042813645e-09
    41   -2.510363808514e-16
    42    4.712609033546e-16
    43    2.662559301636e-08
    44    2.812077162231e-16
    45   -9.647412758848e-16
    46   -7.960912357834e-08
    47   -2.067274798743e-16
    48   -5.298824022419e-16
    49    9.086667162683e-08
    50    2.155877863490e-15
    51   -1.173413560474e-15
    52   -1.441024630297e-07
    53   -1.619519255080e-08
    54   -8.363314382160e-16
    55    5.472711105357e-16
    56   -4.133926604171e-02
    57   -3.313300663292e-15
    58    1.532045965979e-09
    59   -1.014708785544e-15
    60    1.612591987933e-15
    61   -7.408034067743e-03
    62   -2.149487015529e-15
    63    3.262491248041e-08
    64    6.013698325772e-15
    65   -5.137341916188e-15
    66    9.972646648362e-02
    67    1.117045472675e-14
    68    6.213219708855e-08
    69   -5.947565977122e-15
    70    5.954230466556e-15
    71    1.251595395961e-01
    72    7.767643644995e-15
    73   -2.141831702441e-09
    74   -1.408864869056e-15
    75    1.128959083835e-15
    76    1.934287632820e-01
    77    1.459961107426e-14
    78    3.105868563066e-18
    79   -2.188561346527e-16
Sym=X
Ene= 1.301566
Spin=Alpha
Occup=0
     1    3.752967904463e-16
     2    1.330194714782e-15
     3   -7.261344511970e-15
     4    7.260766617187e-15
     5    1.375965092216e-15
     6    1.151676352747e-01
     7    5.152204738583e-09
     8    1.884270943688e-15
     9    1.003375022248e-02
    10    2.885195303441e-09
    11   -5.032893864690e-16
    12   -4.847511146607e-01
    13   -2.644431864717e-08
    14   -1.464722930935e-15
    15   -3.454906953485e-16
    16    2.977866398334e-03
    17    1.351301189069e-10
    18    6.651197164162e-18
    19    2.997890808440e-17
    20   -3.068649314588e-15
    21   -8.955254323014e-01
    22   -3.979820759059e-08
    23    5.275439992958e-15
    24    7.747471456221e-15
    25    9.653162848097e-17
    26   -2.252753063606e-02
    27   -9.525551128312e-10
    28    1.129821182118e-16
    29    3.301807321560e-16
    30   -6.621957677087e-10
    31   -1.606017074905e-13
    32   -2.802830048851e-16
    33    2.468898399275e-16
    34   -1.267886781960e-15
    35   -1.574315269613e-15
    36    7.685105133467e-15
    37   -5.532896720296e-15
    38    2.089659262465e-02
    39    4.602229739881e-10
    40   -4.310398765207e-16
    41   -7.286085762446e-02
    42   -1.711923062293e-09
    43    5.611450961900e-16
    44    1.110462173571e-01
    45    5.095624797439e-09
    46    7.276400840132e-18
    47    6.468037818874e-02
    48   -8.577188019511e-09
    49   -4.274155480793e-15
    50    2.763052859824e-01
    51    2.884771783777e-08
    52    4.891306780744e-15
    53    1.548840231798e-15
    54   -4.860669991644e-02
    55   -2.576089483332e-09
    56    8.571115467025e-16
    57   -4.316588624683e-16
    58    8.165468095496e-16
    59   -1.490547659132e-01
    60   -6.250036682642e-09
    61   -2.248411435118e-16
    62    5.970670096675e-17
    63   -6.495241682430e-15
    64    5.647112234225e-01
    65    2.462912147578e-08
    66    9.920074113489e-17
    67    1.886687400721e-15
    68    9.232963735009e-16
    69   -8.706647854741e-01
    70   -3.636800706332e-08
    71   -1.932177530444e-15
    72   -2.733058381859e-15
    73   -4.448971025691e-16
    74   -3.339785663862e-01
    75   -1.458086829704e-08
    76   -9.645511730932e-16
    77   -2.313804857956e-15
    78    2.132194542236e-08
    79   -9.578408398553e-13
Sym=X
Ene= 1.301566
Spin=Alpha
Occup=0
     1    1.141702598232e-16
     2   -3.933401357502e-17
     3    2.073578734177e-15
     4   -2.286424927560e-15
     5    1.254477259238e-15
     6   -2.891256641654e-09
     7    1.151677387387e-01
     8   -3.816615516222e-16
     9    3.952145021376e-09
    10    1.003382746132e-02
    11   -2.322457088532e-16
    12    1.656187528613e-08
    13   -4.847510806210e-01
    14    2.431805729415e-15
    15    2.829562326052e-16
    16   -1.101090029701e-10
    17    2.977865187169e-03
    18    2.342256440168e-16
    19   -1.356165805448e-16
    20    4.212215557279e-15
    21    3.990023322159e-08
    22   -8.955254498362e-01
    23   -5.172508776511e-15
    24    1.005325689375e-14
    25   -5.998003108574e-17
    26    9.338687034506e-10
    27   -2.252752838849e-02
    28    1.793084794573e-16
    29    6.179670447053e-17
    30    8.631647563175e-14
    31   -7.387331985225e-10
    32   -1.519655823146e-16
    33   -4.502483721559e-17
    34    2.557889736276e-16
    35    1.825225254164e-15
    36   -6.053004714630e-15
    37    2.525320914952e-15
    38   -5.522274750653e-10
    39    2.089659908418e-02
    40   -6.722032024243e-16
    41    2.044831717038e-09
    42   -7.286088055859e-02
    43    1.334916981155e-15
    44   -7.141572768267e-09
    45    1.110462705689e-01
    46   -5.118886567611e-15
    47    1.752154652412e-08
    48    6.468033770195e-02
    49    9.444985540210e-15
    50   -4.273854355011e-08
    51    2.763053131123e-01
    52   -4.781275532590e-15
    53   -1.527073343222e-15
    54    2.164258192095e-09
    55   -4.860668775000e-02
    56   -1.939354276508e-16
    57    6.265432251578e-16
    58   -2.553123893816e-15
    59    6.620216028153e-09
    60   -1.490547656043e-01
    61    7.015333472067e-16
    62   -3.813720289614e-16
    63    8.197907684752e-15
    64   -2.511462856517e-08
    65    5.647112039497e-01
    66   -5.881110791310e-16
    67   -1.185329596345e-15
    68   -4.891683913715e-15
    69    3.850113046953e-08
    70   -8.706648195450e-01
    71    4.860278743803e-16
    72   -8.149765444101e-16
    73   -2.502227002856e-16
    74    1.486344150710e-08
    75   -3.339785306204e-01
    76    6.236983667546e-16
    77   -4.503007617043e-16
    78   -3.491314639627e-12
    79    2.126668360714e-08
Sym=X
Ene= 1.417624
Spin=Alpha
Occup=0
     1   -7.058291993235e-03
     2   -1.928877830976e-02
     3    1.215326252835e-01
     4   -5.688802056990e-02
     5   -2.526059498600e+00
     6    3.381580589053e-16
     7    6.090505804397e-16
     8    5.814120709961e-02
     9   -1.047072403159e-15
    10    1.593326631340e-15
    11   -3.404002310072e-01
    12    9.825056381439e-16
    13   -3.150664451601e-15
    14   -1.572640946297e+00
    15   -2.410214238610e-03
    16   -5.057383502136e-16
    17    4.141977158333e-16
    18   -1.019334561678e-09
    19    2.144417294609e-16
    20   -9.436108482356e-01
    21    5.842991689047e-15
    22   -7.295827935106e-15
    23   -4.488890502732e-08
    24    9.153012777745e-16
    25   -3.860801176375e-02
    26    2.876794077302e-16
    27    4.055805300565e-16
    28    1.126726262153e-09
    29   -2.397313472107e-16
    30   -3.320861958383e-17
    31    6.253434665332e-17
    32    3.884754369853e-03
    33   -2.835935168225e-02
    34    5.897363018356e-03
    35    2.115676141092e-01
    36   -1.312791250881e+00
    37    3.248728591334e+00
    38   -1.309073263386e-16
    39    6.894242446680e-16
    40    9.417611848339e-03
    41    3.329601741326e-16
    42   -2.218474477066e-15
    43   -4.253463331495e-02
    44   -4.907656915784e-17
    45    7.799822080195e-15
    46    4.682458620202e-01
    47   -2.591221339438e-15
    48   -4.583470639598e-15
    49   -1.621697924927e+00
    50    1.492988389670e-15
    51    1.995448890550e-15
    52   -8.464980310391e-01
    53    2.141714840118e-01
    54   -5.733207022489e-16
    55    2.310436441711e-15
    56   -7.012071384769e-09
    57   -1.015211914426e-15
    58    1.499944921596e-01
    59   -5.535505319455e-16
    60    1.446438611022e-15
    61   -1.466373320059e-08
    62    3.744383536421e-15
    63   -1.032783734986e+00
    64    3.040285660799e-15
    65   -9.328011885916e-15
    66    5.420834095997e-08
    67   -5.128790033206e-15
    68    1.526204442951e+00
    69    1.186245069160e-15
    70    4.131161171421e-15
    71   -2.395659465454e-08
    72    1.613250890611e-15
    73    4.371194574654e-03
    74    1.755389507019e-15
    75   -2.505909616316e-15
    76   -2.432203221416e-08
    77    2.885184384061e-15
    78    5.810842063350e-18
    79    5.534199244048e-16
Sym=X
Ene= 1.561926
Spin=Alpha
Occup=0
     1   -6.901917496269e-16
     2   -2.666513471229e-15
     3    1.747844660578e-14
     4   -2.674811697370e-14
     5    7.363973951895e-15
     6   -1.433995917317e-15
     7    4.063902973006e-15
     8   -3.295177030530e-15
     9    6.428781597941e-16
    10   -6.321385839214e-15
    11    1.730504021512e-16
    12   -5.580476157051e-16
    13   -5.761237696295e-15
    14    2.223927190901e-15
    15   -3.220710050503e-16
    16   -3.498151164783e-16
    17    5.791701519097e-17
    18   -5.173552668429e-16
    19    1.573229025419e-03
    20    5.506736264844e-15
    21   -4.620681970205e-15
    22    1.000955813401e-14
    23    1.509125885475e-14
    24   -9.563600466992e-02
    25    2.854155080054e-16
    26    1.575853955681e-16
    27   -9.164103527036e-16
    28    2.120039504837e-15
    29   -1.432767801175e-02
    30   -2.021713972521e-16
    31   -1.577868850719e-16
    32    5.444545783704e-16
    33   -4.728215425093e-16
    34    1.074936172541e-15
    35    7.620806311403e-16
    36   -6.127325486838e-15
    37    4.285424454910e-15
    38   -1.177598366764e-15
    39   -6.510496265603e-16
    40    1.534760222299e-16
    41    3.871264396510e-15
    42    1.831371565924e-15
    43    6.273024183770e-16
    44   -1.105548971728e-14
    45   -7.197397029455e-15
    46   -3.443600975778e-15
    47    1.315570804179e-14
    48    5.654962205763e-15
    49    7.520398203283e-15
    50   -4.682149100394e-15
    51    1.119420779487e-15
    52   -7.677821733585e-15
    53    3.351446047903e-16
    54    5.748948228601e-16
    55   -7.545594208655e-15
    56   -4.793436274400e-14
    57    2.757534278014e-01
    58    1.967664111090e-15
    59    1.112575813186e-15
    60   -1.181635788134e-14
    61   -6.799776789134e-14
    62    3.825433220072e-01
    63   -6.694745943408e-15
    64   -3.240800742760e-15
    65    5.329999367400e-14
    66    3.101684795776e-13
    67   -1.776791862679e+00
    68    8.612179463144e-15
    69   -1.342383301708e-15
    70   -3.366498202836e-14
    71   -1.860293738715e-13
    72    1.076870362900e+00
    73   -3.345077223953e-15
    74    3.176765434061e-16
    75    6.705189081814e-16
    76   -1.951970105124e-14
    77    1.170965768710e-01
    78    4.739496677130e-15
    79   -4.216040192797e-15
[5D7F]

======= END OF MOLDEN-FORMATTED INPUT FILE =======


        *************************************************************
        *                                                           *
        *  Thank you very much for using Q-Chem.  Have a nice day.  *
        *                                                           *
        *************************************************************


