                  Welcome to Q-Chem
     A Quantum Leap Into The Future Of Chemistry


 Q-Chem 6.0 (devel), Q-Chem, Inc., Pleasanton, CA (2022)

 E. Epifanovsky,  A. T. B. Gilbert,  Xintian Feng,  Joonho Lee,  Yuezhi Mao,  
 N. Mardirossian,  P. Pokhilko,  A. White,  M. Wormit,  M. P. Coons,  
 A. L. Dempwolff,  Zhengting Gan,  D. Hait,  P. R. Horn,  L. D. Jacobson,  
 I. Kaliman,  J. Kussmann,  A. W. Lange,  Ka Un Lao,  D. S. Levine,  Jie Liu,  
 S. C. McKenzie,  A. F. Morrison,  K. Nanda,  F. Plasser,  D. R. Rehn,  
 M. L. Vidal,  Zhi-Qiang You,  Ying Zhu,  B. Alam,  B. Albrecht,  
 A. Aldossary,  E. Alguire,  J. H. Andersen,  V. Athavale,  D. Barton,  
 K. Begam,  A. Behn,  N. Bellonzi,  Y. A. Bernard,  E. J. Berquist,  
 H. Burton,  A. Carreras,  K. Carter-Fenk,  Romit Chakraborty,  
 Chandrima Chakravarty,  Junhan Chen,  A. D. Chien,  K. D. Closser,  
 V. Cofer-Shabica,  L. Cunha,  S. Dasgupta,  Jia Deng,  M. de Wergifosse,  
 M. Diedenhofen,  Hainam Do,  S. Ehlert,  Po-Tung Fang,  S. Fatehi,  
 Qingguo Feng,  T. Friedhoff,  B. Ganoe,  J. Gayvert,  Qinghui Ge,  
 G. Gidofalvi,  M. Goldey,  J. Gomes,  C. Gonzalez-Espinoza,  S. Gulania,  
 A. Gunina,  J. A. Gyamfi,  M. W. D. Hanson-Heine,  P. H. P. Harbach,  
 A. W. Hauser,  M. F. Herbst,  M. Hernandez Vera,  M. Hodecker,  
 Z. C. Holden,  S. Houck,  Xunkun Huang,  Kerwin Hui,  B. C. Huynh,  
 K. Ikeda,  M. Ivanov,  Hyunjun Ji,  Zuxin Jin,  Hanjie Jiang,  B. Kaduk,  
 S. Kaehler,  R. Kang,  K. Khistyaev,  Jaehoon Kim,  Yongbin Kim,  
 P. Klunzinger,  Z. Koczor-Benda,  Joong Hoon Koh,  D. Kosenkov,  
 Saikiran Kotaru,  L. Koulias,  T. Kowalczyk,  C. M. Krauter,  K. Kue,  
 A. Kunitsa,  T. Kus,  A. Landau,  K. V. Lawler,  D. Lefrancois,  S. Lehtola,  
 Rain Li,  Shaozhi Li,  Yi-Pei Li,  Jiashu Liang,  M. Liebenthal,  
 Hung-Hsuan Lin,  You-Sheng Lin,  Fenglai Liu,  Kuan-Yu Liu,  
 M. Loipersberger,  A. Luenser,  C. Malbon,  A. Manjanath,  P. Manohar,  
 E. Mansoor,  S. F. Manzer,  Shan-Ping Mao,  A. V. Marenich,  T. Markovich,  
 S. Mason,  F. Matz,  S. A. Maurer,  P. F. McLaughlin,  M. F. S. J. Menger,  
 J.-M. Mewes,  S. A. Mewes,  P. Morgante,  Mohammad Mostafanejad,  
 J. W. Mullinax,  K. J. Oosterbaan,  G. Paran,  V. Parravicini,  
 Alexander C. Paul,  Suranjan K. Paul,  F. Pavosevic,  Zheng Pei,  S. Prager,  
 E. I. Proynov,  E. Ramos,  B. Rana,  A. E. Rask,  A. Rettig,  R. M. Richard,  
 F. Rob,  E. Rossomme,  T. Scheele,  M. Scheurer,  M. Schneider,  
 P. E. Schneider,  N. Sergueev,  S. M. Sharada,  Hengyuan Shen,  
 W. Skomorowski,  D. W. Small,  C. J. Stein,  Yingli Su,  Yu-Chuan Su,  
 E. J. Sundstrom,  Zhen Tao,  J. Thirman,  Hung-Yi Tsai,  T. Tsuchimochi,  
 N. M. Tubman,  C. Utku,  S. P. Veccham,  O. Vydrov,  J. Wenzel,  
 Jonathan Wong,  J. Witte,  A. Yamada,  Chou-Hsun Yang,  Kun Yao,  
 S. Yeganeh,  S. R. Yost,  A. Zech,  F. Zeller,  Igor Ying Zhang,  
 Xing Zhang,  Yu Zhang,  D. Zuev,  A. Aspuru-Guzik,  A. T. Bell,  
 N. A. Besley,  K. B. Bravaya,  B. R. Brooks,  D. Casanova,  Jeng-Da Chai,  
 Hsing-Ta Chen,  S. Coriani,  C. J. Cramer,  A. E. DePrince, III,  
 R. A. DiStasio Jr.,  A. Dreuw,  B. D. Dunietz,  T. R. Furlani,  
 W. A. Goddard III,  S. Grimme,  S. Hammes-Schiffer,  T. Head-Gordon,  
 W. J. Hehre,  Chao-Ping Hsu,  T.-C. Jagau,  Yousung Jung,  A. Klamt,  
 Jing Kong,  D. S. Lambrecht,  Xiangyuan Li,  WanZhen Liang,  N. J. Mayhall,  
 C. W. McCurdy,  J. B. Neaton,  T. Neudecker,  C. Ochsenfeld,  
 J. A. Parkhill,  R. Peverati,  V. A. Rassolov,  Haisheng Ren,  Yihan Shao,  
 L. V. Slipchenko,  R. P. Steele,  J. E. Subotnik,  A. J. W. Thom,  
 A. Tkatchenko,  D. G. Truhlar,  T. Van Voorhis,  Fan Wang,  
 T. A. Wesolowski,  K. B. Whaley,  H. L. Woodcock III,  P. M. Zimmerman,  
 S. Faraji,  P. M. W. Gill,  M. Head-Gordon,  J. M. Herbert,  A. I. Krylov

 Contributors to earlier versions of Q-Chem not listed above: 
 R. D. Adamson,  B. Austin,  R. Baer,  J. Baker,  G. J. O. Beran,  
 K. Brandhorst,  S. T. Brown,  E. F. C. Byrd,  Arup K. Chakraborty,  
 G. K. L. Chan,  Chun-Min Chang,  Yunqing Chen,  C.-L. Cheng,  
 Siu Hung Chien,  D. M. Chipman,  D. L. Crittenden,  H. Dachsel,  
 R. J. Doerksen,  A. D. Dutoi,  R. G. Edgar,  J. Fosso-Tande,  
 L. Fusti-Molnar,  D. Ghosh,  A. Ghysels,  A. Golubeva-Zadorozhnaya,  
 J. Gonthier,  M. S. Gordon,  S. R. Gwaltney,  G. Hawkins,  J. E. Herr,  
 A. Heyden,  S. Hirata,  E. G. Hohenstein,  G. Kedziora,  F. J. Keil,  
 C. Kelley,  Jihan Kim,  R. A. King,  R. Z. Khaliullin,  P. P. Korambath,  
 W. Kurlancheek,  A. Laurent,  A. M. Lee,  M. S. Lee,  S. V. Levchenko,  
 Ching Yeh Lin,  D. Liotard,  E. Livshits,  R. C. Lochan,  I. Lotan,  
 L. A. Martinez-Martinez,  P. E. Maslen,  N. Nair,  D. P. O'Neill,  
 D. Neuhauser,  E. Neuscamman,  C. M. Oana,  R. Olivares-Amaya,  R. Olson,  
 T. M. Perrine,  B. Peters,  P. A. Pieniazek,  A. Prociuk,  Y. M. Rhee,  
 J. Ritchie,  M. A. Rohrdanz,  E. Rosta,  N. J. Russ,  H. F. Schaefer III,  
 M. W. Schmidt,  N. E. Schultz,  S. Sharma,  N. Shenvi,  C. D. Sherrill,  
 A. C. Simmonett,  A. Sodt,  T. Stein,  D. Stuck,  K. S. Thanthiriwatte,  
 V. Vanovschi,  L. Vogt,  Tao Wang,  A. Warshel,  M. A. Watson,  
 C. F. Williams,  Q. Wu,  X. Xu,  Jun Yang,  W. Zhang,  Yan Zhao

   Please cite Q-Chem as follows:
  "Software for the frontiers of quantum chemistry:
   An overview of developments in the Q-Chem 5 package"
   J. Chem. Phys. 155, 084801 (2021)
   https://doi.org/10.1063/5.0055522 (open access)

 Q-Chem 6.0.1 for Intel X86 EM64T Linux

 Parts of Q-Chem use Armadillo 9.900.5 (Nocturnal Misbehaviour).
 http://arma.sourceforge.net/

 Q-Chem begins on Wed Jun 21 09:20:16 2023  

 Host: atlas-185
0

     Scratch files written to ./qchem337494//
 Processing $rem in /scratch/abel/SOFTWARE/qchem/config/preferences:
 Processing $rem in /dipc/acebg/.qchemrc:

 Checking the input file for inconsistencies... 	...done.

--------------------------------------------------------------
User input:
--------------------------------------------------------------
$comment
 RAS-SF CALCULATION
$end

$molecule
 READ ncl.molecule
$end

$rem
!**CALCULATION TYPE***     
JOBTYPE            sp    
EXCHANGE           HF
CORRELATION        RASCI    !RASCI=Casanova; RASCI2=Zimmerman
BASIS              def2-TZVP

!***SCF REFERENCE***
!SKIP_SCFMAN        FALSE
UNRESTRICTED       FALSE
!SCF_GUESS          core
!SCF_GUESS_MIX      FALSE
!SCF_GUESS_ALWAYS   FALSE
MAX_SCF_CYCLES     500
!SCF_CONVERGENCE    8
!SCF_ALGORITHM      DIIS !DIIS,DM,DIIS_DM,GDM,DIIS_GDM,GD

!SYMMETRY           TRUE !use of symmetry for calculating integrals
!SYM_IGNORE         FALSE !turn off using symmetry
!SYM_TOL            5 !tolerance for determining point group

!THRESH             14
SCF_FINAL_PRINT     1 !0,1,2,3

!****RAS-SF****
RAS_ROOTS          20       !number of RAS-CI roots to be computed
SET_ITER           150     !number of iterations in RASCI
RAS_ELEC           12       !number of electrons in RAS2
RAS_ELEC_ALPHA     7       !spin-α electrons in RAS2 
RAS_ELEC_BETA      5      !spin-β electrons in RAS2

RAS_ACT            9       !number of orbitals in RAS2 
RAS_ACT_ORB   [7,8,9,10,11,12,13,14,15]  !user-selected RAS2 orbitals
RAS_OCC            6       !number of orbitals in RAS1
!N_FROZEN_CORE      0     !Number of frozen core orbitals
!N_FROZEN_VIRTUAL   0      !Number of frozen virtual orbitals

RAS_DO_HOLE        TRUE   !presence of hole excitations in RAS-CI wave function
RAS_DO_PART        TRUE   !presence of particle excitations
!RAS_AMPL_PRINT     10     !threshold (×10 2 ) for the CI amplitudes

!RAS_GUESS_CS       0      !number of closed shell guess conﬁgurations
!RAS_SPIN_MULT      0      !spin multiplicity: 0=any, 2n+1=defined 
!RAS_SRDFT          FALSE  !short-range density functional RAS-CI
!RAS_NFRAG          0     !fragments of excitation analysis in RASCI

RAS_PRINT          2      !level of information
RAS_NATORB         TRUE   !computation of the natural orbital occupancies
!RAS_NATORB_STATE  0      !Saves NO of i RAS computed state in .fchk ﬁle
!RAS_FOD            TRUE

!****RAS-SOC****
CALC_SOC           TRUE   !calculate SOC for EOM-CC, RAS-CI, ADC, TDDFT/TDA and TDDFT
!RAS_SOC_2E        TRUE   !two-electron mean-ﬁeld contribution, default=true
RAS_SOC_SYM_DENS   TRUE   !averaging of α and β densities

!****MEMORY****
MEM_TOTAL          60000 !Default 2000 MB
MEM_STATIC         16000  !Default 64 MB

!**Molecular Properties and Analysis **                                                                                          
!GUI                2
STATE_ANALYSIS     TRUE
MOLDEN_FORMAT      TRUE
PRINT_ORBITALS     20
$end                                           

--------------------------------------------------------------
 ----------------------------------------------------------------
             Standard Nuclear Orientation (Angstroms)
    I     Atom           X                Y                Z
 ----------------------------------------------------------------
    1      N       0.0000000000     0.0000000000    -1.1435333333
    2      Cl      0.0000000000     0.0000000000     0.4708666667
 ----------------------------------------------------------------
 Molecular Point Group                 C2v   NOp =  4
 Largest Abelian Subgroup              C2v   NOp =  4
 Nuclear Repulsion Energy =          39.00649658 hartrees
 There are       13 alpha and       11 beta electrons
 Requested basis set is def2-TZVP
 There are 24 shells and 68 basis functions

 Q-Chem warning in module libmdc/get_mega.C, line 167:

 Allowed MEM_STATIC has been capped at MEM_STATIC=8191.
 Reduce the value of MEM_STATIC to silence this warning.


 Total QAlloc Memory Limit  60000 MB
 Mega-Array Size      8007 MB
 MEM_STATIC part      8191 MB


                       Distance Matrix (Angstroms)
             N (  1)
   Cl(  2)  1.614400
 
 A cutoff of  1.0D-09 yielded    293 shell pairs
 There are      2439 function pairs (      3242 Cartesian)
 Smallest overlap matrix eigenvalue = 4.16E-03

 Scale SEOQF with 1.000000e+00/1.000000e+00/1.000000e+00

 Standard Electronic Orientation quadrupole field applied
 Nucleus-field energy     =    -0.0000000138 hartrees
 Guess from superposition of atomic densities
 Warning:  Energy on first SCF cycle will be non-variational
 SAD guess density has 24.000000 electrons

 -----------------------------------------------------------------------
  General SCF calculation program by
  Eric Jon Sundstrom, Paul Horn, Yuezhi Mao, Dmitri Zuev, Alec White,
  David Stuck, Shaama M.S., Shane Yost, Joonho Lee, David Small,
  Daniel Levine, Susi Lehtola, Hugh Burton, Evgeny Epifanovsky,
  Bang C. Huynh
 -----------------------------------------------------------------------
 Hartree-Fock
 Orthonormalizing orbitals
 A restricted open-shell SCF calculation will be
 performed using GDM
 SCF converges when RMS gradient is below 1.0e-05
 ---------------------------------------
  Cycle       Energy        RMS Gradient
 ---------------------------------------
    1    -512.5932851112      5.19e-01   Descent step
    2    -512.9357365690      5.16e-01   Descent step
    3    -513.1796328356      2.88e-01   Descent step
Fro norm of D 1.210047825700e+00
transformation scaled by 2
    4    -513.3305476382      5.85e-01   Descent step
    5    -513.6325984440      2.20e-01   Dog-leg BFGS step
    6    -513.6744458571      1.18e-01   Dog-leg BFGS step
    7    -513.6816061910      1.01e-01   Dog-leg BFGS step
    8    -513.6785261843      1.08e-01  Line search: overstep
    9    -513.6985893053      7.66e-02   Dog-leg BFGS step
   10    -513.6663028662      1.38e-01  Line search: overstep
   11    -513.7023760696      2.60e-02   Normal BFGS step
   12    -513.7045420141      9.32e-03   Normal BFGS step
   13    -513.7044428078      1.52e-02  Line search: overstep
   14    -513.7047181856      7.73e-03   Normal BFGS step
   15    -513.7047732561      8.12e-03   Normal BFGS step
   16    -513.7047857304      7.98e-03   Normal BFGS step
   17    -513.7048029221      7.50e-03   Normal BFGS step
   18    -513.7048442321      7.02e-03   Normal BFGS step
   19    -513.7049149872      6.83e-03   Normal BFGS step
   20    -513.7050049516      4.85e-03   Normal BFGS step
   21    -513.7050604436      2.90e-03   Normal BFGS step
   22    -513.7050740023      3.11e-03   Normal BFGS step
   23    -513.7050781174      3.87e-04   Normal BFGS step
   24    -513.7050782472      2.41e-05   Normal BFGS step
   25    -513.7050782496      1.16e-05   Normal BFGS step
   26    -513.7050782511      5.50e-06  Convergence criterion met
The disked orbital energies are calculated using alpha and beta Focks
 ---------------------------------------
 Alpha HF Exchange    Energy = -17.63767153292468
 Beta HF Exchange     Energy = -16.48563070712889
 Nuclear Attraction   Energy =   0.00000000000000
 One-Electron (alpha) Energy = -403.33675760092331
 One-Electron (beta)  Energy = -382.47057678572730
 Total Coulomb        Energy = 267.21906180544289
 Final Alpha MO Eigenvalues
            1           2           3           4           5           6
    1-104.9289004 -15.6594081 -10.6505028  -8.1230474  -8.1153499  -8.1132310
            7           8           9          10          11          12
    1  -1.2939017  -0.9577126  -0.5986102  -0.5725314  -0.4101337  -0.7108590
           13          14          15          16          17          18
    1  -0.5228042   0.1537840   0.3552439   0.4106868   0.4439342   0.4577126
           19          20          21          22          23          24
    1   0.4778102   0.4954393   0.5210807   0.5824651   0.5825405   0.6285535
           25          26          27          28          29          30
    1   0.6396549   0.8602527   1.1490083   1.2208803   1.2219248   1.4538474
           31          32          33          34          35          36
    1   1.4858492   1.6243627   2.0438994   2.0439015   2.0430625   2.0510142
           37          38          39          40          41          42
    1   2.1103959   2.1296690   2.2661430   2.3153237   2.3628969   2.3628996
           43          44          45          46          47          48
    1   2.3679220   2.3683883   2.4154538   2.4758502   2.4833131   2.8144279
           49          50          51          52          53          54
    1   2.8410769   2.8422778   3.7183864   4.2159530   4.2159209   4.2751957
           55          56          57          58          59          60
    1   4.2752727   4.5597619   4.6040130   4.8237664   4.8279725   4.9363316
           61          62          63          64          65          66
    1   5.1002265   5.1488023   5.3625673  11.4002608  11.4047269  11.7032277
           67          68
    1  25.7774710  32.5767861
 Final Beta MO Eigenvalues
            1           2           3           4           5           6
    1-104.9250839 -15.6010731 -10.6465919  -8.1089654  -8.1104499  -8.1114162
            7           8           9          10          11          12
    1  -1.2000158  -0.8139744  -0.5686722  -0.5244151  -0.3481649  -0.0434775
           13          14          15          16          17          18
    1   0.1848830   0.2138507   0.3751655   0.4668808   0.4657371   0.4646463
           19          20          21          22          23          24
    1   0.5359064   0.5577137   0.5390312   0.5920581   0.5921093   0.6838465
           25          26          27          28          29          30
    1   0.6706102   0.8999799   1.1798167   1.2988953   1.2987587   1.5511858
           31          32          33          34          35          36
    1   1.5364321   1.6829894   2.0487756   2.0487720   2.0616273   2.0638438
           37          38          39          40          41          42
    1   2.1375418   2.2411479   2.3844966   2.3449599   2.3684264   2.3684268
           43          44          45          46          47          48
    1   2.3862767   2.3863234   2.4404932   2.4866840   2.4885976   2.8626378
           49          50          51          52          53          54
    1   2.8633613   2.8902338   3.7492933   4.2781448   4.2783224   4.3332688
           55          56          57          58          59          60
    1   4.3334949   4.6371719   4.6397575   4.9301509   4.9274471   4.9851824
           61          62          63          64          65          66
    1   5.2179851   5.2169291   5.4476483  11.4051447  11.4067615  11.7154239
           67          68
    1  25.7833942  32.6203556
 SCF time:   CPU 14.08s  wall 16.00s 
<S^2> =          2.000000000
 SCF   energy in the final basis set =     -513.7050782511
 Total energy in the final basis set =     -513.7050782511
  
     ##========================================##
     ||                                        ||
     ||              R A S M A N 2             ||
     ||________________________________________||
     ||                                        ||
     ||  Author:                               ||
     ||                                        ||
     ||        David Casanova (2010)           ||
     ||                                        ||
     ##========================================##
  
Setting single-point xc-functionals (if necessary)

  ***************************************************
  *  RAS-CI Dimensions:                             *
  *                                                 *
  *  Active Elec.:  12 ( 7, 5)   Active Orb.:   9   *
  *  Doubly Occ. :   6           Doubly Vir.:  53   *
  *  Frozen Occ. :   0           Frozen Vir.:   0   *
  *                                                 *
  *  Total CI configurations:    830844             * 
  *    Active configurations:      4536             * 
  *      Hole configurations:     24948             * 
  *  Particle configurations:    801360             * 
  *                                                 *
  *   Requested states:       20                    *
  *  Spin multiplicity: Any multiplicity            *
  *                                                 *
  ***************************************************
-----------------------------------------
    Memory requirements of RASCI

 Each CI-vector requires      6.34 MiB 
 Max. subspace vectors           3000      

 Reduced Lists                0.00 MiB 
 Excitation Lists             0.01 MiB 
 Excitation Lists Sign        0.01 MiB 
 CI-space (Max)           19211.97 MiB 
 Integrals                    6.44 MiB 
 Memory required (Max)    19211.99 MiB 
 Memory available          7811.55 MiB 

 Q-Chem warning in module rasman2/ras_mem_check.C, line 162:

 Static memory may be insufficient to store the subspace vectors


    Disk requirements of RASCI

 Fock matrix                  0.07 MiB 
 2-electron integrals         8.18 MiB 
 CI-space                 38033.02 MiB 
 Disk required            38041.27 MiB 
-----------------------------------------
  
RAS1 HF-like energy:           -477.9999993663
 Computing integrals
 Computing J and K matrices
 Computing addressing
 Making amplitude guesses
 
Direct CI diagonalization
 ---------------------------------------------------
 Iter    Rts Conv    Rts Left    Ttl Dev     Max Dev
 ---------------------------------------------------
   1         0          20      0.016041    0.001258
   2         0          20      0.009698    0.000736
   3         0          20      0.010906    0.000925
   4         0          20      0.006465    0.000513
   5         0          20      0.008470    0.000678
   6         0          20      0.006306    0.000555
   7         0          20      0.003651    0.000313
   8         0          20      0.003353    0.000325
   9         0          20      0.003772    0.000867
  10         0          20      0.006179    0.001535
  11         0          20      0.003699    0.000819
  12         0          20      0.002879    0.000639
  13         0          20      0.003005    0.000598
  14         0          20      0.003557    0.000613
  15         0          20      0.004235    0.000727
  16         0          20      0.002610    0.000475
  17         0          20      0.002533    0.000382
  18         0          20      0.002650    0.000402
  19         0          20      0.003334    0.000498
  20         0          20      0.002505    0.000510
  21         0          20      0.002026    0.000345
  22         0          20      0.001871    0.000319
  23         0          20      0.002492    0.000422
  24         0          20      0.002517    0.000381
  25         1          19      0.002726    0.000447
  26         2          18      0.002299    0.000416
  27         2          18      0.002129    0.000332
  28         2          18      0.002118    0.000355
  29         3          17      0.001716    0.000276
  30         3          17      0.001500    0.000256
  31         3          17      0.001213    0.000234
  32         4          16      0.001249    0.000292
  33         6          14      0.001163    0.000305
  34         8          12      0.000933    0.000219
  35         9          11      0.000723    0.000148
  36         9          11      0.000611    0.000129
  37         9          11      0.000578    0.000135
  38         9          11      0.000465    0.000106
  39         9          11      0.000364    0.000073
  40        10          10      0.000280    0.000056
  41        10          10      0.000251    0.000053
  42         9          11      0.000229    0.000055
  43        10          10      0.000189    0.000043
  44        10          10      0.000145    0.000028
  45        10          10      0.000120    0.000024
  46        11           9      0.000102    0.000021
  47        12           8      0.000093    0.000021
  48        12           8      0.000072    0.000014
  49        12           8      0.000056    0.000012
  50        12           8      0.000046    0.000011
  51        12           8      0.000036    0.000007
  52        13           7      0.000032    0.000006
  53        14           6      0.000028    0.000006
  54        14           6      0.000024    0.000006
  55        15           5      0.000020    0.000005
  56        16           4      0.000017    0.000003
  57        17           3      0.000016    0.000003
  58        18           2      0.000016    0.000003
  59        18           2      0.000015    0.000003
  60        18           2      0.000013    0.000002
  61        19           1      0.000013    0.000002
  62        19           1      0.000013    0.000002
  63        19           1      0.000012    0.000001
  64        19           1      0.000012    0.000001
  65        20           0      0.000012    0.000001    Roots Converged
 ---------------------------------------------------
   
**************************************************
 RAS-CI total energy for state   1:   -514.029945500791
  Excitation energy (eV) =  0.000000000000
  State symmetry: A2    (C2v      )
  <S^2>      :  2.0000
  Dipole Moment:   -0.0000 X    -0.0000 Y    -0.4560 Z
 NATURAL OCCUPATION NUMBERS (higher than 1.0E-05)
            1           2           3           4           5           6
    1   2.0000000   1.9999997   1.9999995   1.9999995   1.9999991   1.9999988
            7           8           9          10          11          12
    1   1.9902927   1.9751579   1.9721887   1.9721825   1.9545820   1.0117047
           13          14          15          16          17          18
    1   1.0116259   0.0521473   0.0086279   0.0084756   0.0084325   0.0043698
           19          20          21          22          23          24
    1   0.0042227   0.0033963   0.0033895   0.0025736   0.0025575   0.0021751
           25          26          27          28          29          30
    1   0.0020991   0.0015204   0.0014629   0.0014507   0.0010001   0.0009927
           31          32          33          34          35          36
    1   0.0005873   0.0003913   0.0002523   0.0002080   0.0002023   0.0001828
           37          38          39          40          41          42
    1   0.0001760   0.0001742   0.0001013   0.0000957   0.0000944   0.0000869
           43          44          45          46          47          48
    1   0.0000869   0.0000692   0.0000691   0.0000672   0.0000663   0.0000557
           49          50          51          52          53          54
    1   0.0000542   0.0000526   0.0000513   0.0000399   0.0000325   0.0000306
           55          56          57          58          59          60
    1   0.0000303   0.0000258   0.0000255   0.0000186   0.0000185   0.0000101
 Created directory ./qchem337494/plots

  Amplitudes : 
  
 | HOLE  | ALPHA     | BETA      | PART  |    AMPLITUDE 
--------------------------------------------------
 |       | 111111100 | 111101000 |       |     9.1809662835093E-01
 |       | 111111100 | 111001100 |       |    -1.2054404139712E-01
 |       | 111111100 | 110111000 |       |     1.8988114909630E-01
--------------------------------------------------
*** Contributions RASCI wfn    Active:  93.21
                                 Hole:   0.00
                                 Part:   6.79

      Mulliken population analysis 
 ---------------------------------------------------
   Atom    Charge (a.u.)   Spin (a.u.)  
 ---------------------------------------------------
   1  N   -0.184243        1.711692 
   2 Cl    0.184243        0.288308 
 ---------------------------------------------------
   Sum:   -0.000000        2.000000 
 ---------------------------------------------------
 
  
 NATURAL OCCUPATION NUMBERS (higher than 1.0E-05)
            1           2           3           4           5           6
    1   2.0000000   1.9999997   1.9999995   1.9999995   1.9999991   1.9999988
            7           8           9          10          11          12
    1   1.9902927   1.9751579   1.9721887   1.9721825   1.9545820   1.0117047
           13          14          15          16          17          18
    1   1.0116259   0.0521473   0.0086279   0.0084756   0.0084325   0.0043698
           19          20          21          22          23          24
    1   0.0042227   0.0033963   0.0033895   0.0025736   0.0025575   0.0021751
           25          26          27          28          29          30
    1   0.0020991   0.0015204   0.0014629   0.0014507   0.0010001   0.0009927
           31          32          33          34          35          36
    1   0.0005873   0.0003913   0.0002523   0.0002080   0.0002023   0.0001828
           37          38          39          40          41          42
    1   0.0001760   0.0001742   0.0001013   0.0000957   0.0000944   0.0000869
           43          44          45          46          47          48
    1   0.0000869   0.0000692   0.0000691   0.0000672   0.0000663   0.0000557
           49          50          51          52          53          54
    1   0.0000542   0.0000526   0.0000513   0.0000399   0.0000325   0.0000306
           55          56          57          58          59          60
    1   0.0000303   0.0000258   0.0000255   0.0000186   0.0000185   0.0000101
  
*** Unpaired Electrons
 Yamaguchi Nd:         2.49
 Head-Gordon Nu:       2.22
 Head-Gordon Nu_nl:    2.03
  
**************************************************
 RAS-CI total energy for state   2:   -513.834255248028
  Excitation energy (eV) =  5.325002705353
  State symmetry: B1    (C2v      )
  <S^2>      :  2.0000
  Dipole Moment:   -0.0000 X    -0.0000 Y    -0.0552 Z
  Trans. Moment:   -0.0000 X    -0.1274 Y     0.0000 Z
  Strength   :  0.002119
  Natural transition orbitals ( 1 -> 2 ):
   e-/hole pair  1 alpha:  ampl =  0.897278 ( 80.5%)   [9 : 10]
   e-/hole pair  2 alpha:  ampl =  0.045374 (  0.2%)   [8 : 11]
   e-/hole pair  1 beta :  ampl =  0.209980 (  4.4%)   [9 : 10]
   e-/hole pair  2 beta :  ampl =  0.030655 (  0.1%)   [8 : 11]
   Sum of square amplitudes: 0.86

 NATURAL OCCUPATION NUMBERS (higher than 1.0E-05)
            1           2           3           4           5           6
    1   2.0000000   1.9999998   1.9999996   1.9999996   1.9999990   1.9999980
            7           8           9          10          11          12
    1   1.9892130   1.9694898   1.9631716   1.9132729   1.8911003   1.0216212
           13          14          15          16          17          18
    1   0.9575174   0.2276118   0.0116845   0.0087156   0.0076935   0.0059804
           19          20          21          22          23          24
    1   0.0051251   0.0043658   0.0041151   0.0022818   0.0022505   0.0022366
           25          26          27          28          29          30
    1   0.0021446   0.0016689   0.0015439   0.0014318   0.0009632   0.0009143
           31          32          33          34          35          36
    1   0.0006591   0.0004703   0.0003586   0.0002093   0.0002075   0.0002065
           37          38          39          40          41          42
    1   0.0002052   0.0001875   0.0001739   0.0001620   0.0001086   0.0000976
           43          44          45          46          47          48
    1   0.0000750   0.0000737   0.0000728   0.0000688   0.0000567   0.0000516
           49          50          51          52          53          54
    1   0.0000504   0.0000495   0.0000483   0.0000451   0.0000433   0.0000419
           55          56          57          58          59          60
    1   0.0000358   0.0000310   0.0000271   0.0000192   0.0000144   0.0000125

  Amplitudes : 
  
 | HOLE  | ALPHA     | BETA      | PART  |    AMPLITUDE 
--------------------------------------------------
 |       | 111111100 | 111100100 |       |     2.0484778171032E-01
 |       | 111111010 | 111101000 |       |     7.5778186789089E-01
 |       | 111111010 | 111001100 |       |    -2.9195854846203E-01
 |       | 111111001 | 111101000 |       |    -1.1536332020505E-01
 |       | 111011110 | 111101000 |       |     3.3917406592465E-01
 |       | 111011110 | 110111000 |       |     1.2988025562407E-01
 |       | 111111000 | 111101000 |  19   |    -1.1129682194000E-01
--------------------------------------------------
*** Contributions RASCI wfn    Active:  89.72
                                 Hole:   0.00
                                 Part:  10.28

      Mulliken population analysis 
 ---------------------------------------------------
   Atom    Charge (a.u.)   Spin (a.u.)  
 ---------------------------------------------------
   1  N   -0.043783        1.210811 
   2 Cl    0.043783        0.789189 
 ---------------------------------------------------
   Sum:   -0.000000        2.000000 
 ---------------------------------------------------
 
  
 NATURAL OCCUPATION NUMBERS (higher than 1.0E-05)
            1           2           3           4           5           6
    1   2.0000000   1.9999998   1.9999996   1.9999996   1.9999990   1.9999980
            7           8           9          10          11          12
    1   1.9892130   1.9694898   1.9631716   1.9132729   1.8911003   1.0216212
           13          14          15          16          17          18
    1   0.9575174   0.2276118   0.0116845   0.0087156   0.0076935   0.0059804
           19          20          21          22          23          24
    1   0.0051251   0.0043658   0.0041151   0.0022818   0.0022505   0.0022366
           25          26          27          28          29          30
    1   0.0021446   0.0016689   0.0015439   0.0014318   0.0009632   0.0009143
           31          32          33          34          35          36
    1   0.0006591   0.0004703   0.0003586   0.0002093   0.0002075   0.0002065
           37          38          39          40          41          42
    1   0.0002052   0.0001875   0.0001739   0.0001620   0.0001086   0.0000976
           43          44          45          46          47          48
    1   0.0000750   0.0000737   0.0000728   0.0000688   0.0000567   0.0000516
           49          50          51          52          53          54
    1   0.0000504   0.0000495   0.0000483   0.0000451   0.0000433   0.0000419
           55          56          57          58          59          60
    1   0.0000358   0.0000310   0.0000271   0.0000192   0.0000144   0.0000125
  
*** Unpaired Electrons
 Yamaguchi Nd:         3.06
 Head-Gordon Nu:       2.50
 Head-Gordon Nu_nl:    2.24
  
**************************************************
 RAS-CI total energy for state   3:   -513.834064880699
  Excitation energy (eV) =  5.330182863933
  State symmetry: B2    (C2v      )
  <S^2>      :  2.0000
  Dipole Moment:   -0.0000 X    -0.0000 Y    -0.1258 Z
  Trans. Moment:   -0.1700 X     0.0000 Y     0.0000 Z
  Strength   :  0.003775
  Natural transition orbitals ( 1 -> 3 ):
   e-/hole pair  1 alpha:  ampl =  0.819382 ( 67.1%)   [9 : 10]
   e-/hole pair  2 alpha:  ampl =  0.041989 (  0.2%)   [8 : 11]
   e-/hole pair  1 beta :  ampl =  0.435674 ( 19.0%)   [9 : 10]
   e-/hole pair  2 beta :  ampl =  0.033603 (  0.1%)   [8 : 11]
   Sum of square amplitudes: 0.87

 NATURAL OCCUPATION NUMBERS (higher than 1.0E-05)
            1           2           3           4           5           6
    1   2.0000000   1.9999998   1.9999996   1.9999994   1.9999991   1.9999979
            7           8           9          10          11          12
    1   1.9889983   1.9672262   1.9641920   1.9087231   1.7617350   1.0198951
           13          14          15          16          17          18
    1   0.8047980   0.5181726   0.0103117   0.0086175   0.0075377   0.0068293
           19          20          21          22          23          24
    1   0.0055384   0.0040351   0.0038528   0.0022372   0.0022144   0.0022131
           25          26          27          28          29          30
    1   0.0020149   0.0019617   0.0015923   0.0014174   0.0010264   0.0009387
           31          32          33          34          35          36
    1   0.0006507   0.0004393   0.0003354   0.0002377   0.0002148   0.0002108
           37          38          39          40          41          42
    1   0.0002099   0.0001891   0.0001746   0.0001744   0.0001008   0.0000904
           43          44          45          46          47          48
    1   0.0000835   0.0000756   0.0000729   0.0000704   0.0000697   0.0000617
           49          50          51          52          53          54
    1   0.0000588   0.0000514   0.0000502   0.0000463   0.0000401   0.0000392
           55          56          57          58          59          60
    1   0.0000385   0.0000309   0.0000284   0.0000181   0.0000179   0.0000177

  Amplitudes : 
  
 | HOLE  | ALPHA     | BETA      | PART  |    AMPLITUDE 
--------------------------------------------------
 |       | 111111100 | 111110000 |       |     4.3772091373937E-01
 |       | 111101110 | 111101000 |       |     7.8250283039817E-01
 |       | 111101110 | 111001100 |       |    -1.6641641428379E-01
 |       | 111101101 | 111101000 |       |    -1.2077977565476E-01
 |       | 110111110 | 110111000 |       |    -1.4097469537768E-01
 |       | 111101100 | 111101000 |  19   |    -1.1119495799681E-01
--------------------------------------------------
*** Contributions RASCI wfn    Active:  90.71
                                 Hole:   0.00
                                 Part:   9.29

      Mulliken population analysis 
 ---------------------------------------------------
   Atom    Charge (a.u.)   Spin (a.u.)  
 ---------------------------------------------------
   1  N   -0.078773        1.283574 
   2 Cl    0.078773        0.716426 
 ---------------------------------------------------
   Sum:   -0.000000        2.000000 
 ---------------------------------------------------
 
  
 NATURAL OCCUPATION NUMBERS (higher than 1.0E-05)
            1           2           3           4           5           6
    1   2.0000000   1.9999998   1.9999996   1.9999994   1.9999991   1.9999979
            7           8           9          10          11          12
    1   1.9889983   1.9672262   1.9641920   1.9087231   1.7617350   1.0198951
           13          14          15          16          17          18
    1   0.8047980   0.5181726   0.0103117   0.0086175   0.0075377   0.0068293
           19          20          21          22          23          24
    1   0.0055384   0.0040351   0.0038528   0.0022372   0.0022144   0.0022131
           25          26          27          28          29          30
    1   0.0020149   0.0019617   0.0015923   0.0014174   0.0010264   0.0009387
           31          32          33          34          35          36
    1   0.0006507   0.0004393   0.0003354   0.0002377   0.0002148   0.0002108
           37          38          39          40          41          42
    1   0.0002099   0.0001891   0.0001746   0.0001744   0.0001008   0.0000904
           43          44          45          46          47          48
    1   0.0000835   0.0000756   0.0000729   0.0000704   0.0000697   0.0000617
           49          50          51          52          53          54
    1   0.0000588   0.0000514   0.0000502   0.0000463   0.0000401   0.0000392
           55          56          57          58          59          60
    1   0.0000385   0.0000309   0.0000284   0.0000181   0.0000179   0.0000177
  
*** Unpaired Electrons
 Yamaguchi Nd:         3.61
 Head-Gordon Nu:       2.78
 Head-Gordon Nu_nl:    2.73
  
**************************************************
 RAS-CI total energy for state   4:   -513.831484808881
  Excitation energy (eV) =  5.400390190151
  State symmetry: B2    (C2v      )
  <S^2>      :  2.0000
  Dipole Moment:   -0.0000 X    -0.0000 Y    -0.3289 Z
  Trans. Moment:   -0.1311 X     0.0000 Y    -0.0000 Z
  Strength   :  0.002274
  Natural transition orbitals ( 1 -> 4 ):
   e-/hole pair  1 alpha:  ampl =  0.419943 ( 17.6%)   [9 : 10]
   e-/hole pair  2 alpha:  ampl =  0.030884 (  0.1%)   [8 : 11]
   e-/hole pair  1 beta :  ampl =  0.854507 ( 73.0%)   [9 : 10]
   e-/hole pair  2 beta :  ampl =  0.044729 (  0.2%)   [8 : 11]
   Sum of square amplitudes: 0.91

 NATURAL OCCUPATION NUMBERS (higher than 1.0E-05)
            1           2           3           4           5           6
    1   2.0000000   1.9999997   1.9999996   1.9999996   1.9999992   1.9999984
            7           8           9          10          11          12
    1   1.9867732   1.9701292   1.9648174   1.9626995   1.5972974   1.2042702
           13          14          15          16          17          18
    1   1.0113185   0.2404577   0.0094533   0.0085994   0.0074198   0.0061532
           19          20          21          22          23          24
    1   0.0039051   0.0033858   0.0033024   0.0030346   0.0022269   0.0021270
           25          26          27          28          29          30
    1   0.0017569   0.0017145   0.0017093   0.0013780   0.0013758   0.0009458
           31          32          33          34          35          36
    1   0.0005851   0.0003294   0.0003202   0.0002738   0.0002704   0.0002390
           37          38          39          40          41          42
    1   0.0002186   0.0001995   0.0001168   0.0000970   0.0000940   0.0000922
           43          44          45          46          47          48
    1   0.0000917   0.0000901   0.0000736   0.0000721   0.0000707   0.0000683
           49          50          51          52          53          54
    1   0.0000646   0.0000534   0.0000504   0.0000404   0.0000397   0.0000348
           55          56          57          58          59          60
    1   0.0000342   0.0000291   0.0000259   0.0000242   0.0000208   0.0000129

  Amplitudes : 
  
 | HOLE  | ALPHA     | BETA      | PART  |    AMPLITUDE 
--------------------------------------------------
 |       | 111111100 | 111110000 |       |     8.4601392864958E-01
 |       | 111101110 | 111101000 |       |    -4.0099237905421E-01
--------------------------------------------------
*** Contributions RASCI wfn    Active:  93.10
                                 Hole:   0.00
                                 Part:   6.90

      Mulliken population analysis 
 ---------------------------------------------------
   Atom    Charge (a.u.)   Spin (a.u.)  
 ---------------------------------------------------
   1  N   -0.230333        1.433988 
   2 Cl    0.230333        0.566012 
 ---------------------------------------------------
   Sum:   -0.000000        2.000000 
 ---------------------------------------------------
 
  
 NATURAL OCCUPATION NUMBERS (higher than 1.0E-05)
            1           2           3           4           5           6
    1   2.0000000   1.9999997   1.9999996   1.9999996   1.9999992   1.9999984
            7           8           9          10          11          12
    1   1.9867732   1.9701292   1.9648174   1.9626995   1.5972974   1.2042702
           13          14          15          16          17          18
    1   1.0113185   0.2404577   0.0094533   0.0085994   0.0074198   0.0061532
           19          20          21          22          23          24
    1   0.0039051   0.0033858   0.0033024   0.0030346   0.0022269   0.0021270
           25          26          27          28          29          30
    1   0.0017569   0.0017145   0.0017093   0.0013780   0.0013758   0.0009458
           31          32          33          34          35          36
    1   0.0005851   0.0003294   0.0003202   0.0002738   0.0002704   0.0002390
           37          38          39          40          41          42
    1   0.0002186   0.0001995   0.0001168   0.0000970   0.0000940   0.0000922
           43          44          45          46          47          48
    1   0.0000917   0.0000901   0.0000736   0.0000721   0.0000707   0.0000683
           49          50          51          52          53          54
    1   0.0000646   0.0000534   0.0000504   0.0000404   0.0000397   0.0000348
           55          56          57          58          59          60
    1   0.0000342   0.0000291   0.0000259   0.0000242   0.0000208   0.0000129
  
*** Unpaired Electrons
 Yamaguchi Nd:         3.38
 Head-Gordon Nu:       2.61
 Head-Gordon Nu_nl:    2.53
  
**************************************************
 RAS-CI total energy for state   5:   -513.830549562364
  Excitation energy (eV) =  5.425839542684
  State symmetry: B1    (C2v      )
  <S^2>      :  2.0000
  Dipole Moment:   -0.0000 X     0.0000 Y    -0.4029 Z
  Trans. Moment:   -0.0000 X    -0.1659 Y    -0.0000 Z
  Strength   :  0.003659
  Natural transition orbitals ( 1 -> 5 ):
   e-/hole pair  1 alpha:  ampl =  0.202447 (  4.1%)   [9 : 10]
   e-/hole pair  2 alpha:  ampl =  0.033388 (  0.1%)   [8 : 11]
   e-/hole pair  1 beta :  ampl =  0.935849 ( 87.6%)   [9 : 10]
   e-/hole pair  2 beta :  ampl =  0.050398 (  0.3%)   [8 : 11]
   Sum of square amplitudes: 0.93

 NATURAL OCCUPATION NUMBERS (higher than 1.0E-05)
            1           2           3           4           5           6
    1   2.0000000   1.9999998   1.9999997   1.9999996   1.9999991   1.9999982
            7           8           9          10          11          12
    1   1.9869074   1.9805957   1.9732639   1.9630042   1.8883873   1.0523677
           13          14          15          16          17          18
    1   1.0080387   0.0870291   0.0107591   0.0088664   0.0070346   0.0047098
           19          20          21          22          23          24
    1   0.0033720   0.0031461   0.0030028   0.0027405   0.0022058   0.0020723
           25          26          27          28          29          30
    1   0.0019180   0.0018947   0.0016185   0.0013614   0.0012493   0.0009556
           31          32          33          34          35          36
    1   0.0005244   0.0003469   0.0002883   0.0002589   0.0002423   0.0002336
           37          38          39          40          41          42
    1   0.0002107   0.0001770   0.0001207   0.0000891   0.0000873   0.0000866
           43          44          45          46          47          48
    1   0.0000765   0.0000763   0.0000751   0.0000737   0.0000660   0.0000601
           49          50          51          52          53          54
    1   0.0000556   0.0000510   0.0000438   0.0000419   0.0000368   0.0000333
           55          56          57          58          59          60
    1   0.0000324   0.0000272   0.0000243   0.0000189   0.0000170   0.0000105

  Amplitudes : 
  
 | HOLE  | ALPHA     | BETA      | PART  |    AMPLITUDE 
--------------------------------------------------
 |       | 111111100 | 111100100 |       |     9.0139389085138E-01
 |       | 111111100 | 110110100 |       |     2.2342832117492E-01
 |       | 111111010 | 111101000 |       |    -1.7517941956732E-01
--------------------------------------------------
*** Contributions RASCI wfn    Active:  92.79
                                 Hole:   0.00
                                 Part:   7.21

      Mulliken population analysis 
 ---------------------------------------------------
   Atom    Charge (a.u.)   Spin (a.u.)  
 ---------------------------------------------------
   1  N   -0.267125        1.495899 
   2 Cl    0.267125        0.504101 
 ---------------------------------------------------
   Sum:   -0.000000        2.000000 
 ---------------------------------------------------
 
  
 NATURAL OCCUPATION NUMBERS (higher than 1.0E-05)
            1           2           3           4           5           6
    1   2.0000000   1.9999998   1.9999997   1.9999996   1.9999991   1.9999982
            7           8           9          10          11          12
    1   1.9869074   1.9805957   1.9732639   1.9630042   1.8883873   1.0523677
           13          14          15          16          17          18
    1   1.0080387   0.0870291   0.0107591   0.0088664   0.0070346   0.0047098
           19          20          21          22          23          24
    1   0.0033720   0.0031461   0.0030028   0.0027405   0.0022058   0.0020723
           25          26          27          28          29          30
    1   0.0019180   0.0018947   0.0016185   0.0013614   0.0012493   0.0009556
           31          32          33          34          35          36
    1   0.0005244   0.0003469   0.0002883   0.0002589   0.0002423   0.0002336
           37          38          39          40          41          42
    1   0.0002107   0.0001770   0.0001207   0.0000891   0.0000873   0.0000866
           43          44          45          46          47          48
    1   0.0000765   0.0000763   0.0000751   0.0000737   0.0000660   0.0000601
           49          50          51          52          53          54
    1   0.0000556   0.0000510   0.0000438   0.0000419   0.0000368   0.0000333
           55          56          57          58          59          60
    1   0.0000324   0.0000272   0.0000243   0.0000189   0.0000170   0.0000105
  
*** Unpaired Electrons
 Yamaguchi Nd:         2.68
 Head-Gordon Nu:       2.29
 Head-Gordon Nu_nl:    2.08
  
**************************************************
 RAS-CI total energy for state   6:   -513.810846496680
  Excitation energy (eV) =  5.961987238305
  State symmetry: A2    (C2v      )
  <S^2>      :  2.0000
  Dipole Moment:   -0.0000 X    -0.0000 Y    -1.3651 Z
  Trans. Moment:   -0.0000 X     0.0000 Y     0.0296 Z
  Strength   :  0.000128
  Natural transition orbitals ( 1 -> 6 ):
   e-/hole pair  1 alpha:  ampl =  0.022832 (  0.1%)   [9 : 10]
   e-/hole pair  2 alpha:  ampl =  0.017811 (  0.0%)   [8 : 11]
   e-/hole pair  1 beta :  ampl =  0.685040 ( 46.9%)   [9 : 10]
   e-/hole pair  2 beta :  ampl =  0.635470 ( 40.4%)   [8 : 11]
   Sum of square amplitudes: 0.88

 NATURAL OCCUPATION NUMBERS (higher than 1.0E-05)
            1           2           3           4           5           6
    1   2.0000000   1.9999997   1.9999994   1.9999991   1.9999989   1.9999988
            7           8           9          10          11          12
    1   1.9854656   1.9768371   1.9584118   1.5338134   1.5232421   1.4632173
           13          14          15          16          17          18
    1   1.4511431   0.0474118   0.0088439   0.0082035   0.0080408   0.0049364
           19          20          21          22          23          24
    1   0.0046599   0.0038210   0.0033367   0.0022753   0.0022614   0.0022003
           25          26          27          28          29          30
    1   0.0021270   0.0013124   0.0012487   0.0011682   0.0009121   0.0008978
           31          32          33          34          35          36
    1   0.0004495   0.0004121   0.0004099   0.0003321   0.0003120   0.0002925
           37          38          39          40          41          42
    1   0.0002464   0.0002414   0.0001961   0.0001441   0.0001325   0.0001302
           43          44          45          46          47          48
    1   0.0000980   0.0000974   0.0000834   0.0000615   0.0000597   0.0000590
           49          50          51          52          53          54
    1   0.0000545   0.0000490   0.0000481   0.0000473   0.0000425   0.0000395
           55          56          57          58          59          60
    1   0.0000333   0.0000332   0.0000284   0.0000276   0.0000258   0.0000107

  Amplitudes : 
  
 | HOLE  | ALPHA     | BETA      | PART  |    AMPLITUDE 
--------------------------------------------------
 |       | 111111100 | 111101000 |       |    -2.1943887114173E-01
 |       | 111111100 | 111001100 |       |    -5.7048514647036E-01
 |       | 111111100 | 111000110 |       |    -1.0695168747956E-01
 |       | 111111100 | 110111000 |       |     6.2256556459809E-01
 |       | 111111100 | 110110010 |       |    -1.1486228209081E-01
 |       | 111111100 | 110011100 |       |     2.1292961456267E-01
 |       | 111110110 | 111001100 |       |    -1.1739296024590E-01
 |       | 111110110 | 110111000 |       |     1.2562355017924E-01
--------------------------------------------------
*** Contributions RASCI wfn    Active:  88.76
                                 Hole:   0.00
                                 Part:  11.23

      Mulliken population analysis 
 ---------------------------------------------------
   Atom    Charge (a.u.)   Spin (a.u.)  
 ---------------------------------------------------
   1  N   -0.560269        0.948664 
   2 Cl    0.560269        1.051336 
 ---------------------------------------------------
   Sum:   -0.000000        2.000000 
 ---------------------------------------------------
 
  
 NATURAL OCCUPATION NUMBERS (higher than 1.0E-05)
            1           2           3           4           5           6
    1   2.0000000   1.9999997   1.9999994   1.9999991   1.9999989   1.9999988
            7           8           9          10          11          12
    1   1.9854656   1.9768371   1.9584118   1.5338134   1.5232421   1.4632173
           13          14          15          16          17          18
    1   1.4511431   0.0474118   0.0088439   0.0082035   0.0080408   0.0049364
           19          20          21          22          23          24
    1   0.0046599   0.0038210   0.0033367   0.0022753   0.0022614   0.0022003
           25          26          27          28          29          30
    1   0.0021270   0.0013124   0.0012487   0.0011682   0.0009121   0.0008978
           31          32          33          34          35          36
    1   0.0004495   0.0004121   0.0004099   0.0003321   0.0003120   0.0002925
           37          38          39          40          41          42
    1   0.0002464   0.0002414   0.0001961   0.0001441   0.0001325   0.0001302
           43          44          45          46          47          48
    1   0.0000980   0.0000974   0.0000834   0.0000615   0.0000597   0.0000590
           49          50          51          52          53          54
    1   0.0000545   0.0000490   0.0000481   0.0000473   0.0000425   0.0000395
           55          56          57          58          59          60
    1   0.0000333   0.0000332   0.0000284   0.0000276   0.0000258   0.0000107
  
*** Unpaired Electrons
 Yamaguchi Nd:         3.39
 Head-Gordon Nu:       2.22
 Head-Gordon Nu_nl:    2.31
  
**************************************************
 RAS-CI total energy for state   7:   -513.810801718424
  Excitation energy (eV) =  5.963205716639
  State symmetry: A1    (C2v      )
  <S^2>      :  2.0000
  Dipole Moment:   -0.0000 X    -0.0000 Y    -1.3653 Z
  Trans. Moment:    0.0000 X     0.0000 Y     0.0000 Z
  Strength   :  0.000000
  Natural transition orbitals ( 1 -> 7 ):
   e-/hole pair  1 alpha:  ampl =  0.019182 (  0.0%)   [9 : 10]
   e-/hole pair  2 alpha:  ampl =  0.018900 (  0.0%)   [8 : 11]
   e-/hole pair  1 beta :  ampl =  0.693904 ( 48.2%)   [9 : 10]
   e-/hole pair  2 beta :  ampl =  0.625890 ( 39.2%)   [8 : 11]
   Sum of square amplitudes: 0.88

 NATURAL OCCUPATION NUMBERS (higher than 1.0E-05)
            1           2           3           4           5           6
    1   2.0000000   1.9999997   1.9999994   1.9999991   1.9999990   1.9999988
            7           8           9          10          11          12
    1   1.9854597   1.9768412   1.9584914   1.5489160   1.5374803   1.4492094
           13          14          15          16          17          18
    1   1.4359222   0.0473276   0.0089085   0.0082008   0.0078965   0.0049295
           19          20          21          22          23          24
    1   0.0046870   0.0037927   0.0033405   0.0022575   0.0022390   0.0022289
           25          26          27          28          29          30
    1   0.0021303   0.0013535   0.0012159   0.0011599   0.0009318   0.0008755
           31          32          33          34          35          36
    1   0.0004492   0.0004109   0.0004084   0.0003344   0.0003105   0.0002917
           37          38          39          40          41          42
    1   0.0002488   0.0002390   0.0001953   0.0001437   0.0001370   0.0001274
           43          44          45          46          47          48
    1   0.0000966   0.0000951   0.0000816   0.0000613   0.0000603   0.0000601
           49          50          51          52          53          54
    1   0.0000541   0.0000491   0.0000473   0.0000470   0.0000427   0.0000394
           55          56          57          58          59          60
    1   0.0000334   0.0000331   0.0000283   0.0000276   0.0000257   0.0000106

  Amplitudes : 
  
 | HOLE  | ALPHA     | BETA      | PART  |    AMPLITUDE 
--------------------------------------------------
 |       | 111111100 | 111011000 |       |     6.6933587155524E-01
 |       | 111111100 | 111010010 |       |    -1.2496245762419E-01
 |       | 111111100 | 110101100 |       |     5.9899015862394E-01
 |       | 111111100 | 110100110 |       |     1.1313461750738E-01
 |       | 111110110 | 111011000 |       |     1.3721958085507E-01
 |       | 111110110 | 110101100 |       |     1.2432006113469E-01
--------------------------------------------------
*** Contributions RASCI wfn    Active:  88.78
                                 Hole:   0.00
                                 Part:  11.21

      Mulliken population analysis 
 ---------------------------------------------------
   Atom    Charge (a.u.)   Spin (a.u.)  
 ---------------------------------------------------
   1  N   -0.560352        0.948450 
   2 Cl    0.560352        1.051550 
 ---------------------------------------------------
   Sum:   -0.000000        2.000000 
 ---------------------------------------------------
 
  
 NATURAL OCCUPATION NUMBERS (higher than 1.0E-05)
            1           2           3           4           5           6
    1   2.0000000   1.9999997   1.9999994   1.9999991   1.9999990   1.9999988
            7           8           9          10          11          12
    1   1.9854597   1.9768412   1.9584914   1.5489160   1.5374803   1.4492094
           13          14          15          16          17          18
    1   1.4359222   0.0473276   0.0089085   0.0082008   0.0078965   0.0049295
           19          20          21          22          23          24
    1   0.0046870   0.0037927   0.0033405   0.0022575   0.0022390   0.0022289
           25          26          27          28          29          30
    1   0.0021303   0.0013535   0.0012159   0.0011599   0.0009318   0.0008755
           31          32          33          34          35          36
    1   0.0004492   0.0004109   0.0004084   0.0003344   0.0003105   0.0002917
           37          38          39          40          41          42
    1   0.0002488   0.0002390   0.0001953   0.0001437   0.0001370   0.0001274
           43          44          45          46          47          48
    1   0.0000966   0.0000951   0.0000816   0.0000613   0.0000603   0.0000601
           49          50          51          52          53          54
    1   0.0000541   0.0000491   0.0000473   0.0000470   0.0000427   0.0000394
           55          56          57          58          59          60
    1   0.0000334   0.0000331   0.0000283   0.0000276   0.0000257   0.0000106
  
*** Unpaired Electrons
 Yamaguchi Nd:         3.39
 Head-Gordon Nu:       2.22
 Head-Gordon Nu_nl:    2.31
  
**************************************************
 RAS-CI total energy for state   8:   -513.805940201892
  Excitation energy (eV) =  6.095494312108
  State symmetry: A1    (C2v      )
  <S^2>      :  2.0000
  Dipole Moment:   -0.0000 X    -0.0000 Y    -1.3707 Z
  Trans. Moment:    0.0000 X     0.0000 Y     0.0000 Z
  Strength   :  0.000000
  Natural transition orbitals ( 1 -> 8 ):
   e-/hole pair  1 alpha:  ampl =  0.004044 (  0.0%)   [9 : 10]
   e-/hole pair  2 alpha:  ampl =  0.002517 (  0.0%)   [8 : 11]
   e-/hole pair  1 beta :  ampl =  0.692583 ( 48.0%)   [9 : 10]
   e-/hole pair  2 beta :  ampl =  0.625906 ( 39.2%)   [8 : 11]
   Sum of square amplitudes: 0.87

 NATURAL OCCUPATION NUMBERS (higher than 1.0E-05)
            1           2           3           4           5           6
    1   2.0000000   1.9999997   1.9999994   1.9999991   1.9999990   1.9999988
            7           8           9          10          11          12
    1   1.9851260   1.9764990   1.9588749   1.5485210   1.5372202   1.4484866
           13          14          15          16          17          18
    1   1.4386764   0.0472121   0.0085481   0.0081923   0.0071982   0.0047163
           19          20          21          22          23          24
    1   0.0047132   0.0038472   0.0033308   0.0023496   0.0022406   0.0021395
           25          26          27          28          29          30
    1   0.0021335   0.0013347   0.0012343   0.0011983   0.0009221   0.0008829
           31          32          33          34          35          36
    1   0.0004684   0.0004683   0.0004570   0.0003325   0.0003318   0.0003149
           37          38          39          40          41          42
    1   0.0002498   0.0002481   0.0001972   0.0001479   0.0001460   0.0001425
           43          44          45          46          47          48
    1   0.0001050   0.0001019   0.0000621   0.0000612   0.0000600   0.0000585
           49          50          51          52          53          54
    1   0.0000541   0.0000528   0.0000506   0.0000443   0.0000392   0.0000391
           55          56          57          58          59          60
    1   0.0000336   0.0000327   0.0000287   0.0000241   0.0000241   0.0000113

  Amplitudes : 
  
 | HOLE  | ALPHA     | BETA      | PART  |    AMPLITUDE 
--------------------------------------------------
 |       | 111111100 | 111011000 |       |    -6.0460731241820E-01
 |       | 111111100 | 111010010 |       |     1.1313965835766E-01
 |       | 111111100 | 110101100 |       |     6.6389459648359E-01
 |       | 111111100 | 110100110 |       |     1.2566200149098E-01
 |       | 111110110 | 111011000 |       |    -1.2449488774464E-01
 |       | 111110110 | 110101100 |       |     1.3838212404682E-01
--------------------------------------------------
*** Contributions RASCI wfn    Active:  88.80
                                 Hole:   0.00
                                 Part:  11.20

      Mulliken population analysis 
 ---------------------------------------------------
   Atom    Charge (a.u.)   Spin (a.u.)  
 ---------------------------------------------------
   1  N   -0.563018        0.945910 
   2 Cl    0.563018        1.054090 
 ---------------------------------------------------
   Sum:   -0.000000        2.000000 
 ---------------------------------------------------
 
  
 NATURAL OCCUPATION NUMBERS (higher than 1.0E-05)
            1           2           3           4           5           6
    1   2.0000000   1.9999997   1.9999994   1.9999991   1.9999990   1.9999988
            7           8           9          10          11          12
    1   1.9851260   1.9764990   1.9588749   1.5485210   1.5372202   1.4484866
           13          14          15          16          17          18
    1   1.4386764   0.0472121   0.0085481   0.0081923   0.0071982   0.0047163
           19          20          21          22          23          24
    1   0.0047132   0.0038472   0.0033308   0.0023496   0.0022406   0.0021395
           25          26          27          28          29          30
    1   0.0021335   0.0013347   0.0012343   0.0011983   0.0009221   0.0008829
           31          32          33          34          35          36
    1   0.0004684   0.0004683   0.0004570   0.0003325   0.0003318   0.0003149
           37          38          39          40          41          42
    1   0.0002498   0.0002481   0.0001972   0.0001479   0.0001460   0.0001425
           43          44          45          46          47          48
    1   0.0001050   0.0001019   0.0000621   0.0000612   0.0000600   0.0000585
           49          50          51          52          53          54
    1   0.0000541   0.0000528   0.0000506   0.0000443   0.0000392   0.0000391
           55          56          57          58          59          60
    1   0.0000336   0.0000327   0.0000287   0.0000241   0.0000241   0.0000113
  
*** Unpaired Electrons
 Yamaguchi Nd:         3.38
 Head-Gordon Nu:       2.21
 Head-Gordon Nu_nl:    2.30
  
**************************************************
 RAS-CI total energy for state   9:   -513.788059225585
  Excitation energy (eV) =  6.582060433127
  State symmetry: A2    (C2v      )
  <S^2>      :  2.0000
  Dipole Moment:   -0.0000 X    -0.0000 Y    -1.0495 Z
  Trans. Moment:   -0.0000 X     0.0000 Y     0.6324 Z
  Strength   :  0.064488
  Natural transition orbitals ( 1 -> 9 ):
   e-/hole pair  1 alpha:  ampl =  0.223724 (  5.0%)   [9 : 10]
   e-/hole pair  2 alpha:  ampl =  0.084293 (  0.7%)   [8 : 11]
   e-/hole pair  1 beta :  ampl =  0.646615 ( 41.8%)   [9 : 10]
   e-/hole pair  2 beta :  ampl =  0.596332 ( 35.6%)   [8 : 11]
   Sum of square amplitudes: 0.87

 NATURAL OCCUPATION NUMBERS (higher than 1.0E-05)
            1           2           3           4           5           6
    1   2.0000000   1.9999997   1.9999992   1.9999991   1.9999990   1.9999990
            7           8           9          10          11          12
    1   1.9850263   1.9735218   1.8811509   1.6060967   1.5642339   1.4100884
           13          14          15          16          17          18
    1   1.3696262   0.1304567   0.0167882   0.0158134   0.0088736   0.0043971
           19          20          21          22          23          24
    1   0.0039513   0.0039013   0.0038390   0.0031438   0.0030960   0.0022067
           25          26          27          28          29          30
    1   0.0021881   0.0018145   0.0017733   0.0014762   0.0012806   0.0011371
           31          32          33          34          35          36
    1   0.0005942   0.0003820   0.0002936   0.0002742   0.0002666   0.0002651
           37          38          39          40          41          42
    1   0.0002556   0.0001955   0.0001954   0.0001887   0.0001328   0.0001289
           43          44          45          46          47          48
    1   0.0000856   0.0000793   0.0000773   0.0000748   0.0000736   0.0000672
           49          50          51          52          53          54
    1   0.0000633   0.0000488   0.0000481   0.0000471   0.0000444   0.0000443
           55          56          57          58          59          60
    1   0.0000434   0.0000325   0.0000324   0.0000259   0.0000258   0.0000140

  Amplitudes : 
  
 | HOLE  | ALPHA     | BETA      | PART  |    AMPLITUDE 
--------------------------------------------------
 |       | 111111100 | 111100010 |       |     1.4356218149523E-01
 |       | 111111100 | 111001100 |       |     5.7377889548684E-01
 |       | 111111100 | 111000110 |       |     1.3067493136256E-01
 |       | 111111100 | 110111000 |       |     6.1370909620301E-01
 |       | 111111100 | 110011100 |       |    -2.0125456276180E-01
 |       | 111110110 | 111101000 |       |    -1.9337132381481E-01
 |       | 111110110 | 111001100 |       |     1.4917944482096E-01
--------------------------------------------------
*** Contributions RASCI wfn    Active:  88.16
                                 Hole:   0.00
                                 Part:  11.84

      Mulliken population analysis 
 ---------------------------------------------------
   Atom    Charge (a.u.)   Spin (a.u.)  
 ---------------------------------------------------
   1  N   -0.446372        1.137270 
   2 Cl    0.446372        0.862730 
 ---------------------------------------------------
   Sum:   -0.000000        2.000000 
 ---------------------------------------------------
 
  
 NATURAL OCCUPATION NUMBERS (higher than 1.0E-05)
            1           2           3           4           5           6
    1   2.0000000   1.9999997   1.9999992   1.9999991   1.9999990   1.9999990
            7           8           9          10          11          12
    1   1.9850263   1.9735218   1.8811509   1.6060967   1.5642339   1.4100884
           13          14          15          16          17          18
    1   1.3696262   0.1304567   0.0167882   0.0158134   0.0088736   0.0043971
           19          20          21          22          23          24
    1   0.0039513   0.0039013   0.0038390   0.0031438   0.0030960   0.0022067
           25          26          27          28          29          30
    1   0.0021881   0.0018145   0.0017733   0.0014762   0.0012806   0.0011371
           31          32          33          34          35          36
    1   0.0005942   0.0003820   0.0002936   0.0002742   0.0002666   0.0002651
           37          38          39          40          41          42
    1   0.0002556   0.0001955   0.0001954   0.0001887   0.0001328   0.0001289
           43          44          45          46          47          48
    1   0.0000856   0.0000793   0.0000773   0.0000748   0.0000736   0.0000672
           49          50          51          52          53          54
    1   0.0000633   0.0000488   0.0000481   0.0000471   0.0000444   0.0000443
           55          56          57          58          59          60
    1   0.0000434   0.0000325   0.0000324   0.0000259   0.0000258   0.0000140
  
*** Unpaired Electrons
 Yamaguchi Nd:         3.72
 Head-Gordon Nu:       2.42
 Head-Gordon Nu_nl:    2.42
  
**************************************************
 RAS-CI total energy for state  10:   -513.736822632304
  Excitation energy (eV) =  7.976279071925
  State symmetry: B1    (C2v      )
  <S^2>      :  6.0000
  Dipole Moment:   -0.0000 X    -0.0000 Y    -0.4146 Z
  Trans. Moment:    0.0000 X     0.0000 Y    -0.0000 Z
  Strength   :  0.000000
  Natural transition orbitals ( 1 -> 10 ):
   e-/hole pair  1 alpha:  ampl =  0.480350 ( 23.1%)   [9 : 10]
   e-/hole pair  2 alpha:  ampl =  0.029483 (  0.1%)   [8 : 11]
   e-/hole pair  1 beta :  ampl =  0.480350 ( 23.1%)   [9 : 10]
   e-/hole pair  2 beta :  ampl =  0.029482 (  0.1%)   [8 : 11]
   Sum of square amplitudes: 0.47

 NATURAL OCCUPATION NUMBERS (higher than 1.0E-05)
            1           2           3           4           5           6
    1   2.0000000   1.9999999   1.9999999   1.9999997   1.9999995   1.9999982
            7           8           9          10          11          12
    1   1.9857500   1.9801639   1.9772261   1.9765909   1.0082714   1.0074984
           13          14          15          16          17          18
    1   0.9999635   0.9993275   0.0093979   0.0075399   0.0065246   0.0061252
           19          20          21          22          23          24
    1   0.0057066   0.0056390   0.0041116   0.0028453   0.0028093   0.0022987
           25          26          27          28          29          30
    1   0.0021977   0.0018163   0.0017246   0.0011924   0.0008178   0.0008025
           31          32          33          34          35          36
    1   0.0005362   0.0004020   0.0003400   0.0003000   0.0002896   0.0002467
           37          38          39          40          41          42
    1   0.0002070   0.0002058   0.0001490   0.0001452   0.0001058   0.0000925
           43          44          45          46          47          48
    1   0.0000780   0.0000653   0.0000532   0.0000496   0.0000490   0.0000449
           49          50          51          52          53          54
    1   0.0000393   0.0000383   0.0000375   0.0000308   0.0000294   0.0000269
           55          56          57          58
    1   0.0000240   0.0000163   0.0000118   0.0000103

  Amplitudes : 
  
 | HOLE  | ALPHA     | BETA      | PART  |    AMPLITUDE 
--------------------------------------------------
 |       | 111111100 | 111001010 |       |    -4.4279775737211E-01
 |       | 111111100 | 110011010 |       |     1.2465171499890E-01
 |       | 111111010 | 111001100 |       |     4.4279552728901E-01
 |       | 111111010 | 110011100 |       |    -1.2465789573654E-01
 |       | 111101110 | 111011000 |       |    -4.4280598599764E-01
 |       | 111011110 | 111101000 |       |     4.4279544090141E-01
 |       | 111011110 | 110111000 |       |     1.2464887285436E-01
 |       | 110111110 | 111011000 |       |    -1.2463218173576E-01
--------------------------------------------------
*** Contributions RASCI wfn    Active:  88.67
                                 Hole:   0.00
                                 Part:  11.33

      Mulliken population analysis 
 ---------------------------------------------------
   Atom    Charge (a.u.)   Spin (a.u.)  
 ---------------------------------------------------
   1  N   -0.201990        1.118579 
   2 Cl    0.201990        0.881421 
 ---------------------------------------------------
   Sum:   -0.000000        2.000000 
 ---------------------------------------------------
 
  
 NATURAL OCCUPATION NUMBERS (higher than 1.0E-05)
            1           2           3           4           5           6
    1   2.0000000   1.9999999   1.9999999   1.9999997   1.9999995   1.9999982
            7           8           9          10          11          12
    1   1.9857500   1.9801639   1.9772261   1.9765909   1.0082714   1.0074984
           13          14          15          16          17          18
    1   0.9999635   0.9993275   0.0093979   0.0075399   0.0065246   0.0061252
           19          20          21          22          23          24
    1   0.0057066   0.0056390   0.0041116   0.0028453   0.0028093   0.0022987
           25          26          27          28          29          30
    1   0.0021977   0.0018163   0.0017246   0.0011924   0.0008178   0.0008025
           31          32          33          34          35          36
    1   0.0005362   0.0004020   0.0003400   0.0003000   0.0002896   0.0002467
           37          38          39          40          41          42
    1   0.0002070   0.0002058   0.0001490   0.0001452   0.0001058   0.0000925
           43          44          45          46          47          48
    1   0.0000780   0.0000653   0.0000532   0.0000496   0.0000490   0.0000449
           49          50          51          52          53          54
    1   0.0000393   0.0000383   0.0000375   0.0000308   0.0000294   0.0000269
           55          56          57          58
    1   0.0000240   0.0000163   0.0000118   0.0000103
  
*** Unpaired Electrons
 Yamaguchi Nd:         4.29
 Head-Gordon Nu:       4.13
 Head-Gordon Nu_nl:    4.01
  
**************************************************
 RAS-CI total energy for state  11:   -513.684016676978
  Excitation energy (eV) =  9.413202224720
  State symmetry: B1    (C2v      )
  <S^2>      :  2.0000
  Dipole Moment:   -0.0000 X    -0.0000 Y    -0.3993 Z
  Trans. Moment:    0.0000 X     0.0530 Y     0.0000 Z
  Strength   :  0.000648
  Natural transition orbitals ( 1 -> 11 ):
   e-/hole pair  1 alpha:  ampl =  0.516530 ( 26.7%)   [9 : 10]
   e-/hole pair  2 alpha:  ampl =  0.038573 (  0.1%)   [8 : 11]
   e-/hole pair  1 beta :  ampl =  0.070743 (  0.5%)   [9 : 10]
   e-/hole pair  2 beta :  ampl =  0.021442 (  0.0%)   [8 : 11]
   Sum of square amplitudes: 0.28

 NATURAL OCCUPATION NUMBERS (higher than 1.0E-05)
            1           2           3           4           5           6
    1   2.0000000   1.9999998   1.9999997   1.9999993   1.9999992   1.9999987
            7           8           9          10          11          12
    1   1.9846353   1.9753597   1.9717007   1.6940247   1.3169827   1.2223129
           13          14          15          16          17          18
    1   1.0002347   0.7655246   0.0094549   0.0076041   0.0072963   0.0062713
           19          20          21          22          23          24
    1   0.0061577   0.0057856   0.0050661   0.0032046   0.0031329   0.0022250
           25          26          27          28          29          30
    1   0.0019490   0.0018896   0.0015480   0.0014801   0.0008680   0.0008314
           31          32          33          34          35          36
    1   0.0005505   0.0004006   0.0003525   0.0003496   0.0003256   0.0002990
           37          38          39          40          41          42
    1   0.0002871   0.0002758   0.0001959   0.0001954   0.0001309   0.0001292
           43          44          45          46          47          48
    1   0.0001028   0.0000937   0.0000897   0.0000760   0.0000709   0.0000631
           49          50          51          52          53          54
    1   0.0000602   0.0000557   0.0000485   0.0000469   0.0000418   0.0000388
           55          56          57          58          59          60
    1   0.0000388   0.0000351   0.0000339   0.0000175   0.0000167   0.0000159

  Amplitudes : 
  
 | HOLE  | ALPHA     | BETA      | PART  |    AMPLITUDE 
--------------------------------------------------
 |       | 111111010 | 111101000 |       |    -2.7895370028449E-01
 |       | 111111010 | 110111000 |       |     4.0455728970497E-01
 |       | 111101110 | 111011000 |       |     5.6619126126996E-01
 |       | 111101110 | 110101100 |       |    -1.6937124213719E-01
 |       | 111011110 | 111101000 |       |     4.3027255884098E-01
 |       | 111011110 | 110111000 |       |     1.8930103040895E-01
 |       | 110111110 | 111011000 |       |     1.5035773005685E-01
--------------------------------------------------
*** Contributions RASCI wfn    Active:  88.97
                                 Hole:   0.00
                                 Part:  11.03

      Mulliken population analysis 
 ---------------------------------------------------
   Atom    Charge (a.u.)   Spin (a.u.)  
 ---------------------------------------------------
   1  N   -0.211961        0.827949 
   2 Cl    0.211961        1.172051 
 ---------------------------------------------------
   Sum:   -0.000000        2.000000 
 ---------------------------------------------------
 
  
 NATURAL OCCUPATION NUMBERS (higher than 1.0E-05)
            1           2           3           4           5           6
    1   2.0000000   1.9999998   1.9999997   1.9999993   1.9999992   1.9999987
            7           8           9          10          11          12
    1   1.9846353   1.9753597   1.9717007   1.6940247   1.3169827   1.2223129
           13          14          15          16          17          18
    1   1.0002347   0.7655246   0.0094549   0.0076041   0.0072963   0.0062713
           19          20          21          22          23          24
    1   0.0061577   0.0057856   0.0050661   0.0032046   0.0031329   0.0022250
           25          26          27          28          29          30
    1   0.0019490   0.0018896   0.0015480   0.0014801   0.0008680   0.0008314
           31          32          33          34          35          36
    1   0.0005505   0.0004006   0.0003525   0.0003496   0.0003256   0.0002990
           37          38          39          40          41          42
    1   0.0002871   0.0002758   0.0001959   0.0001954   0.0001309   0.0001292
           43          44          45          46          47          48
    1   0.0001028   0.0000937   0.0000897   0.0000760   0.0000709   0.0000631
           49          50          51          52          53          54
    1   0.0000602   0.0000557   0.0000485   0.0000469   0.0000418   0.0000388
           55          56          57          58          59          60
    1   0.0000388   0.0000351   0.0000339   0.0000175   0.0000167   0.0000159
  
*** Unpaired Electrons
 Yamaguchi Nd:         4.59
 Head-Gordon Nu:       3.67
 Head-Gordon Nu_nl:    3.88
  
**************************************************
 RAS-CI total energy for state  12:   -513.683637632248
  Excitation energy (eV) =  9.423516556599
  State symmetry: B2    (C2v      )
  <S^2>      :  2.0000
  Dipole Moment:   -0.0000 X    -0.0000 Y    -0.3929 Z
  Trans. Moment:    0.0554 X    -0.0000 Y    -0.0000 Z
  Strength   :  0.000708
  Natural transition orbitals ( 1 -> 12 ):
   e-/hole pair  1 alpha:  ampl =  0.522612 ( 27.3%)   [9 : 10]
   e-/hole pair  2 alpha:  ampl =  0.038012 (  0.1%)   [8 : 11]
   e-/hole pair  1 beta :  ampl =  0.065139 (  0.4%)   [9 : 10]
   e-/hole pair  2 beta :  ampl =  0.021238 (  0.0%)   [8 : 11]
   Sum of square amplitudes: 0.28

 NATURAL OCCUPATION NUMBERS (higher than 1.0E-05)
            1           2           3           4           5           6
    1   2.0000000   1.9999998   1.9999997   1.9999993   1.9999993   1.9999987
            7           8           9          10          11          12
    1   1.9847058   1.9754373   1.9719379   1.7095422   1.3031069   1.2054390
           13          14          15          16          17          18
    1   1.0003868   0.7797386   0.0095220   0.0075916   0.0074973   0.0064562
           19          20          21          22          23          24
    1   0.0063253   0.0057559   0.0049855   0.0031926   0.0031053   0.0022111
           25          26          27          28          29          30
    1   0.0019281   0.0018319   0.0015918   0.0014715   0.0008867   0.0008707
           31          32          33          34          35          36
    1   0.0005539   0.0004002   0.0003574   0.0003524   0.0003312   0.0003005
           37          38          39          40          41          42
    1   0.0002797   0.0002760   0.0001975   0.0001956   0.0001333   0.0001264
           43          44          45          46          47          48
    1   0.0001015   0.0000885   0.0000884   0.0000831   0.0000810   0.0000626
           49          50          51          52          53          54
    1   0.0000606   0.0000548   0.0000494   0.0000450   0.0000421   0.0000396
           55          56          57          58          59          60
    1   0.0000388   0.0000352   0.0000345   0.0000182   0.0000178   0.0000150

  Amplitudes : 
  
[...]
    18   -4.897756345299e-17
    19   -1.355019674754e-16
    20   -1.750600520924e-17
    21    4.981277127779e-07
    22   -1.296691132621e-01
    23   -1.776286257003e-16
    24    7.765690891628e-16
    25    3.977117941080e-17
    26   -1.500271257771e-08
    27    3.035172152269e-03
    28    1.734174692329e-17
    29    8.409876274629e-17
    30    2.197014221756e-09
    31   -6.696681337991e-04
    32    1.746302526731e-17
    33    5.672253110690e-19
    34   -2.621159899038e-16
    35    1.247534048405e-15
    36   -1.394444815516e-15
    37    2.235537033847e-07
    38   -5.169452097262e-02
    39    2.340454093152e-16
    40    3.089029343685e-08
    41   -9.044527488556e-03
    42    1.209284063166e-16
    43    8.791466669353e-10
    44    5.812553216653e-03
    45   -5.491471973030e-17
    46   -1.955806487763e-06
    47    4.268046326724e-01
    48   -2.331264871777e-15
    49    3.379590534170e-06
    50   -6.848632239836e-01
    51    3.738077812025e-15
    52   -6.971312894929e-17
    53   -9.640992701821e-07
    54    2.393238487854e-01
    55   -9.580535458548e-16
    56    2.212388725137e-15
    57    1.293515648830e-16
    58   -3.229718581472e-06
    59    7.921061047967e-01
    60   -2.235803787093e-15
    61    8.207475410916e-15
    62   -7.955329869235e-17
    63    5.072800750130e-09
    64   -2.757852320318e-04
    65    5.332656345493e-17
    66    1.345127627984e-16
    67   -7.565204366405e-10
    68    1.803622298907e-04
Sym=X
Ene= 0.639655
Spin=Alpha
Occup=0
     1    7.440644442678e-15
     2    1.835192621225e-14
     3   -4.021415566130e-14
     4   -5.966858373752e-15
     5   -4.576712130915e-14
     6    8.646046573364e-02
     7    4.115982659614e-07
     8    3.975564895834e-14
     9    3.924963937862e-02
    10    3.792916270436e-07
    11    3.526152305741e-14
    12    5.074392309513e-01
    13    1.756231352461e-06
    14    2.579797060296e-14
    15    3.296087232138e-16
    16   -1.625719230192e-02
    17   -6.160190267853e-08
    18    9.144348486457e-16
    19   -4.711011469889e-17
    20    4.134057423794e-15
    21   -1.261960509345e-01
    22   -5.374969692543e-07
    23    2.743249966170e-15
    24    1.119303603444e-15
    25    1.282221514903e-15
    26    3.665548887144e-03
    27    1.371986461295e-08
    28   -8.015773283577e-16
    29    4.066002080748e-17
    30   -7.565436079162e-04
    31   -2.509474879701e-09
    32    6.018874797867e-16
    33    4.129769986228e-16
    34   -3.264145836849e-15
    35    6.980412704920e-15
    36   -1.130901739109e-14
    37   -4.484310019271e-02
    38   -1.985960176896e-07
    39    1.593873493425e-14
    40   -5.915872948391e-03
    41   -3.272587647904e-08
    42    8.273855999441e-15
    43   -9.456688562021e-04
    44    1.388118872644e-08
    45   -2.008826245161e-14
    46    3.983812842427e-01
    47    1.669957266102e-06
    48   -4.440225061196e-14
    49   -6.804818077327e-01
    50   -2.652021649554e-06
    51   -5.426208099285e-15
    52    2.319244109257e-15
    53    2.421348526383e-01
    54    1.005255386026e-06
    55   -3.736877688718e-16
    56    2.992084023307e-16
    57   -5.952357133677e-15
    58    7.931172569644e-01
    59    3.300460177106e-06
    60   -2.998410701420e-15
    61    2.630440665270e-15
    62   -1.086580968865e-15
    63    5.915264229470e-04
    64    8.251347201902e-09
    65    1.314398518273e-16
    66   -1.590973477601e-16
    67    2.329354676856e-04
    68    7.786418971543e-10
Sym=X
Ene= 0.860253
Spin=Alpha
Occup=0
     1   -3.165563044378e-02
     2   -7.722973126788e-02
     3    1.069480619864e-01
     4    9.597730925608e-01
     5   -2.253905364364e+00
     6    4.931887707165e-14
     7    3.786906376157e-16
     8    2.521608896275e-01
     9    4.368981733896e-14
    10   -3.919746354171e-16
    11    4.244482092381e-01
    12    4.866135637895e-14
    13    8.295505642262e-18
    14   -1.560000669240e+00
    15    4.236491653719e-03
    16   -1.230002642335e-16
    17   -2.772223835770e-16
    18   -1.817831293045e-03
    19   -1.009074413080e-17
    20   -2.113590323381e-01
    21    8.056171696205e-16
    22   -2.918191819710e-16
    23    1.386267260748e-03
    24    1.476640599477e-17
    25   -2.238050197910e-02
    26    7.732441138799e-16
    27   -1.990621457502e-16
    28   -1.599593109860e-03
    29    2.921525940869e-16
    30   -2.536582849798e-16
    31    4.870190823887e-16
    32   -5.891369552555e-02
    33   -3.028853876693e-02
    34    4.005952788430e-01
    35   -1.577272615795e+00
    36    2.866526172853e+00
    37    1.702587681863e-14
    38    2.024380411035e-16
    39   -4.845148863580e-02
    40    8.967499711987e-15
    41   -2.909739067501e-16
    42   -4.413784032632e-02
    43   -2.407625868938e-14
    44    3.039097920628e-16
    45    1.739354473724e-01
    46   -4.504522182489e-14
    47   -6.403087159562e-16
    48   -1.570182853424e-01
    49   -4.391859644576e-14
    50    7.218664461347e-16
    51   -7.525339145006e-01
    52   -1.907983823161e-01
    53   -6.082177193844e-15
    54    2.483769824903e-17
    55    2.770178980708e-03
    56    4.861119973142e-16
    57   -4.769201243511e-01
    58   -1.146566809827e-14
    59    1.878979465733e-16
    60    2.235234737269e-03
    61   -1.253094589183e-15
    62   -7.125667010778e-02
    63    7.780599400959e-16
    64    2.194536020424e-16
    65   -2.862967406132e-04
    66    6.150655844534e-17
    67    1.459001504242e-16
    68    6.945708785677e-17
Sym=X
Ene= 1.149008
Spin=Alpha
Occup=0
     1    1.165655506358e-02
     2    1.896439490317e-02
     3    1.760504705588e-01
     4   -6.722730768663e-01
     5   -2.587226027536e+00
     6   -2.277327091989e-14
     7    1.561218471166e-16
     8   -8.837553737322e-02
     9   -1.915747515423e-14
    10   -1.524901237724e-15
    11   -9.292819289708e-01
    12   -1.982804975720e-14
    13    2.876379044621e-16
    14   -1.191399356252e+00
    15    3.560049409397e-02
    16   -1.484795280457e-16
    17    1.807657208663e-16
    18   -1.271755461237e-04
    19    1.919346813392e-17
    20   -1.488756443302e-01
    21    4.526930801788e-16
    22   -2.784571120638e-15
    23    3.301412162285e-02
    24   -1.331534833426e-15
    25   -4.936656261199e-02
    26   -4.681986746026e-16
    27    9.743893121363e-17
    28    7.833992553571e-04
    29    2.746756117193e-16
    30    3.455275344520e-16
    31   -4.837761968523e-17
    32   -7.187043947348e-02
    33   -2.938920256724e-02
    34    5.076951680933e-01
    35   -2.511724701782e+00
    36    4.547902265137e+00
    37   -7.463124232767e-15
    38   -3.556789531825e-17
    39    4.784939600415e-02
    40   -3.946221389117e-15
    41    3.385015781541e-16
    42    9.280470697399e-03
    43    1.017082842115e-14
    44   -1.309916908016e-15
    45    4.884578295228e-03
    46    2.092335920023e-14
    47    1.931169305056e-15
    48   -4.117193912833e-01
    49    1.783513965637e-14
    50   -2.398749257328e-16
    51   -1.954293482250e+00
    52    2.268283537216e-01
    53    2.609018762795e-15
    54    4.719955399619e-16
    55    1.455522674671e-03
    56    5.129734038918e-16
    57    1.083576766277e+00
    58    6.508408893970e-15
    59   -1.394889299580e-15
    60   -6.578426917640e-03
    61    1.642573744487e-16
    62   -5.206255261636e-02
    63   -9.830277600715e-16
    64    7.309831014729e-16
    65   -1.229923808552e-03
    66   -1.246009381140e-16
    67   -1.035988819114e-16
    68    4.499683646870e-16
Sym=X
Ene= 1.220880
Spin=Alpha
Occup=0
     1   -2.516489400675e-03
     2   -6.932942058515e-03
     3    2.552785803589e-02
     4   -1.687685005081e-02
     5    1.689056887886e-01
     6    4.159595660820e-14
     7    2.413968421913e-16
     8    1.709318370752e-03
     9    3.836872364678e-14
    10   -8.833959139447e-16
    11    3.732095950907e-02
    12    3.712520014483e-14
    13    1.050990621330e-15
    14    8.493107172915e-02
    15   -2.396835221027e-03
    16   -2.662877008435e-16
    17   -1.550505520172e-16
    18   -1.878360327937e-02
    19   -8.738351493555e-15
    20    3.908026539324e-02
    21   -1.276001610366e-15
    22    5.840347639989e-16
    23    9.899748587987e-01
    24    4.666616879527e-13
    25    2.600616156099e-03
    26    8.291014612233e-16
    27    3.487365419258e-16
    28    5.066038019685e-03
    29    2.514094720748e-15
    30    1.803996752771e-16
    31    1.107837273483e-16
    32    2.306402255149e-03
    33    9.034215506583e-04
    34   -1.650384779683e-02
    35    9.678374267767e-02
    36   -2.304526477237e-01
    37    1.468486395445e-14
    38   -1.925685855714e-16
    39   -5.286242772358e-03
    40    7.039511073354e-15
    41    2.138801872021e-16
    42   -1.378053025987e-03
    43   -2.019303509135e-14
    44    3.396393225693e-16
    45    3.220157554712e-04
    46   -3.833554105935e-14
    47   -1.241441230851e-15
    48    5.020439123504e-02
    49   -3.419306315179e-14
    50    6.069575358356e-16
    51    8.861268973122e-02
    52   -6.967821006396e-03
    53   -5.501722341364e-15
    54   -4.297973453329e-16
    55   -1.169993539157e-01
    56   -5.411005409940e-14
    57   -5.659013458518e-02
    58   -8.784423749934e-15
    59    6.106094579544e-16
    60   -1.527458294611e-01
    61   -7.239217309429e-14
    62    2.568496131618e-03
    63    1.024556184989e-15
    64    7.802603217631e-17
    65   -9.358549109546e-02
    66   -4.408336575813e-14
    67   -9.126470416619e-17
    68   -5.685515984961e-16
Sym=X
Ene= 1.221925
Spin=Alpha
Occup=0
     1    1.236198625400e-15
     2    3.371187743237e-15
     3   -1.220485738581e-14
     4    7.112637022991e-15
     5   -8.171392795666e-14
     6   -1.776108108346e-15
     7   -3.191271229595e-15
     8   -2.488593397212e-16
     9    2.396347179993e-15
    10    3.863043505885e-15
    11   -1.854166879758e-14
    12   -1.351587614136e-15
    13    1.642445111337e-15
    14   -4.129408939128e-14
    15    1.138154762226e-15
    16    1.997813498107e-16
    17    3.672199825593e-17
    18    8.812835024557e-15
    19   -1.880240569860e-02
    20   -1.717478633104e-14
    21    3.796994675021e-15
    22    7.231325072376e-15
    23   -4.663718696505e-13
    24    9.908903095223e-01
    25   -1.033488977712e-15
    26    2.717184546215e-16
    27   -9.931899309421e-17
    28   -2.194569719519e-15
    29    5.088451299239e-03
    30   -3.679943555880e-16
    31    2.517937870659e-16
    32   -1.177318773122e-15
    33   -4.405581401028e-16
    34    8.378539780005e-15
    35   -4.865486526395e-14
    36    1.132071576107e-13
    37   -6.308737502924e-18
    38    3.676272554176e-16
    39    2.477620795680e-15
    40   -3.163545070571e-17
    41    5.322065875985e-16
    42    7.967677847522e-16
    43   -7.467625630043e-17
    44   -1.967185073835e-15
    45   -5.666503970772e-16
    46    6.299501368527e-16
    47    7.634519199451e-16
    48   -2.269130429096e-14
    49   -1.865179105597e-15
    50   -3.226204200042e-15
    51   -4.460491194105e-14
    52    3.594443324838e-15
    53    1.008467099759e-15
    54   -4.661959540779e-16
    55    5.531300584943e-14
    56   -1.170062308914e-01
    57    2.768637950363e-14
    58   -4.845178656338e-16
    59    5.123334501748e-15
    60    7.136471931987e-14
    61   -1.527390245117e-01
    62   -1.402757849288e-15
    63    1.206685658958e-15
    64    1.610132464459e-15
    65    4.396793026297e-14
    66   -9.370210205759e-02
    67    5.072644653367e-16
    68   -1.453859001495e-15
Sym=X
Ene= 1.453847
Spin=Alpha
Occup=0
     1    1.865823927916e-17
     2    1.815050238650e-17
     3    3.192788702433e-15
     4   -8.721115836788e-15
     5   -2.493507831983e-14
     6   -8.995424397193e-09
     7    2.097171867444e-02
     8   -2.759375989289e-15
     9   -2.674169931559e-08
    10   -4.803725200177e-02
    11   -6.988692594047e-15
    12    5.995905289588e-08
    13    4.584152863851e-01
    14   -1.667100382601e-14
    15    4.422877310324e-16
    16   -2.338895309419e-10
    17   -7.352560691286e-03
    18    1.818446428643e-16
    19    1.097934423725e-16
    20   -1.333191289907e-14
    21    3.365648976106e-08
    22    1.110731733292e+00
    23   -2.836471292378e-16
    24   -7.407603106789e-15
    25   -8.567110659480e-16
    26   -2.700342838864e-10
    27   -8.941553717793e-03
    28    2.202761875988e-16
    29    7.649568282996e-16
    30    9.101468424280e-11
    31   -7.810274743214e-05
    32   -1.871439250285e-16
    33   -1.210573333055e-16
    34    1.465539561247e-15
    35   -1.241874147110e-14
    36    4.010952836579e-14
    37   -1.557534371376e-09
    38    4.328852310966e-02
    39    9.275236095893e-16
    40    3.142695253894e-10
    41    2.696778702378e-02
    42    3.156566851350e-16
    43   -2.844787148270e-09
    44   -1.049492327630e-01
    45   -2.168114882143e-17
    46    2.012848766364e-08
    47   -9.132775230554e-02
    48   -1.250617091955e-14
    49   -5.180513859253e-08
    50   -3.646194938843e-01
    51   -1.356530509732e-14
    52   -2.087214965519e-15
    53   -1.757788250604e-09
    54    1.545258084607e-01
    55    6.574315346633e-16
    56    4.644268168445e-15
    57    1.304788778968e-14
    58    2.735170864248e-09
    59    5.690870738878e-01
    60   -1.269775015766e-15
    61   -2.446768629652e-15
    62   -1.432878882922e-15
    63    3.162433333234e-09
    64    1.299447664852e-01
    65   -3.034861372632e-16
    66    3.569514162461e-16
    67    3.334616275416e-12
    68    2.884303663731e-04
Sym=X
Ene= 1.485849
Spin=Alpha
Occup=0
     1   -6.379930119907e-15
     2   -1.570051820760e-14
     3    3.261855478604e-14
     4    2.124599552798e-14
     5    1.903915377127e-14
     6    1.356613928120e-02
     7    6.406518338497e-10
     8   -3.637625507103e-14
     9   -5.915208230536e-02
    10    8.235974732804e-09
    11   -3.180302458748e-14
    12    4.567408892450e-01
    13   -1.412305599291e-08
    14   -1.638461129058e-14
    15   -2.583535431427e-16
    16   -6.966968661110e-03
    17    4.112090724726e-10
    18   -8.470002624024e-16
    19    2.094789499201e-16
    20   -4.828394233818e-15
    21    1.107687751910e+00
    22   -3.080583095621e-08
    23    9.690791789124e-16
    24   -4.299530391035e-15
    25   -1.139849085183e-15
    26   -8.772804951101e-03
    27    3.334828162969e-10
    28    8.762657129730e-16
    29    2.420202142096e-17
    30    9.185714978534e-07
    31    1.266221219147e-10
    32   -4.211032376670e-16
    33   -3.003826262956e-16
    34    2.050135361466e-15
    35   -4.583321043524e-15
    36    1.162647485080e-14
    37    4.294898077153e-02
    38   -8.503194851838e-10
    39   -1.216567440064e-14
    40    2.706410793054e-02
    41   -5.438293490136e-10
    42   -7.037295761969e-15
    43   -1.067548335620e-01
    44    2.256677315290e-09
    45    1.887394068224e-14
    46   -8.639481372419e-02
    47    1.682854449511e-09
    48    2.577508605067e-14
    49   -3.615720789756e-01
    50    9.919264375134e-09
    51    1.054391345607e-14
    52   -4.486445702355e-15
    53    1.535712108373e-01
    54   -4.245868830471e-09
    55   -4.024629455664e-16
    56    6.948256419562e-16
    57   -1.351279309182e-15
    58    5.645532539994e-01
    59   -1.507640728428e-08
    60    1.999302262355e-16
    61    4.556011440614e-16
    62    7.528475432415e-16
    63    1.351572660255e-01
    64   -3.111693679947e-09
    65   -9.048237749003e-16
    66    1.169141751286e-15
    67    2.883493633053e-04
    68   -1.187938460626e-11
Sym=X
Ene= 1.624363
Spin=Alpha
Occup=0
     1    2.009322317231e-02
     2    5.549036545986e-02
     3   -6.986894444530e-02
     4   -1.476778459857e-01
     5   -2.910730688937e+00
     6   -5.258474581303e-15
     7    2.149692073692e-15
     8   -2.392091656400e-01
     9   -8.607646924811e-15
    10   -1.741151459427e-15
    11   -6.536210758873e-01
    12   -1.165530314423e-14
    13   -3.430541067343e-15
    14   -1.863254467995e+00
    15    2.762775356451e-02
    16    1.416836278362e-16
    17   -3.693714338956e-16
    18   -9.952270996061e-06
    19   -1.104160719081e-17
    20   -1.565306898202e+00
    21   -1.789326613401e-15
    22   -9.031251243704e-15
    23    2.074141404755e-02
    24    1.165815221792e-15
    25   -6.598037130990e-02
    26   -3.308841075568e-16
    27    5.063895832583e-16
    28    7.149262148067e-04
    29   -8.934304551873e-16
    30    8.195868852863e-17
    31   -4.592944147166e-16
    32   -1.051437581537e-03
    33    2.210721182952e-03
    34    1.411314213241e-02
    35   -8.139528894226e-01
    36    3.822118311119e+00
    37   -2.384185840771e-15
    38    3.806253247580e-16
    39    8.053232464425e-02
    40   -6.955688080688e-16
    41    1.721624545536e-16
    42   -9.382960391986e-03
    43    4.586966350944e-16
    44   -2.706336932792e-15
    45    1.468812376926e-01
    46    1.123074692700e-14
    47    4.733032469962e-15
    48   -1.520700671363e+00
    49    7.959470966496e-15
    50    1.486782545072e-15
    51   -1.248562022129e+00
    52   -2.988907128054e-01
    53    3.000784005110e-15
    54   -1.744665885527e-15
    55   -6.962063072211e-03
    56   -1.977888257252e-16
    57    1.311121357252e+00
    58   -2.389485138831e-15
    59   -5.016949576245e-15
    60    1.467881650270e-03
    61   -5.551797989236e-16
    62   -1.722593940092e-02
    63   -1.192838449790e-15
    64   -2.107803215648e-15
    65   -3.322897531157e-03
    66   -2.318549631005e-16
    67   -2.327733887843e-16
    68   -1.935866048286e-16
Sym=X
Ene= 2.043899
Spin=Alpha
Occup=0
     1    1.420589339224e-04
     2    4.151946897417e-04
     3   -6.938737265589e-04
     4   -9.423272039905e-03
     5   -4.244575684127e-03
     6    7.332320693136e-15
     7   -4.936521907189e-14
     8    8.967572450363e-03
     9   -1.650324825385e-14
    10    7.252063227841e-14
    11   -1.648151660452e-02
    12   -5.244246366175e-15
    13    3.432328543088e-14
    14    6.128230909357e-03
    15   -4.946341262403e-04
    16   -2.405243728453e-16
    17    1.533841807851e-15
    18   -3.122574782302e-03
    19    2.532153346852e-15
    20    9.520929457083e-03
    21   -3.407554778509e-15
    22    2.525707949178e-14
    23   -1.184402745500e-01
    24    9.398705203644e-14
    25   -1.352577891682e-03
    26   -2.913366537175e-15
    27    1.903385367825e-14
    28   -6.965302598981e-04
    29    4.487840247126e-16
    30   -5.522750429748e-16
    31    6.697978003408e-16
    32   -4.975243356383e-04
    33   -3.354551835328e-04
    34    3.648944730855e-03
    35   -1.676993433192e-02
    36    1.736771224244e-02
    37   -2.073814680387e-15
    38   -8.014040772903e-16
    39   -4.534029109201e-04
    40   -1.047712864114e-15
    41   -3.583089343676e-15
    42   -6.473007798778e-04
    43    5.569604198689e-15
    44    1.573557888693e-14
    45    3.174213959523e-03
    46   -7.543997989005e-16
    47   -1.875894023156e-14
    48   -3.163178962321e-04
    49    7.733828007359e-15
    50   -3.048612837516e-14
    51   -1.080589973209e-02
    52   -1.477653212430e-02
    53    4.319025757374e-14
    54   -2.778068032873e-13
    55   -1.187871071005e+00
    56    9.444830889913e-13
    57    1.704327223756e-02
    58   -3.720145240117e-14
    59    2.479743994135e-13
    60    8.890507819300e-01
    61   -7.071907643990e-13
    62    2.365282448541e-03
    63   -1.180940490014e-14
    64    7.722532355678e-14
    65    1.002715190802e-01
    66   -8.186485402724e-14
    67    2.015117199641e-15
    68    2.168410715855e-16
[5D7F]

======= END OF MOLDEN-FORMATTED INPUT FILE =======


        *************************************************************
        *                                                           *
        *  Thank you very much for using Q-Chem.  Have a nice day.  *
        *                                                           *
        *************************************************************


