                  Welcome to Q-Chem
     A Quantum Leap Into The Future Of Chemistry


 Q-Chem 6.0 (devel), Q-Chem, Inc., Pleasanton, CA (2022)

 E. Epifanovsky,  A. T. B. Gilbert,  Xintian Feng,  Joonho Lee,  Yuezhi Mao,  
 N. Mardirossian,  P. Pokhilko,  A. White,  M. Wormit,  M. P. Coons,  
 A. L. Dempwolff,  Zhengting Gan,  D. Hait,  P. R. Horn,  L. D. Jacobson,  
 I. Kaliman,  J. Kussmann,  A. W. Lange,  Ka Un Lao,  D. S. Levine,  Jie Liu,  
 S. C. McKenzie,  A. F. Morrison,  K. Nanda,  F. Plasser,  D. R. Rehn,  
 M. L. Vidal,  Zhi-Qiang You,  Ying Zhu,  B. Alam,  B. Albrecht,  
 A. Aldossary,  E. Alguire,  J. H. Andersen,  V. Athavale,  D. Barton,  
 K. Begam,  A. Behn,  N. Bellonzi,  Y. A. Bernard,  E. J. Berquist,  
 H. Burton,  A. Carreras,  K. Carter-Fenk,  Romit Chakraborty,  
 Chandrima Chakravarty,  Junhan Chen,  A. D. Chien,  K. D. Closser,  
 V. Cofer-Shabica,  L. Cunha,  S. Dasgupta,  Jia Deng,  M. de Wergifosse,  
 M. Diedenhofen,  Hainam Do,  S. Ehlert,  Po-Tung Fang,  S. Fatehi,  
 Qingguo Feng,  T. Friedhoff,  B. Ganoe,  J. Gayvert,  Qinghui Ge,  
 G. Gidofalvi,  M. Goldey,  J. Gomes,  C. Gonzalez-Espinoza,  S. Gulania,  
 A. Gunina,  J. A. Gyamfi,  M. W. D. Hanson-Heine,  P. H. P. Harbach,  
 A. W. Hauser,  M. F. Herbst,  M. Hernandez Vera,  M. Hodecker,  
 Z. C. Holden,  S. Houck,  Xunkun Huang,  Kerwin Hui,  B. C. Huynh,  
 K. Ikeda,  M. Ivanov,  Hyunjun Ji,  Zuxin Jin,  Hanjie Jiang,  B. Kaduk,  
 S. Kaehler,  R. Kang,  K. Khistyaev,  Jaehoon Kim,  Yongbin Kim,  
 P. Klunzinger,  Z. Koczor-Benda,  Joong Hoon Koh,  D. Kosenkov,  
 Saikiran Kotaru,  L. Koulias,  T. Kowalczyk,  C. M. Krauter,  K. Kue,  
 A. Kunitsa,  T. Kus,  A. Landau,  K. V. Lawler,  D. Lefrancois,  S. Lehtola,  
 Rain Li,  Shaozhi Li,  Yi-Pei Li,  Jiashu Liang,  M. Liebenthal,  
 Hung-Hsuan Lin,  You-Sheng Lin,  Fenglai Liu,  Kuan-Yu Liu,  
 M. Loipersberger,  A. Luenser,  C. Malbon,  A. Manjanath,  P. Manohar,  
 E. Mansoor,  S. F. Manzer,  Shan-Ping Mao,  A. V. Marenich,  T. Markovich,  
 S. Mason,  F. Matz,  S. A. Maurer,  P. F. McLaughlin,  M. F. S. J. Menger,  
 J.-M. Mewes,  S. A. Mewes,  P. Morgante,  Mohammad Mostafanejad,  
 J. W. Mullinax,  K. J. Oosterbaan,  G. Paran,  V. Parravicini,  
 Alexander C. Paul,  Suranjan K. Paul,  F. Pavosevic,  Zheng Pei,  S. Prager,  
 E. I. Proynov,  E. Ramos,  B. Rana,  A. E. Rask,  A. Rettig,  R. M. Richard,  
 F. Rob,  E. Rossomme,  T. Scheele,  M. Scheurer,  M. Schneider,  
 P. E. Schneider,  N. Sergueev,  S. M. Sharada,  Hengyuan Shen,  
 W. Skomorowski,  D. W. Small,  C. J. Stein,  Yingli Su,  Yu-Chuan Su,  
 E. J. Sundstrom,  Zhen Tao,  J. Thirman,  Hung-Yi Tsai,  T. Tsuchimochi,  
 N. M. Tubman,  C. Utku,  S. P. Veccham,  O. Vydrov,  J. Wenzel,  
 Jonathan Wong,  J. Witte,  A. Yamada,  Chou-Hsun Yang,  Kun Yao,  
 S. Yeganeh,  S. R. Yost,  A. Zech,  F. Zeller,  Igor Ying Zhang,  
 Xing Zhang,  Yu Zhang,  D. Zuev,  A. Aspuru-Guzik,  A. T. Bell,  
 N. A. Besley,  K. B. Bravaya,  B. R. Brooks,  D. Casanova,  Jeng-Da Chai,  
 Hsing-Ta Chen,  S. Coriani,  C. J. Cramer,  A. E. DePrince, III,  
 R. A. DiStasio Jr.,  A. Dreuw,  B. D. Dunietz,  T. R. Furlani,  
 W. A. Goddard III,  S. Grimme,  S. Hammes-Schiffer,  T. Head-Gordon,  
 W. J. Hehre,  Chao-Ping Hsu,  T.-C. Jagau,  Yousung Jung,  A. Klamt,  
 Jing Kong,  D. S. Lambrecht,  Xiangyuan Li,  WanZhen Liang,  N. J. Mayhall,  
 C. W. McCurdy,  J. B. Neaton,  T. Neudecker,  C. Ochsenfeld,  
 J. A. Parkhill,  R. Peverati,  V. A. Rassolov,  Haisheng Ren,  Yihan Shao,  
 L. V. Slipchenko,  R. P. Steele,  J. E. Subotnik,  A. J. W. Thom,  
 A. Tkatchenko,  D. G. Truhlar,  T. Van Voorhis,  Fan Wang,  
 T. A. Wesolowski,  K. B. Whaley,  H. L. Woodcock III,  P. M. Zimmerman,  
 S. Faraji,  P. M. W. Gill,  M. Head-Gordon,  J. M. Herbert,  A. I. Krylov

 Contributors to earlier versions of Q-Chem not listed above: 
 R. D. Adamson,  B. Austin,  R. Baer,  J. Baker,  G. J. O. Beran,  
 K. Brandhorst,  S. T. Brown,  E. F. C. Byrd,  Arup K. Chakraborty,  
 G. K. L. Chan,  Chun-Min Chang,  Yunqing Chen,  C.-L. Cheng,  
 Siu Hung Chien,  D. M. Chipman,  D. L. Crittenden,  H. Dachsel,  
 R. J. Doerksen,  A. D. Dutoi,  R. G. Edgar,  J. Fosso-Tande,  
 L. Fusti-Molnar,  D. Ghosh,  A. Ghysels,  A. Golubeva-Zadorozhnaya,  
 J. Gonthier,  M. S. Gordon,  S. R. Gwaltney,  G. Hawkins,  J. E. Herr,  
 A. Heyden,  S. Hirata,  E. G. Hohenstein,  G. Kedziora,  F. J. Keil,  
 C. Kelley,  Jihan Kim,  R. A. King,  R. Z. Khaliullin,  P. P. Korambath,  
 W. Kurlancheek,  A. Laurent,  A. M. Lee,  M. S. Lee,  S. V. Levchenko,  
 Ching Yeh Lin,  D. Liotard,  E. Livshits,  R. C. Lochan,  I. Lotan,  
 L. A. Martinez-Martinez,  P. E. Maslen,  N. Nair,  D. P. O'Neill,  
 D. Neuhauser,  E. Neuscamman,  C. M. Oana,  R. Olivares-Amaya,  R. Olson,  
 T. M. Perrine,  B. Peters,  P. A. Pieniazek,  A. Prociuk,  Y. M. Rhee,  
 J. Ritchie,  M. A. Rohrdanz,  E. Rosta,  N. J. Russ,  H. F. Schaefer III,  
 M. W. Schmidt,  N. E. Schultz,  S. Sharma,  N. Shenvi,  C. D. Sherrill,  
 A. C. Simmonett,  A. Sodt,  T. Stein,  D. Stuck,  K. S. Thanthiriwatte,  
 V. Vanovschi,  L. Vogt,  Tao Wang,  A. Warshel,  M. A. Watson,  
 C. F. Williams,  Q. Wu,  X. Xu,  Jun Yang,  W. Zhang,  Yan Zhao

   Please cite Q-Chem as follows:
  "Software for the frontiers of quantum chemistry:
   An overview of developments in the Q-Chem 5 package"
   J. Chem. Phys. 155, 084801 (2021)
   https://doi.org/10.1063/5.0055522 (open access)

 Q-Chem 6.0.1 for Intel X86 EM64T Linux

 Parts of Q-Chem use Armadillo 9.900.5 (Nocturnal Misbehaviour).
 http://arma.sourceforge.net/

 Q-Chem begins on Wed Jun 21 09:04:01 2023  

 Host: atlas-187
0

     Scratch files written to ./qchem298061//
 Processing $rem in /scratch/abel/SOFTWARE/qchem/config/preferences:
 Processing $rem in /dipc/acebg/.qchemrc:

 Checking the input file for inconsistencies... 	...done.

--------------------------------------------------------------
User input:
--------------------------------------------------------------
$comment
 RAS-SF CALCULATION
$end

$molecule
 READ nf.molecule
$end

$rem
!**CALCULATION TYPE***     
JOBTYPE            sp    
EXCHANGE           HF
CORRELATION        RASCI    !RASCI=Casanova; RASCI2=Zimmerman
BASIS              def2-TZVP

!***SCF REFERENCE***
!SKIP_SCFMAN        FALSE
UNRESTRICTED       FALSE
!SCF_GUESS          core
!SCF_GUESS_MIX      FALSE
!SCF_GUESS_ALWAYS   FALSE
MAX_SCF_CYCLES     500
!SCF_CONVERGENCE    8
!SCF_ALGORITHM      DIIS !DIIS,DM,DIIS_DM,GDM,DIIS_GDM,GD

!SYMMETRY           TRUE !use of symmetry for calculating integrals
!SYM_IGNORE         FALSE !turn off using symmetry
!SYM_TOL            5 !tolerance for determining point group

!THRESH             14
SCF_FINAL_PRINT     1 !0,1,2,3

!****RAS-SF****
RAS_ROOTS          20       !number of RAS-CI roots to be computed
SET_ITER           150      !number of iterations in RASCI
RAS_ELEC           12       !number of electrons in RAS2
RAS_ELEC_ALPHA     7       !spin-α electrons in RAS2 
RAS_ELEC_BETA      5       !spin-β electrons in RAS2

RAS_ACT            9       !number of orbitals in RAS2 
RAS_ACT_ORB   [3,4,5,6,7,8,9,10,11]  !user-selected RAS2 orbitals
RAS_OCC            2       !number of orbitals in RAS1
!N_FROZEN_CORE      0     !Number of frozen core orbitals
!N_FROZEN_VIRTUAL   0      !Number of frozen virtual orbitals

RAS_DO_HOLE        TRUE   !presence of hole excitations in RAS-CI wave function
RAS_DO_PART        TRUE   !presence of particle excitations
!RAS_AMPL_PRINT     10     !threshold (×10 2 ) for the CI amplitudes

!RAS_GUESS_CS       0      !number of closed shell guess conﬁgurations
!RAS_SPIN_MULT      0      !spin multiplicity: 0=any, 2n+1=defined 
!RAS_SRDFT          FALSE  !short-range density functional RAS-CI
!RAS_NFRAG          0     !fragments of excitation analysis in RASCI

RAS_PRINT          2      !level of information
RAS_NATORB         TRUE   !computation of the natural orbital occupancies
!RAS_NATORB_STATE  0      !Saves NO of i RAS computed state in .fchk ﬁle
!RAS_FOD            TRUE

!****RAS-SOC****
CALC_SOC           TRUE   !calculate SOC for EOM-CC, RAS-CI, ADC, TDDFT/TDA and TDDFT
!RAS_SOC_2E        TRUE   !two-electron mean-ﬁeld contribution, default=true
RAS_SOC_SYM_DENS   TRUE   !averaging of α and β densities

!****MEMORY****
MEM_TOTAL          60000 !Default 2000 MB
MEM_STATIC         16000  !Default 64 MB

!**Molecular Properties and Analysis **                                                                                          
!GUI                2
STATE_ANALYSIS     TRUE
MOLDEN_FORMAT      TRUE
PRINT_ORBITALS     20
$end                                           

--------------------------------------------------------------
 ----------------------------------------------------------------
             Standard Nuclear Orientation (Angstroms)
    I     Atom           X                Y                Z
 ----------------------------------------------------------------
    1      N       0.0000000000     0.0000000000    -0.7407562500
    2      F       0.0000000000     0.0000000000     0.5761437500
 ----------------------------------------------------------------
 Molecular Point Group                 C2v   NOp =  4
 Largest Abelian Subgroup              C2v   NOp =  4
 Nuclear Repulsion Energy =          25.31563845 hartrees
 There are        9 alpha and        7 beta electrons
 Requested basis set is def2-TZVP
 There are 22 shells and 62 basis functions

 Q-Chem warning in module libmdc/get_mega.C, line 167:

 Allowed MEM_STATIC has been capped at MEM_STATIC=8191.
 Reduce the value of MEM_STATIC to silence this warning.


 Total QAlloc Memory Limit  60000 MB
 Mega-Array Size      8007 MB
 MEM_STATIC part      8191 MB


                       Distance Matrix (Angstroms)
             N (  1)
   F (  2)  1.316900
 
 A cutoff of  1.0D-09 yielded    251 shell pairs
 There are      2051 function pairs (      2794 Cartesian)
 Smallest overlap matrix eigenvalue = 6.25E-03

 Scale SEOQF with 1.000000e+00/1.000000e+00/1.000000e+00

 Standard Electronic Orientation quadrupole field applied
 Nucleus-field energy     =    -0.0000000073 hartrees
 Guess from superposition of atomic densities
 Warning:  Energy on first SCF cycle will be non-variational
 SAD guess density has 16.000000 electrons

 -----------------------------------------------------------------------
  General SCF calculation program by
  Eric Jon Sundstrom, Paul Horn, Yuezhi Mao, Dmitri Zuev, Alec White,
  David Stuck, Shaama M.S., Shane Yost, Joonho Lee, David Small,
  Daniel Levine, Susi Lehtola, Hugh Burton, Evgeny Epifanovsky,
  Bang C. Huynh
 -----------------------------------------------------------------------
 Hartree-Fock
 Orthonormalizing orbitals
 A restricted open-shell SCF calculation will be
 performed using GDM
 SCF converges when RMS gradient is below 1.0e-05
 ---------------------------------------
  Cycle       Energy        RMS Gradient
 ---------------------------------------
    1    -152.2596416018      8.69e-01   Descent step
    2    -152.7022862912      6.65e-01   Descent step
    3    -152.9902705462      4.41e-01   Descent step
    4    -153.2389698510      6.77e-01   Descent step
    5    -153.5012502434      2.00e-01   Descent step
    6    -153.5612554595      3.75e-02   Dog-leg BFGS step
    7    -153.5193201523      2.29e-01  Line search: overstep
    8    -153.5625748508      5.45e-02   Dog-leg BFGS step
    9    -153.5601465582      6.91e-02  Line search: overstep
   10    -153.5693358598      3.17e-02   Normal BFGS step
   11    -153.5713269774      1.15e-02   Normal BFGS step
   12    -153.5714873476      5.42e-03   Normal BFGS step
   13    -153.5715026314      2.77e-03   Normal BFGS step
   14    -153.5715067524      5.84e-04   Normal BFGS step
   15    -153.5715075927      6.33e-04   Normal BFGS step
   16    -153.5715080756      2.20e-04   Normal BFGS step
   17    -153.5715081394      2.16e-05   Normal BFGS step
   18    -153.5715081414      6.18e-06  Convergence criterion met
The disked orbital energies are calculated using alpha and beta Focks
 ---------------------------------------
 Alpha HF Exchange    Energy =  -8.91904369882775
 Beta HF Exchange     Energy =  -7.65977439862846
 Nuclear Attraction   Energy =   0.00000000000000
 One-Electron (alpha) Energy = -139.98157691826245
 One-Electron (beta)  Energy = -122.90219318487857
 Total Coulomb        Energy = 100.57544161226593
 Final Alpha MO Eigenvalues
            1           2           3           4           5           6
    1 -26.4311674 -15.6983126  -1.7437868  -1.0816035  -0.7969550  -0.7961649
            7           8           9          10          11          12
    1  -0.4630853  -0.8233852  -0.5548143   0.2377721   0.3491112   0.4417992
           13          14          15          16          17          18
    1   0.4720660   0.5121915   0.6488787   0.7290350   0.7358539   1.0761379
           19          20          21          22          23          24
    1   1.1800280   1.1814588   1.2670587   1.3016976   1.6392159   2.1033108
           25          26          27          28          29          30
    1   2.2210284   2.2210308   2.2148746   2.2685098   2.6468218   2.6719287
           31          32          33          34          35          36
    1   2.6928410   2.8842577   3.5193293   3.5299906   3.9585805   4.1462894
           37          38          39          40          41          42
    1   4.1939517   4.1938956   4.1987321   4.2029421   4.5947475   4.6364424
           43          44          45          46          47          48
    1   4.7754249   4.7771034   4.9628844   5.0133767   5.1084845   6.2674241
           49          50          51          52          53          54
    1   7.3150121   7.3150122   7.3777620   7.3777709   7.7664580   7.7778294
           55          56          57          58          59          60
    1   8.1635536   8.7995909   8.7995954   9.2207028   9.2293075   9.7726091
           61          62
    1  32.4514265  58.6431913
 Final Beta MO Eigenvalues
            1           2           3           4           5           6
    1 -26.4170664 -15.6320880  -1.6766882  -0.8891035  -0.7765400  -0.7447103
            7           8           9          10          11          12
    1  -0.3650518  -0.1036640   0.2243485   0.3103645   0.3906043   0.5081887
           13          14          15          16          17          18
    1   0.4906544   0.6151345   0.6823187   0.7419413   0.7404982   1.0862829
           19          20          21          22          23          24
    1   1.2644864   1.2642540   1.3717045   1.3532978   1.7077739   2.2210436
           25          26          27          28          29          30
    1   2.2342618   2.2342687   2.3515338   2.3050085   2.7043587   2.7026869
           31          32          33          34          35          36
    1   2.7403860   2.9243240   3.5440371   3.5407490   3.9903114   4.2026722
           37          38          39          40          41          42
    1   4.2634341   4.2636540   4.2581981   4.2574014   4.6664664   4.6673423
           43          44          45          46          47          48
    1   4.8886071   4.8877694   5.0810419   5.0794023   5.1923866   6.2995737
           49          50          51          52          53          54
    1   7.3208024   7.3208027   7.3940910   7.3940755   7.7966977   7.8025650
           55          56          57          58          59          60
    1   8.1986017   8.8107972   8.8107900   9.2527010   9.2553775   9.8065065
           61          62
    1  32.5037934  58.6506865
 SCF time:   CPU 4.17s  wall 5.00s 
<S^2> =          2.000000000
 SCF   energy in the final basis set =     -153.5715081414
 Total energy in the final basis set =     -153.5715081414
  
     ##========================================##
     ||                                        ||
     ||              R A S M A N 2             ||
     ||________________________________________||
     ||                                        ||
     ||  Author:                               ||
     ||                                        ||
     ||        David Casanova (2010)           ||
     ||                                        ||
     ##========================================##
  
Setting single-point xc-functionals (if necessary)

  ***************************************************
  *  RAS-CI Dimensions:                             *
  *                                                 *
  *  Active Elec.:  12 ( 7, 5)   Active Orb.:   9   *
  *  Doubly Occ. :   2           Doubly Vir.:  51   *
  *  Frozen Occ. :   0           Frozen Vir.:   0   *
  *                                                 *
  *  Total CI configurations:    783972             * 
  *    Active configurations:      4536             * 
  *      Hole configurations:      8316             * 
  *  Particle configurations:    771120             * 
  *                                                 *
  *   Requested states:       20                    *
  *  Spin multiplicity: Any multiplicity            *
  *                                                 *
  ***************************************************
-----------------------------------------
    Memory requirements of RASCI

 Each CI-vector requires      5.98 MiB 
 Max. subspace vectors           3000      

 Reduced Lists                0.00 MiB 
 Excitation Lists             0.01 MiB 
 Excitation Lists Sign        0.01 MiB 
 CI-space (Max)           18132.01 MiB 
 Integrals                    5.51 MiB 
 Memory required (Max)    18132.02 MiB 
 Memory available          7811.55 MiB 

 Q-Chem warning in module rasman2/ras_mem_check.C, line 162:

 Static memory may be insufficient to store the subspace vectors


    Disk requirements of RASCI

 Fock matrix                  0.06 MiB 
 2-electron integrals         7.26 MiB 
 CI-space                 35887.39 MiB 
 Disk required            35894.70 MiB 
-----------------------------------------
  
RAS1 HF-like energy:           -106.1484938229
 Computing integrals
 Computing J and K matrices
 Computing addressing
 Making amplitude guesses
 
Direct CI diagonalization
 ---------------------------------------------------
 Iter    Rts Conv    Rts Left    Ttl Dev     Max Dev
 ---------------------------------------------------
   1         0          20      0.018952    0.001711
   2         0          20      0.011048    0.000914
   3         0          20      0.013342    0.001141
   4         0          20      0.007969    0.000592
   5         0          20      0.006710    0.000529
   6         0          20      0.004452    0.000364
   7         0          20      0.005362    0.001139
   8         0          20      0.005508    0.001175
   9         0          20      0.004725    0.000962
  10         0          20      0.004518    0.000908
  11         0          20      0.003778    0.000686
  12         0          20      0.003564    0.000699
  13         0          20      0.003625    0.000672
  14         0          20      0.002862    0.000534
  15         0          20      0.002894    0.000482
  16         0          20      0.002414    0.000333
  17         0          20      0.002331    0.000362
  18         0          20      0.002094    0.000357
  19         0          20      0.002304    0.000390
  20         0          20      0.002125    0.000310
  21         1          19      0.001939    0.000284
  22         1          19      0.002659    0.000470
  23         1          19      0.002481    0.000398
  24         1          19      0.003414    0.000720
  25         1          19      0.002481    0.000432
  26         2          18      0.002313    0.000428
  27         3          17      0.002156    0.000388
  28         3          17      0.001782    0.000356
  29         3          17      0.001699    0.000343
  30         5          15      0.001494    0.000341
  31         6          14      0.001466    0.000333
  32         7          13      0.001522    0.000284
  33         8          12      0.001399    0.000253
  34         8          12      0.001201    0.000204
  35         9          11      0.001040    0.000174
  36        10          10      0.000899    0.000176
  37        11           9      0.000769    0.000162
  38        11           9      0.000675    0.000129
  39        11           9      0.000575    0.000110
  40        11           9      0.000521    0.000092
  41        11           9      0.000440    0.000085
  42        11           9      0.000407    0.000086
  43        11           9      0.000348    0.000075
  44        11           9      0.000402    0.000106
  45        11           9      0.000346    0.000077
  46        11           9      0.000298    0.000055
  47        11           9      0.000262    0.000053
  48        11           9      0.000214    0.000044
  49        11           9      0.000188    0.000038
  50        12           8      0.000159    0.000032
  51        12           8      0.000143    0.000028
  52        12           8      0.000126    0.000025
  53        11           9      0.000173    0.000069
  54        11           9      0.000145    0.000057
  55        11           9      0.000119    0.000044
  56        11           9      0.000101    0.000037
  57        11           9      0.000083    0.000029
  58        11           9      0.000070    0.000025
  59        12           8      0.000058    0.000020
  60        13           7      0.000049    0.000016
  61        15           5      0.000043    0.000014
  62        16           4      0.000038    0.000012
  63        16           4      0.000031    0.000009
  64        16           4      0.000026    0.000007
  65        16           4      0.000022    0.000006
  66        17           3      0.000018    0.000004
  67        17           3      0.000016    0.000003
  68        18           2      0.000014    0.000003
  69        18           2      0.000013    0.000002
  70        19           1      0.000012    0.000002
  71        19           1      0.000011    0.000001
  72        20           0      0.000011    0.000001    Roots Converged
 ---------------------------------------------------
   
**************************************************
 RAS-CI total energy for state   1:   -153.966724016965
  Excitation energy (eV) =  0.000000000000
  State symmetry: A2    (C2v      )
  <S^2>      :  2.0000
  Dipole Moment:   -0.0000 X     0.0000 Y    -0.1834 Z
 NATURAL OCCUPATION NUMBERS (higher than 1.0E-05)
            1           2           3           4           5           6
    1   1.9999999   1.9999982   1.9957298   1.9829009   1.9824496   1.9768431
            7           8           9          10          11          12
    1   1.9631603   1.0098337   1.0097691   0.0346321   0.0101428   0.0054829
           13          14          15          16          17          18
    1   0.0049111   0.0047496   0.0031934   0.0031582   0.0021148   0.0019609
           19          20          21          22          23          24
    1   0.0018138   0.0012424   0.0012138   0.0008033   0.0006568   0.0004376
           25          26          27          28          29          30
    1   0.0004373   0.0003952   0.0003823   0.0003806   0.0002973   0.0001056
           31          32          33          34          35          36
    1   0.0000991   0.0000755   0.0000599   0.0000579   0.0000513   0.0000505
           37          38          39          40          41          42
    1   0.0000315   0.0000280   0.0000261   0.0000257   0.0000257   0.0000234
           43          44          45          46          47          48
    1   0.0000230   0.0000229   0.0000221   0.0000220   0.0000208   0.0000207
           49          50          51          52          53
    1   0.0000184   0.0000182   0.0000173   0.0000168   0.0000167
 Created directory ./qchem298061/plots

  Amplitudes : 
  
 | HOLE  | ALPHA     | BETA      | PART  |    AMPLITUDE 
--------------------------------------------------
 |       | 111111100 | 111101000 |       |     9.5324060438982E-01
 |       | 111111100 | 111001100 |       |    -1.3234393563184E-01
--------------------------------------------------
*** Contributions RASCI wfn    Active:  94.98
                                 Hole:   0.00
                                 Part:   5.02

      Mulliken population analysis 
 ---------------------------------------------------
   Atom    Charge (a.u.)   Spin (a.u.)  
 ---------------------------------------------------
   1  N   -0.018932        1.817109 
   2  F    0.018932        0.182891 
 ---------------------------------------------------
   Sum:   -0.000000        2.000000 
 ---------------------------------------------------
 
  
 NATURAL OCCUPATION NUMBERS (higher than 1.0E-05)
            1           2           3           4           5           6
    1   1.9999999   1.9999982   1.9957298   1.9829009   1.9824496   1.9768431
            7           8           9          10          11          12
    1   1.9631603   1.0098337   1.0097691   0.0346321   0.0101428   0.0054829
           13          14          15          16          17          18
    1   0.0049111   0.0047496   0.0031934   0.0031582   0.0021148   0.0019609
           19          20          21          22          23          24
    1   0.0018138   0.0012424   0.0012138   0.0008033   0.0006568   0.0004376
           25          26          27          28          29          30
    1   0.0004373   0.0003952   0.0003823   0.0003806   0.0002973   0.0001056
           31          32          33          34          35          36
    1   0.0000991   0.0000755   0.0000599   0.0000579   0.0000513   0.0000505
           37          38          39          40          41          42
    1   0.0000315   0.0000280   0.0000261   0.0000257   0.0000257   0.0000234
           43          44          45          46          47          48
    1   0.0000230   0.0000229   0.0000221   0.0000220   0.0000208   0.0000207
           49          50          51          52          53
    1   0.0000184   0.0000182   0.0000173   0.0000168   0.0000167
  
*** Unpaired Electrons
 Yamaguchi Nd:         2.35
 Head-Gordon Nu:       2.16
 Head-Gordon Nu_nl:    2.01
  
**************************************************
 RAS-CI total energy for state   2:   -153.698304082140
  Excitation energy (eV) =  7.304078046460
  State symmetry: B1    (C2v      )
  <S^2>      :  2.0000
  Dipole Moment:   -0.0000 X    -0.0000 Y    -0.2401 Z
  Trans. Moment:   -0.0000 X     0.3408 Y    -0.0000 Z
  Strength   :  0.020785
  Natural transition orbitals ( 1 -> 2 ):
   e-/hole pair  1 alpha:  ampl =  0.304366 (  9.3%)   [9 : 10]
   e-/hole pair  2 alpha:  ampl =  0.034893 (  0.1%)   [8 : 11]
   e-/hole pair  1 beta :  ampl =  0.908516 ( 82.5%)   [9 : 10]
   e-/hole pair  2 beta :  ampl =  0.044800 (  0.2%)   [8 : 11]
   Sum of square amplitudes: 0.93

 NATURAL OCCUPATION NUMBERS (higher than 1.0E-05)
            1           2           3           4           5           6
    1   1.9999998   1.9999978   1.9937347   1.9893524   1.9842752   1.9621666
            7           8           9          10          11          12
    1   1.7867427   1.1068193   1.0066573   0.1280978   0.0080979   0.0062861
           13          14          15          16          17          18
    1   0.0050444   0.0045648   0.0031196   0.0026087   0.0023362   0.0016269
           19          20          21          22          23          24
    1   0.0012988   0.0011979   0.0011476   0.0008823   0.0006475   0.0006464
           25          26          27          28          29          30
    1   0.0004620   0.0003040   0.0003033   0.0002943   0.0002175   0.0001666
           31          32          33          34          35          36
    1   0.0000914   0.0000805   0.0000661   0.0000635   0.0000585   0.0000537
           37          38          39          40          41          42
    1   0.0000491   0.0000441   0.0000410   0.0000357   0.0000329   0.0000325
           43          44          45          46          47          48
    1   0.0000308   0.0000274   0.0000273   0.0000272   0.0000254   0.0000210
           49          50          51          52
    1   0.0000163   0.0000152   0.0000111   0.0000105

  Amplitudes : 
  
 | HOLE  | ALPHA     | BETA      | PART  |    AMPLITUDE 
--------------------------------------------------
 |       | 111111100 | 111110000 |       |     9.1398349487377E-01
 |       | 111101110 | 111101000 |       |     2.6080583391164E-01
--------------------------------------------------
*** Contributions RASCI wfn    Active:  94.35
                                 Hole:   0.00
                                 Part:   5.65

      Mulliken population analysis 
 ---------------------------------------------------
   Atom    Charge (a.u.)   Spin (a.u.)  
 ---------------------------------------------------
   1  N   -0.121409        1.599715 
   2  F    0.121409        0.400285 
 ---------------------------------------------------
   Sum:   -0.000000        2.000000 
 ---------------------------------------------------
 
  
 NATURAL OCCUPATION NUMBERS (higher than 1.0E-05)
            1           2           3           4           5           6
    1   1.9999998   1.9999978   1.9937347   1.9893524   1.9842752   1.9621666
            7           8           9          10          11          12
    1   1.7867427   1.1068193   1.0066573   0.1280978   0.0080979   0.0062861
           13          14          15          16          17          18
    1   0.0050444   0.0045648   0.0031196   0.0026087   0.0023362   0.0016269
           19          20          21          22          23          24
    1   0.0012988   0.0011979   0.0011476   0.0008823   0.0006475   0.0006464
           25          26          27          28          29          30
    1   0.0004620   0.0003040   0.0003033   0.0002943   0.0002175   0.0001666
           31          32          33          34          35          36
    1   0.0000914   0.0000805   0.0000661   0.0000635   0.0000585   0.0000537
           37          38          39          40          41          42
    1   0.0000491   0.0000441   0.0000410   0.0000357   0.0000329   0.0000325
           43          44          45          46          47          48
    1   0.0000308   0.0000274   0.0000273   0.0000272   0.0000254   0.0000210
           49          50          51          52
    1   0.0000163   0.0000152   0.0000111   0.0000105
  
*** Unpaired Electrons
 Yamaguchi Nd:         2.83
 Head-Gordon Nu:       2.34
 Head-Gordon Nu_nl:    2.19
  
**************************************************
 RAS-CI total energy for state   3:   -153.697912193153
  Excitation energy (eV) =  7.314741888356
  State symmetry: B2    (C2v      )
  <S^2>      :  2.0000
  Dipole Moment:   -0.0000 X    -0.0000 Y    -0.2396 Z
  Trans. Moment:    0.3351 X     0.0000 Y    -0.0000 Z
  Strength   :  0.020118
  Natural transition orbitals ( 1 -> 3 ):
   e-/hole pair  1 alpha:  ampl =  0.314858 (  9.9%)   [9 : 10]
   e-/hole pair  2 alpha:  ampl =  0.035499 (  0.1%)   [8 : 11]
   e-/hole pair  1 beta :  ampl =  0.904570 ( 81.8%)   [9 : 10]
   e-/hole pair  2 beta :  ampl =  0.043647 (  0.2%)   [8 : 11]
   Sum of square amplitudes: 0.93

 NATURAL OCCUPATION NUMBERS (higher than 1.0E-05)
            1           2           3           4           5           6
    1   1.9999998   1.9999978   1.9938100   1.9889514   1.9839183   1.9625498
            7           8           9          10          11          12
    1   1.7727142   1.1138281   1.0067864   0.1350946   0.0079756   0.0062571
           13          14          15          16          17          18
    1   0.0050267   0.0046449   0.0031891   0.0026244   0.0023688   0.0017708
           19          20          21          22          23          24
    1   0.0012856   0.0011752   0.0011397   0.0008708   0.0006580   0.0006442
           25          26          27          28          29          30
    1   0.0004617   0.0003098   0.0003070   0.0002984   0.0002246   0.0001668
           31          32          33          34          35          36
    1   0.0000946   0.0000828   0.0000731   0.0000725   0.0000636   0.0000586
           37          38          39          40          41          42
    1   0.0000563   0.0000449   0.0000418   0.0000372   0.0000327   0.0000320
           43          44          45          46          47          48
    1   0.0000315   0.0000291   0.0000277   0.0000276   0.0000256   0.0000212
           49          50          51          52          53
    1   0.0000163   0.0000153   0.0000111   0.0000109   0.0000101

  Amplitudes : 
  
 | HOLE  | ALPHA     | BETA      | PART  |    AMPLITUDE 
--------------------------------------------------
 |       | 111111100 | 111100100 |       |     9.0873159573174E-01
 |       | 111111010 | 111101000 |       |     2.5922339834771E-01
--------------------------------------------------
*** Contributions RASCI wfn    Active:  93.29
                                 Hole:   0.00
                                 Part:   6.71

      Mulliken population analysis 
 ---------------------------------------------------
   Atom    Charge (a.u.)   Spin (a.u.)  
 ---------------------------------------------------
   1  N   -0.122106        1.600007 
   2  F    0.122106        0.399993 
 ---------------------------------------------------
   Sum:   -0.000000        2.000000 
 ---------------------------------------------------
 
  
 NATURAL OCCUPATION NUMBERS (higher than 1.0E-05)
            1           2           3           4           5           6
    1   1.9999998   1.9999978   1.9938100   1.9889514   1.9839183   1.9625498
            7           8           9          10          11          12
    1   1.7727142   1.1138281   1.0067864   0.1350946   0.0079756   0.0062571
           13          14          15          16          17          18
    1   0.0050267   0.0046449   0.0031891   0.0026244   0.0023688   0.0017708
           19          20          21          22          23          24
    1   0.0012856   0.0011752   0.0011397   0.0008708   0.0006580   0.0006442
           25          26          27          28          29          30
    1   0.0004617   0.0003098   0.0003070   0.0002984   0.0002246   0.0001668
           31          32          33          34          35          36
    1   0.0000946   0.0000828   0.0000731   0.0000725   0.0000636   0.0000586
           37          38          39          40          41          42
    1   0.0000563   0.0000449   0.0000418   0.0000372   0.0000327   0.0000320
           43          44          45          46          47          48
    1   0.0000315   0.0000291   0.0000277   0.0000276   0.0000256   0.0000212
           49          50          51          52          53
    1   0.0000163   0.0000153   0.0000111   0.0000109   0.0000101
  
*** Unpaired Electrons
 Yamaguchi Nd:         2.87
 Head-Gordon Nu:       2.35
 Head-Gordon Nu_nl:    2.21
  
**************************************************
 RAS-CI total energy for state   4:   -153.679239215578
  Excitation energy (eV) =  7.822859460401
  State symmetry: B2    (C2v      )
  <S^2>      :  2.0000
  Dipole Moment:   -0.0000 X    -0.0000 Y    -0.3394 Z
  Trans. Moment:   -0.1253 X     0.0000 Y     0.0000 Z
  Strength   :  0.003009
  Natural transition orbitals ( 1 -> 4 ):
   e-/hole pair  1 alpha:  ampl =  0.891747 ( 79.5%)   [9 : 10]
   e-/hole pair  2 alpha:  ampl =  0.033600 (  0.1%)   [8 : 11]
   e-/hole pair  1 beta :  ampl =  0.321342 ( 10.3%)   [9 : 10]
   e-/hole pair  2 beta :  ampl =  0.027348 (  0.1%)   [8 : 11]
   Sum of square amplitudes: 0.90

 NATURAL OCCUPATION NUMBERS (higher than 1.0E-05)
            1           2           3           4           5           6
    1   1.9999998   1.9999974   1.9946276   1.9762161   1.9740774   1.9269328
            7           8           9          10          11          12
    1   1.8542257   1.0151804   0.8920572   0.3143810   0.0131498   0.0088804
           13          14          15          16          17          18
    1   0.0056418   0.0046229   0.0028081   0.0027025   0.0025026   0.0019486
           19          20          21          22          23          24
    1   0.0017328   0.0014838   0.0011126   0.0010393   0.0007923   0.0006337
           25          26          27          28          29          30
    1   0.0005196   0.0005018   0.0004270   0.0003760   0.0003232   0.0001036
           31          32          33          34          35          36
    1   0.0000970   0.0000748   0.0000742   0.0000700   0.0000678   0.0000662
           37          38          39          40          41          42
    1   0.0000534   0.0000450   0.0000426   0.0000414   0.0000345   0.0000345
           43          44          45          46          47          48
    1   0.0000325   0.0000302   0.0000286   0.0000259   0.0000250   0.0000222
           49          50          51          52          53          54
    1   0.0000216   0.0000196   0.0000175   0.0000174   0.0000174   0.0000146

  Amplitudes : 
  
 | HOLE  | ALPHA     | BETA      | PART  |    AMPLITUDE 
--------------------------------------------------
 |       | 111111100 | 111100100 |       |    -3.0480638047570E-01
 |       | 111111010 | 111101000 |       |     7.5092892081956E-01
 |       | 111111010 | 111001100 |       |    -2.1568993060980E-01
 |       | 111011110 | 111101000 |       |     2.7555204212721E-01
 |       | 111111000 | 111101000 |  14   |     2.9819805459957E-01
--------------------------------------------------
*** Contributions RASCI wfn    Active:  82.81
                                 Hole:   0.00
                                 Part:  17.19

      Mulliken population analysis 
 ---------------------------------------------------
   Atom    Charge (a.u.)   Spin (a.u.)  
 ---------------------------------------------------
   1  N   -0.288032        1.789971 
   2  F    0.288032        0.210029 
 ---------------------------------------------------
   Sum:   -0.000000        2.000000 
 ---------------------------------------------------
 
  
 NATURAL OCCUPATION NUMBERS (higher than 1.0E-05)
            1           2           3           4           5           6
    1   1.9999998   1.9999974   1.9946276   1.9762161   1.9740774   1.9269328
            7           8           9          10          11          12
    1   1.8542257   1.0151804   0.8920572   0.3143810   0.0131498   0.0088804
           13          14          15          16          17          18
    1   0.0056418   0.0046229   0.0028081   0.0027025   0.0025026   0.0019486
           19          20          21          22          23          24
    1   0.0017328   0.0014838   0.0011126   0.0010393   0.0007923   0.0006337
           25          26          27          28          29          30
    1   0.0005196   0.0005018   0.0004270   0.0003760   0.0003232   0.0001036
           31          32          33          34          35          36
    1   0.0000970   0.0000748   0.0000742   0.0000700   0.0000678   0.0000662
           37          38          39          40          41          42
    1   0.0000534   0.0000450   0.0000426   0.0000414   0.0000345   0.0000345
           43          44          45          46          47          48
    1   0.0000325   0.0000302   0.0000286   0.0000259   0.0000250   0.0000222
           49          50          51          52          53          54
    1   0.0000216   0.0000196   0.0000175   0.0000174   0.0000174   0.0000146
  
*** Unpaired Electrons
 Yamaguchi Nd:         3.14
 Head-Gordon Nu:       2.52
 Head-Gordon Nu_nl:    2.36
  
**************************************************
 RAS-CI total energy for state   5:   -153.679072657758
  Excitation energy (eV) =  7.827391729261
  State symmetry: B1    (C2v      )
  <S^2>      :  2.0000
  Dipole Moment:    0.0000 X    -0.0000 Y    -0.3419 Z
  Trans. Moment:   -0.0000 X    -0.1230 Y     0.0000 Z
  Strength   :  0.002902
  Natural transition orbitals ( 1 -> 5 ):
   e-/hole pair  1 alpha:  ampl =  0.895798 ( 80.2%)   [9 : 10]
   e-/hole pair  2 alpha:  ampl =  0.033576 (  0.1%)   [8 : 11]
   e-/hole pair  1 beta :  ampl =  0.311126 (  9.7%)   [9 : 10]
   e-/hole pair  2 beta :  ampl =  0.027506 (  0.1%)   [8 : 11]
   Sum of square amplitudes: 0.90

 NATURAL OCCUPATION NUMBERS (higher than 1.0E-05)
            1           2           3           4           5           6
    1   1.9999998   1.9999977   1.9945998   1.9769420   1.9739502   1.9255290
            7           8           9          10          11          12
    1   1.8616443   1.0150872   0.8989673   0.3012699   0.0130764   0.0091395
           13          14          15          16          17          18
    1   0.0055978   0.0046285   0.0029587   0.0024583   0.0022523   0.0019424
           19          20          21          22          23          24
    1   0.0016146   0.0014781   0.0011247   0.0010318   0.0008066   0.0006455
           25          26          27          28          29          30
    1   0.0005285   0.0005279   0.0004136   0.0003663   0.0003202   0.0001062
           31          32          33          34          35          36
    1   0.0000844   0.0000766   0.0000753   0.0000731   0.0000687   0.0000682
           37          38          39          40          41          42
    1   0.0000580   0.0000454   0.0000437   0.0000368   0.0000357   0.0000338
           43          44          45          46          47          48
    1   0.0000321   0.0000302   0.0000285   0.0000260   0.0000256   0.0000219
           49          50          51          52          53          54
    1   0.0000204   0.0000193   0.0000174   0.0000171   0.0000147   0.0000147

  Amplitudes : 
  
 | HOLE  | ALPHA     | BETA      | PART  |    AMPLITUDE 
--------------------------------------------------
 |       | 111111100 | 111110000 |       |    -2.9544659404978E-01
 |       | 111111100 | 101111000 |       |     1.0043951410984E-01
 |       | 111101110 | 111101000 |       |     7.9029886956727E-01
 |       | 111101110 | 111001100 |       |    -1.4824949128767E-01
 |       | 111101110 | 110111000 |       |    -1.2299039788204E-01
 |       | 110111110 | 111101000 |       |    -1.8520967265232E-01
 |       | 111101100 | 111101000 |  14   |     3.0886631119334E-01
--------------------------------------------------
*** Contributions RASCI wfn    Active:  83.19
                                 Hole:   0.00
                                 Part:  16.81

      Mulliken population analysis 
 ---------------------------------------------------
   Atom    Charge (a.u.)   Spin (a.u.)  
 ---------------------------------------------------
   1  N   -0.287769        1.801365 
   2  F    0.287769        0.198635 
 ---------------------------------------------------
   Sum:   -0.000000        2.000000 
 ---------------------------------------------------
 
  
 NATURAL OCCUPATION NUMBERS (higher than 1.0E-05)
            1           2           3           4           5           6
    1   1.9999998   1.9999977   1.9945998   1.9769420   1.9739502   1.9255290
            7           8           9          10          11          12
    1   1.8616443   1.0150872   0.8989673   0.3012699   0.0130764   0.0091395
           13          14          15          16          17          18
    1   0.0055978   0.0046285   0.0029587   0.0024583   0.0022523   0.0019424
           19          20          21          22          23          24
    1   0.0016146   0.0014781   0.0011247   0.0010318   0.0008066   0.0006455
           25          26          27          28          29          30
    1   0.0005285   0.0005279   0.0004136   0.0003663   0.0003202   0.0001062
           31          32          33          34          35          36
    1   0.0000844   0.0000766   0.0000753   0.0000731   0.0000687   0.0000682
           37          38          39          40          41          42
    1   0.0000580   0.0000454   0.0000437   0.0000368   0.0000357   0.0000338
           43          44          45          46          47          48
    1   0.0000321   0.0000302   0.0000285   0.0000260   0.0000256   0.0000219
           49          50          51          52          53          54
    1   0.0000204   0.0000193   0.0000174   0.0000171   0.0000147   0.0000147
  
*** Unpaired Electrons
 Yamaguchi Nd:         3.11
 Head-Gordon Nu:       2.50
 Head-Gordon Nu_nl:    2.33
  
**************************************************
 RAS-CI total energy for state   6:   -153.655650770135
  Excitation energy (eV) =  8.464733718437
  State symmetry: A2    (C2v      )
  <S^2>      :  2.0000
  Dipole Moment:    0.0000 X    -0.0000 Y    -1.3209 Z
  Trans. Moment:   -0.0000 X    -0.0000 Y     0.0164 Z
  Strength   :  0.000055
  Natural transition orbitals ( 1 -> 6 ):
   e-/hole pair  1 alpha:  ampl =  0.016399 (  0.0%)   [9 : 10]
   e-/hole pair  2 alpha:  ampl =  0.012469 (  0.0%)   [8 : 11]
   e-/hole pair  1 beta :  ampl =  0.677064 ( 45.8%)   [9 : 10]
   e-/hole pair  2 beta :  ampl =  0.639726 ( 40.9%)   [8 : 11]
   Sum of square amplitudes: 0.87

 NATURAL OCCUPATION NUMBERS (higher than 1.0E-05)
            1           2           3           4           5           6
    1   1.9999998   1.9999991   1.9936985   1.9879259   1.9697265   1.5271844
            7           8           9          10          11          12
    1   1.5175951   1.4729273   1.4628693   0.0270358   0.0098710   0.0046863
           13          14          15          16          17          18
    1   0.0037645   0.0032963   0.0026295   0.0024667   0.0022312   0.0021072
           19          20          21          22          23          24
    1   0.0013345   0.0012895   0.0012342   0.0010456   0.0010071   0.0006715
           25          26          27          28          29          30
    1   0.0005019   0.0004851   0.0003742   0.0002964   0.0001965   0.0001468
           31          32          33          34          35          36
    1   0.0001452   0.0001270   0.0001202   0.0000894   0.0000872   0.0000853
           37          38          39          40          41          42
    1   0.0000809   0.0000761   0.0000736   0.0000603   0.0000558   0.0000466
           43          44          45          46          47          48
    1   0.0000455   0.0000445   0.0000439   0.0000410   0.0000343   0.0000225
           49          50          51          52          53
    1   0.0000223   0.0000211   0.0000167   0.0000166   0.0000136

  Amplitudes : 
  
 | HOLE  | ALPHA     | BETA      | PART  |    AMPLITUDE 
--------------------------------------------------
 |       | 111111100 | 111001100 |       |    -6.2677780338356E-01
 |       | 111111100 | 110111000 |       |     6.6729261322272E-01
 |       | 111110110 | 110111000 |       |     1.0291540238985E-01
--------------------------------------------------
*** Contributions RASCI wfn    Active:  89.82
                                 Hole:   0.00
                                 Part:  10.18

      Mulliken population analysis 
 ---------------------------------------------------
   Atom    Charge (a.u.)   Spin (a.u.)  
 ---------------------------------------------------
   1  N   -0.532570        0.994439 
   2  F    0.532570        1.005561 
 ---------------------------------------------------
   Sum:   -0.000000        2.000000 
 ---------------------------------------------------
 
  
 NATURAL OCCUPATION NUMBERS (higher than 1.0E-05)
            1           2           3           4           5           6
    1   1.9999998   1.9999991   1.9936985   1.9879259   1.9697265   1.5271844
            7           8           9          10          11          12
    1   1.5175951   1.4729273   1.4628693   0.0270358   0.0098710   0.0046863
           13          14          15          16          17          18
    1   0.0037645   0.0032963   0.0026295   0.0024667   0.0022312   0.0021072
           19          20          21          22          23          24
    1   0.0013345   0.0012895   0.0012342   0.0010456   0.0010071   0.0006715
           25          26          27          28          29          30
    1   0.0005019   0.0004851   0.0003742   0.0002964   0.0001965   0.0001468
           31          32          33          34          35          36
    1   0.0001452   0.0001270   0.0001202   0.0000894   0.0000872   0.0000853
           37          38          39          40          41          42
    1   0.0000809   0.0000761   0.0000736   0.0000603   0.0000558   0.0000466
           43          44          45          46          47          48
    1   0.0000455   0.0000445   0.0000439   0.0000410   0.0000343   0.0000225
           49          50          51          52          53
    1   0.0000223   0.0000211   0.0000167   0.0000166   0.0000136
  
*** Unpaired Electrons
 Yamaguchi Nd:         3.25
 Head-Gordon Nu:       2.14
 Head-Gordon Nu_nl:    2.29
  
**************************************************
 RAS-CI total energy for state   7:   -153.655629868012
  Excitation energy (eV) =  8.465302494156
  State symmetry: A1    (C2v      )
  <S^2>      :  2.0000
  Dipole Moment:    0.0000 X    -0.0000 Y    -1.3211 Z
  Trans. Moment:   -0.0000 X    -0.0000 Y     0.0000 Z
  Strength   :  0.000000
  Natural transition orbitals ( 1 -> 7 ):
   e-/hole pair  1 alpha:  ampl =  0.014796 (  0.0%)   [9 : 10]
   e-/hole pair  2 alpha:  ampl =  0.013646 (  0.0%)   [8 : 11]
   e-/hole pair  1 beta :  ampl =  0.707079 ( 50.0%)   [9 : 10]
   e-/hole pair  2 beta :  ampl =  0.606495 ( 36.8%)   [8 : 11]
   Sum of square amplitudes: 0.87

 NATURAL OCCUPATION NUMBERS (higher than 1.0E-05)
            1           2           3           4           5           6
    1   1.9999998   1.9999991   1.9937028   1.9879458   1.9697403   1.5752162
            7           8           9          10          11          12
    1   1.5655053   1.4248349   1.4151286   0.0269788   0.0098955   0.0045225
           13          14          15          16          17          18
    1   0.0038508   0.0032857   0.0026283   0.0024804   0.0022069   0.0021184
           19          20          21          22          23          24
    1   0.0013688   0.0013040   0.0011801   0.0010674   0.0009838   0.0006664
           25          26          27          28          29          30
    1   0.0005231   0.0004622   0.0003738   0.0002959   0.0001951   0.0001517
           31          32          33          34          35          36
    1   0.0001418   0.0001231   0.0001158   0.0000903   0.0000878   0.0000844
           37          38          39          40          41          42
    1   0.0000775   0.0000763   0.0000747   0.0000599   0.0000553   0.0000473
           43          44          45          46          47          48
    1   0.0000461   0.0000433   0.0000427   0.0000422   0.0000339   0.0000229
           49          50          51          52          53
    1   0.0000222   0.0000209   0.0000171   0.0000162   0.0000135

  Amplitudes : 
  
 | HOLE  | ALPHA     | BETA      | PART  |    AMPLITUDE 
--------------------------------------------------
 |       | 111111100 | 111011000 |       |     7.0104454287671E-01
 |       | 111111100 | 110101100 |       |     5.9780574742649E-01
 |       | 111110110 | 111011000 |       |     1.0853444256588E-01
--------------------------------------------------
*** Contributions RASCI wfn    Active:  89.88
                                 Hole:   0.00
                                 Part:  10.12

      Mulliken population analysis 
 ---------------------------------------------------
   Atom    Charge (a.u.)   Spin (a.u.)  
 ---------------------------------------------------
   1  N   -0.532712        0.994125 
   2  F    0.532712        1.005875 
 ---------------------------------------------------
   Sum:   -0.000000        2.000000 
 ---------------------------------------------------
 
  
 NATURAL OCCUPATION NUMBERS (higher than 1.0E-05)
            1           2           3           4           5           6
    1   1.9999998   1.9999991   1.9937028   1.9879458   1.9697403   1.5752162
            7           8           9          10          11          12
    1   1.5655053   1.4248349   1.4151286   0.0269788   0.0098955   0.0045225
           13          14          15          16          17          18
    1   0.0038508   0.0032857   0.0026283   0.0024804   0.0022069   0.0021184
           19          20          21          22          23          24
    1   0.0013688   0.0013040   0.0011801   0.0010674   0.0009838   0.0006664
           25          26          27          28          29          30
    1   0.0005231   0.0004622   0.0003738   0.0002959   0.0001951   0.0001517
           31          32          33          34          35          36
    1   0.0001418   0.0001231   0.0001158   0.0000903   0.0000878   0.0000844
           37          38          39          40          41          42
    1   0.0000775   0.0000763   0.0000747   0.0000599   0.0000553   0.0000473
           43          44          45          46          47          48
    1   0.0000461   0.0000433   0.0000427   0.0000422   0.0000339   0.0000229
           49          50          51          52          53
    1   0.0000222   0.0000209   0.0000171   0.0000162   0.0000135
  
*** Unpaired Electrons
 Yamaguchi Nd:         3.23
 Head-Gordon Nu:       2.14
 Head-Gordon Nu_nl:    2.27
  
**************************************************
 RAS-CI total energy for state   8:   -153.651343702238
  Excitation energy (eV) =  8.581934998929
  State symmetry: A1    (C2v      )
  <S^2>      :  2.0000
  Dipole Moment:   -0.0000 X    -0.0000 Y    -1.3241 Z
  Trans. Moment:    0.0000 X    -0.0000 Y    -0.0000 Z
  Strength   :  0.000000
  Natural transition orbitals ( 1 -> 8 ):
   e-/hole pair  1 alpha:  ampl =  0.005434 (  0.0%)   [9 : 10]
   e-/hole pair  2 alpha:  ampl =  0.003154 (  0.0%)   [8 : 11]
   e-/hole pair  1 beta :  ampl =  0.706205 ( 49.9%)   [9 : 10]
   e-/hole pair  2 beta :  ampl =  0.606582 ( 36.8%)   [8 : 11]
   Sum of square amplitudes: 0.87

 NATURAL OCCUPATION NUMBERS (higher than 1.0E-05)
            1           2           3           4           5           6
    1   1.9999998   1.9999990   1.9936297   1.9877929   1.9696773   1.5751023
            7           8           9          10          11          12
    1   1.5649717   1.4246941   1.4165664   0.0270980   0.0098214   0.0046085
           13          14          15          16          17          18
    1   0.0033480   0.0032998   0.0024964   0.0024799   0.0022747   0.0021710
           19          20          21          22          23          24
    1   0.0013603   0.0012815   0.0011830   0.0010353   0.0009914   0.0006717
           25          26          27          28          29          30
    1   0.0004927   0.0004763   0.0003844   0.0002999   0.0001962   0.0001657
           31          32          33          34          35          36
    1   0.0001607   0.0001273   0.0001214   0.0000926   0.0000925   0.0000901
           37          38          39          40          41          42
    1   0.0000892   0.0000809   0.0000787   0.0000604   0.0000476   0.0000458
           43          44          45          46          47          48
    1   0.0000454   0.0000437   0.0000420   0.0000348   0.0000348   0.0000235
           49          50          51          52          53
    1   0.0000228   0.0000213   0.0000167   0.0000159   0.0000136

  Amplitudes : 
  
 | HOLE  | ALPHA     | BETA      | PART  |    AMPLITUDE 
--------------------------------------------------
 |       | 111111100 | 111011000 |       |    -6.0182856793278E-01
 |       | 111111100 | 110101100 |       |     6.9664968644899E-01
 |       | 111110110 | 110101100 |       |     1.0877935970652E-01
--------------------------------------------------
*** Contributions RASCI wfn    Active:  89.78
                                 Hole:   0.00
                                 Part:  10.22

      Mulliken population analysis 
 ---------------------------------------------------
   Atom    Charge (a.u.)   Spin (a.u.)  
 ---------------------------------------------------
   1  N   -0.533393        0.993785 
   2  F    0.533393        1.006215 
 ---------------------------------------------------
   Sum:   -0.000000        2.000000 
 ---------------------------------------------------
 
  
 NATURAL OCCUPATION NUMBERS (higher than 1.0E-05)
            1           2           3           4           5           6
    1   1.9999998   1.9999990   1.9936297   1.9877929   1.9696773   1.5751023
            7           8           9          10          11          12
    1   1.5649717   1.4246941   1.4165664   0.0270980   0.0098214   0.0046085
           13          14          15          16          17          18
    1   0.0033480   0.0032998   0.0024964   0.0024799   0.0022747   0.0021710
           19          20          21          22          23          24
    1   0.0013603   0.0012815   0.0011830   0.0010353   0.0009914   0.0006717
           25          26          27          28          29          30
    1   0.0004927   0.0004763   0.0003844   0.0002999   0.0001962   0.0001657
           31          32          33          34          35          36
    1   0.0001607   0.0001273   0.0001214   0.0000926   0.0000925   0.0000901
           37          38          39          40          41          42
    1   0.0000892   0.0000809   0.0000787   0.0000604   0.0000476   0.0000458
           43          44          45          46          47          48
    1   0.0000454   0.0000437   0.0000420   0.0000348   0.0000348   0.0000235
           49          50          51          52          53
    1   0.0000228   0.0000213   0.0000167   0.0000159   0.0000136
  
*** Unpaired Electrons
 Yamaguchi Nd:         3.23
 Head-Gordon Nu:       2.14
 Head-Gordon Nu_nl:    2.27
  
**************************************************
 RAS-CI total energy for state   9:   -153.625980931549
  Excitation energy (eV) =  9.272091103430
  State symmetry: A2    (C2v      )
  <S^2>      :  2.0000
  Dipole Moment:    0.0000 X    -0.0000 Y    -1.1412 Z
  Trans. Moment:    0.0000 X     0.0000 Y     0.4827 Z
  Strength   :  0.052935
  Natural transition orbitals ( 1 -> 9 ):
   e-/hole pair  1 alpha:  ampl =  0.215245 (  4.6%)   [9 : 10]
   e-/hole pair  2 alpha:  ampl =  0.074214 (  0.6%)   [8 : 11]
   e-/hole pair  1 beta :  ampl =  0.641712 ( 41.2%)   [9 : 10]
   e-/hole pair  2 beta :  ampl =  0.603921 ( 36.5%)   [8 : 11]
   Sum of square amplitudes: 0.87

 NATURAL OCCUPATION NUMBERS (higher than 1.0E-05)
            1           2           3           4           5           6
    1   1.9999998   1.9999988   1.9927524   1.9761246   1.9069386   1.6195503
            7           8           9          10          11          12
    1   1.5944390   1.3888004   1.3644749   0.0980615   0.0109484   0.0091945
           13          14          15          16          17          18
    1   0.0090217   0.0054356   0.0039445   0.0039011   0.0026000   0.0025627
           19          20          21          22          23          24
    1   0.0015241   0.0014555   0.0013281   0.0010032   0.0010029   0.0007924
           25          26          27          28          29          30
    1   0.0006675   0.0006271   0.0005780   0.0003911   0.0002971   0.0001833
           31          32          33          34          35          36
    1   0.0001825   0.0001046   0.0001017   0.0000946   0.0000901   0.0000891
           37          38          39          40          41          42
    1   0.0000664   0.0000645   0.0000537   0.0000522   0.0000517   0.0000509
           43          44          45          46          47          48
    1   0.0000492   0.0000488   0.0000450   0.0000371   0.0000366   0.0000351
           49          50          51          52          53          54
    1   0.0000276   0.0000243   0.0000239   0.0000150   0.0000149   0.0000106

  Amplitudes : 
  
 | HOLE  | ALPHA     | BETA      | PART  |    AMPLITUDE 
--------------------------------------------------
 |       | 111111100 | 111101000 |       |     1.3836866891154E-01
 |       | 111111100 | 111100010 |       |     1.0075654837142E-01
 |       | 111111100 | 111001100 |       |     6.2582719709496E-01
 |       | 111111100 | 110111000 |       |     6.1808842442554E-01
 |       | 111110110 | 111101000 |       |    -1.3828500992806E-01
 |       | 111110110 | 111001100 |       |     1.0324400399687E-01
--------------------------------------------------
*** Contributions RASCI wfn    Active:  88.69
                                 Hole:   0.00
                                 Part:  11.31

      Mulliken population analysis 
 ---------------------------------------------------
   Atom    Charge (a.u.)   Spin (a.u.)  
 ---------------------------------------------------
   1  N   -0.443996        1.216492 
   2  F    0.443996        0.783508 
 ---------------------------------------------------
   Sum:   -0.000000        2.000000 
 ---------------------------------------------------
 
  
 NATURAL OCCUPATION NUMBERS (higher than 1.0E-05)
            1           2           3           4           5           6
    1   1.9999998   1.9999988   1.9927524   1.9761246   1.9069386   1.6195503
            7           8           9          10          11          12
    1   1.5944390   1.3888004   1.3644749   0.0980615   0.0109484   0.0091945
           13          14          15          16          17          18
    1   0.0090217   0.0054356   0.0039445   0.0039011   0.0026000   0.0025627
           19          20          21          22          23          24
    1   0.0015241   0.0014555   0.0013281   0.0010032   0.0010029   0.0007924
           25          26          27          28          29          30
    1   0.0006675   0.0006271   0.0005780   0.0003911   0.0002971   0.0001833
           31          32          33          34          35          36
    1   0.0001825   0.0001046   0.0001017   0.0000946   0.0000901   0.0000891
           37          38          39          40          41          42
    1   0.0000664   0.0000645   0.0000537   0.0000522   0.0000517   0.0000509
           43          44          45          46          47          48
    1   0.0000492   0.0000488   0.0000450   0.0000371   0.0000366   0.0000351
           49          50          51          52          53          54
    1   0.0000276   0.0000243   0.0000239   0.0000150   0.0000149   0.0000106
  
*** Unpaired Electrons
 Yamaguchi Nd:         3.52
 Head-Gordon Nu:       2.31
 Head-Gordon Nu_nl:    2.34
  
**************************************************
 RAS-CI total energy for state  10:   -153.518798666789
  Excitation energy (eV) = 12.188668918374
  State symmetry: B1    (C2v      )
  <S^2>      :  2.0000
  Dipole Moment:   -0.0000 X    -0.0000 Y    -0.6068 Z
  Trans. Moment:   -0.0000 X     0.3491 Y    -0.0000 Z
  Strength   :  0.036386
  Natural transition orbitals ( 1 -> 10 ):
   e-/hole pair  1 alpha:  ampl =  0.939770 ( 88.3%)   [9 : 10]
   e-/hole pair  2 alpha:  ampl =  0.034756 (  0.1%)   [8 : 11]
   e-/hole pair  1 beta :  ampl =  0.100164 (  1.0%)   [9 : 10]
   e-/hole pair  2 beta :  ampl =  0.036916 (  0.1%)   [8 : 11]
   Sum of square amplitudes: 0.90

 NATURAL OCCUPATION NUMBERS (higher than 1.0E-05)
            1           2           3           4           5           6
    1   1.9999997   1.9999974   1.9942291   1.9759225   1.9609752   1.9373880
            7           8           9          10          11          12
    1   1.9197971   1.0184167   0.9722368   0.1321235   0.0411406   0.0104475
           13          14          15          16          17          18
    1   0.0074424   0.0074209   0.0033416   0.0032331   0.0028139   0.0024025
           19          20          21          22          23          24
    1   0.0018293   0.0013422   0.0011840   0.0011052   0.0009051   0.0006999
           25          26          27          28          29          30
    1   0.0006771   0.0005908   0.0004663   0.0004396   0.0003039   0.0002033
           31          32          33          34          35          36
    1   0.0000991   0.0000787   0.0000677   0.0000619   0.0000545   0.0000532
           37          38          39          40          41          42
    1   0.0000523   0.0000411   0.0000362   0.0000358   0.0000335   0.0000309
           43          44          45          46          47          48
    1   0.0000308   0.0000277   0.0000260   0.0000247   0.0000215   0.0000214
           49          50          51          52          53          54
    1   0.0000202   0.0000189   0.0000185   0.0000184   0.0000149   0.0000140

  Amplitudes : 
  
 | HOLE  | ALPHA     | BETA      | PART  |    AMPLITUDE 
--------------------------------------------------
 |       | 111101110 | 111101000 |       |    -1.3448211547116E-01
 |       | 111101101 | 111101000 |       |     8.8014068842077E-01
 |       | 111101101 | 111001100 |       |    -1.3857087113125E-01
 |       | 111101101 | 110111000 |       |    -1.0185374636884E-01
 |       | 110111101 | 111101000 |       |    -1.7838866428792E-01
 |       | 111101100 | 111101000 |  14   |     1.0220913283316E-01
--------------------------------------------------
*** Contributions RASCI wfn    Active:  91.17
                                 Hole:   0.00
                                 Part:   8.83

      Mulliken population analysis 
 ---------------------------------------------------
   Atom    Charge (a.u.)   Spin (a.u.)  
 ---------------------------------------------------
   1  N   -0.514223        2.167080 
   2  F    0.514223       -0.167080 
 ---------------------------------------------------
   Sum:   -0.000000        2.000000 
 ---------------------------------------------------
 
  
 NATURAL OCCUPATION NUMBERS (higher than 1.0E-05)
            1           2           3           4           5           6
    1   1.9999997   1.9999974   1.9942291   1.9759225   1.9609752   1.9373880
            7           8           9          10          11          12
    1   1.9197971   1.0184167   0.9722368   0.1321235   0.0411406   0.0104475
           13          14          15          16          17          18
    1   0.0074424   0.0074209   0.0033416   0.0032331   0.0028139   0.0024025
           19          20          21          22          23          24
    1   0.0018293   0.0013422   0.0011840   0.0011052   0.0009051   0.0006999
           25          26          27          28          29          30
    1   0.0006771   0.0005908   0.0004663   0.0004396   0.0003039   0.0002033
           31          32          33          34          35          36
    1   0.0000991   0.0000787   0.0000677   0.0000619   0.0000545   0.0000532
           37          38          39          40          41          42
    1   0.0000523   0.0000411   0.0000362   0.0000358   0.0000335   0.0000309
           43          44          45          46          47          48
    1   0.0000308   0.0000277   0.0000260   0.0000247   0.0000215   0.0000214
           49          50          51          52          53          54
    1   0.0000202   0.0000189   0.0000185   0.0000184   0.0000149   0.0000140
  
*** Unpaired Electrons
 Yamaguchi Nd:         2.83
 Head-Gordon Nu:       2.39
 Head-Gordon Nu_nl:    2.11
  
**************************************************
 RAS-CI total energy for state  11:   -153.518099357898
  Excitation energy (eV) = 12.207698081490
  State symmetry: B2    (C2v      )
  <S^2>      :  2.0000
  Dipole Moment:   -0.0000 X    -0.0000 Y    -0.6187 Z
  Trans. Moment:    0.3325 X     0.0000 Y     0.0000 Z
  Strength   :  0.033059
  Natural transition orbitals ( 1 -> 11 ):
   e-/hole pair  1 alpha:  ampl =  0.938969 ( 88.2%)   [9 : 10]
   e-/hole pair  2 alpha:  ampl =  0.034967 (  0.1%)   [8 : 11]
   e-/hole pair  1 beta :  ampl =  0.102509 (  1.1%)   [9 : 10]
   e-/hole pair  2 beta :  ampl =  0.036568 (  0.1%)   [8 : 11]
   Sum of square amplitudes: 0.90

 NATURAL OCCUPATION NUMBERS (higher than 1.0E-05)
            1           2           3           4           5           6
    1   1.9999998   1.9999972   1.9942658   1.9757591   1.9604324   1.9369046
            7           8           9          10          11          12
    1   1.9204733   1.0179622   0.9717567   0.1332432   0.0412242   0.0105184
           13          14          15          16          17          18
    1   0.0081170   0.0070752   0.0033241   0.0032343   0.0027305   0.0024584
           19          20          21          22          23          24
    1   0.0017513   0.0013435   0.0011547   0.0011395   0.0008914   0.0006870
           25          26          27          28          29          30
    1   0.0006829   0.0005787   0.0004621   0.0004159   0.0003076   0.0001913
           31          32          33          34          35          36
    1   0.0000992   0.0000772   0.0000711   0.0000574   0.0000544   0.0000536
           37          38          39          40          41          42
    1   0.0000514   0.0000410   0.0000369   0.0000339   0.0000315   0.0000314
           43          44          45          46          47          48
    1   0.0000305   0.0000278   0.0000261   0.0000241   0.0000217   0.0000217
           49          50          51          52          53          54
    1   0.0000208   0.0000206   0.0000199   0.0000175   0.0000140   0.0000113

  Amplitudes : 
  
 | HOLE  | ALPHA     | BETA      | PART  |    AMPLITUDE 
--------------------------------------------------
 |       | 111111010 | 111101000 |       |    -1.2384340566932E-01
 |       | 111111001 | 111101000 |       |     8.4347568895975E-01
 |       | 111111001 | 111001100 |       |    -2.0769012893154E-01
 |       | 111011101 | 111101000 |       |     2.8080615427713E-01
--------------------------------------------------
*** Contributions RASCI wfn    Active:  90.79
                                 Hole:   0.00
                                 Part:   9.21

      Mulliken population analysis 
 ---------------------------------------------------
   Atom    Charge (a.u.)   Spin (a.u.)  
 ---------------------------------------------------
   1  N   -0.512723        2.162220 
   2  F    0.512723       -0.162220 
 ---------------------------------------------------
   Sum:   -0.000000        2.000000 
 ---------------------------------------------------
 
  
 NATURAL OCCUPATION NUMBERS (higher than 1.0E-05)
            1           2           3           4           5           6
    1   1.9999998   1.9999972   1.9942658   1.9757591   1.9604324   1.9369046
            7           8           9          10          11          12
    1   1.9204733   1.0179622   0.9717567   0.1332432   0.0412242   0.0105184
           13          14          15          16          17          18
    1   0.0081170   0.0070752   0.0033241   0.0032343   0.0027305   0.0024584
           19          20          21          22          23          24
    1   0.0017513   0.0013435   0.0011547   0.0011395   0.0008914   0.0006870
           25          26          27          28          29          30
    1   0.0006829   0.0005787   0.0004621   0.0004159   0.0003076   0.0001913
           31          32          33          34          35          36
    1   0.0000992   0.0000772   0.0000711   0.0000574   0.0000544   0.0000536
           37          38          39          40          41          42
    1   0.0000514   0.0000410   0.0000369   0.0000339   0.0000315   0.0000314
           43          44          45          46          47          48
    1   0.0000305   0.0000278   0.0000261   0.0000241   0.0000217   0.0000217
           49          50          51          52          53          54
    1   0.0000208   0.0000206   0.0000199   0.0000175   0.0000140   0.0000113
  
*** Unpaired Electrons
 Yamaguchi Nd:         2.84
 Head-Gordon Nu:       2.39
 Head-Gordon Nu_nl:    2.11
  
**************************************************
 RAS-CI total energy for state  12:   -153.461797304750
  Excitation energy (eV) = 13.739754896263
  State symmetry: B2    (C2v      )
  <S^2>      :  2.0000
  Dipole Moment:    0.0000 X    -0.0000 Y    -1.0938 Z
  Trans. Moment:    0.0627 X     0.0000 Y     0.0000 Z
  Strength   :  0.001324
  Natural transition orbitals ( 1 -> 12 ):
   e-/hole pair  1 alpha:  ampl =  0.645043 ( 41.6%)   [9 : 10]
   e-/hole pair  2 alpha:  ampl =  0.036664 (  0.1%)   [8 : 11]
   e-/hole pair  1 beta :  ampl =  0.149343 (  2.2%)   [9 : 10]
   e-/hole pair  2 beta :  ampl =  0.129981 (  1.7%)   [8 : 11]
   Sum of square amplitudes: 0.46

 NATURAL OCCUPATION NUMBERS (higher than 1.0E-05)
            1           2           3           4           5           6
    1   1.9999999   1.9999987   1.9932409   1.9681713   1.9554785   1.7850632
            7           8           9          10          11          12
    1   1.2885385   1.1749029   0.9726345   0.8101728   0.0133015   0.0104845
           13          14          15          16          17          18
    1   0.0038070   0.0031833   0.0030842   0.0029422   0.0022116   0.0020587
           19          20          21          22          23          24
    1   0.0017026   0.0012458   0.0012234   0.0011607   0.0009486   0.0008125
           25          26          27          28          29          30
    1   0.0006593   0.0005429   0.0004012   0.0003975   0.0002805   0.0001001
           31          32          33          34          35          36
    1   0.0000982   0.0000954   0.0000878   0.0000848   0.0000843   0.0000813
           37          38          39          40          41          42
    1   0.0000771   0.0000753   0.0000678   0.0000615   0.0000570   0.0000497
           43          44          45          46          47          48
    1   0.0000421   0.0000406   0.0000343   0.0000322   0.0000259   0.0000251
           49          50          51          52          53          54
    1   0.0000210   0.0000185   0.0000176   0.0000171   0.0000159   0.0000153

  Amplitudes : 
  
 | HOLE  | ALPHA     | BETA      | PART  |    AMPLITUDE 
--------------------------------------------------
 |       | 111111100 | 111001010 |       |     1.2125546887862E-01
 |       | 111111100 | 101101100 |       |     1.4846563976154E-01
 |       | 111111010 | 111101000 |       |    -1.8541558882535E-01
 |       | 111111010 | 110111000 |       |     3.7259381443332E-01
 |       | 111101110 | 111011000 |       |     4.6731687820370E-01
 |       | 111101110 | 110101100 |       |    -1.1945355879475E-01
 |       | 111011110 | 111101000 |       |     5.7385059259588E-01
 |       | 111011100 | 111101000 |  14   |     2.1277608806660E-01
 |       | 111101100 | 111011000 |  14   |     1.6931074601402E-01
 |       | 111111000 | 110111000 |  14   |     1.3747929590534E-01
--------------------------------------------------
*** Contributions RASCI wfn    Active:  81.89
                                 Hole:   0.00
                                 Part:  18.11

      Mulliken population analysis 
 ---------------------------------------------------
   Atom    Charge (a.u.)   Spin (a.u.)  
 ---------------------------------------------------
   1  N   -0.581089        1.802871 
   2  F    0.581089        0.197129 
 ---------------------------------------------------
   Sum:   -0.000000        2.000000 
 ---------------------------------------------------
 
  
 NATURAL OCCUPATION NUMBERS (higher than 1.0E-05)
            1           2           3           4           5           6
    1   1.9999999   1.9999987   1.9932409   1.9681713   1.9554785   1.7850632
            7           8           9          10          11          12
    1   1.2885385   1.1749029   0.9726345   0.8101728   0.0133015   0.0104845
           13          14          15          16          17          18
    1   0.0038070   0.0031833   0.0030842   0.0029422   0.0022116   0.0020587
           19          20          21          22          23          24
    1   0.0017026   0.0012458   0.0012234   0.0011607   0.0009486   0.0008125
           25          26          27          28          29          30
    1   0.0006593   0.0005429   0.0004012   0.0003975   0.0002805   0.0001001
           31          32          33          34          35          36
    1   0.0000982   0.0000954   0.0000878   0.0000848   0.0000843   0.0000813
           37          38          39          40          41          42
    1   0.0000771   0.0000753   0.0000678   0.0000615   0.0000570   0.0000497
           43          44          45          46          47          48
    1   0.0000421   0.0000406   0.0000343   0.0000322   0.0000259   0.0000251
           49          50          51          52          53          54
    1   0.0000210   0.0000185   0.0000176   0.0000171   0.0000159   0.0000153
  
*** Unpaired Electrons
 Yamaguchi Nd:         4.50
 Head-Gordon Nu:       3.67
 Head-Gordon Nu_nl:    3.87
  
**************************************************
 RAS-CI total energy for state  13:   -153.460974465283
  Excitation energy (eV) = 13.762145497361
  State symmetry: B1    (C2v      )
  <S^2>      :  2.0000
  Dipole Moment:    0.0000 X    -0.0000 Y    -1.0887 Z
  Trans. Moment:   -0.0000 X     0.0630 Y    -0.0000 Z
  Strength   :  0.001336
  Natural transition orbitals ( 1 -> 13 ):
   e-/hole pair  1 alpha:  ampl =  0.647907 ( 42.0%)   [9 : 10]
   e-/hole pair  2 alpha:  ampl =  0.035406 (  0.1%)   [8 : 11]
   e-/hole pair  1 beta :  ampl =  0.154997 (  2.4%)   [9 : 10]
   e-/hole pair  2 beta :  ampl =  0.137907 (  1.9%)   [8 : 11]
   Sum of square amplitudes: 0.46

 NATURAL OCCUPATION NUMBERS (higher than 1.0E-05)
            1           2           3           4           5           6
    1   1.9999999   1.9999988   1.9931980   1.9666959   1.9548690   1.8097977
            7           8           9          10          11          12
    1   1.2704789   1.1507801   0.9713905   0.8302700   0.0135373   0.0104828
           13          14          15          16          17          18
    1   0.0036690   0.0034855   0.0032718   0.0030703   0.0020707   0.0019852
           19          20          21          22          23          24
    1   0.0018511   0.0013004   0.0012451   0.0011603   0.0009449   0.0008173
           25          26          27          28          29          30
    1   0.0006642   0.0005455   0.0003942   0.0003792   0.0002809   0.0001057
           31          32          33          34          35          36
    1   0.0001004   0.0000954   0.0000911   0.0000884   0.0000838   0.0000836
           37          38          39          40          41          42
    1   0.0000802   0.0000768   0.0000673   0.0000595   0.0000579   0.0000501
           43          44          45          46          47          48
    1   0.0000422   0.0000402   0.0000328   0.0000308   0.0000257   0.0000244
           49          50          51          52          53          54
    1   0.0000208   0.0000198   0.0000172   0.0000167   0.0000156   0.0000146

  Amplitudes : 
  
 | HOLE  | ALPHA     | BETA      | PART  |    AMPLITUDE 
--------------------------------------------------
 |       | 111111100 | 110101010 |       |    -1.2981792726042E-01
 |       | 111111100 | 101111000 |       |    -1.5330403073529E-01
 |       | 111111010 | 111011000 |       |    -1.1790420581533E-01
 |       | 111111010 | 110101100 |       |     4.8424349876356E-01
 |       | 111101110 | 111001100 |       |     3.6528575587129E-01
 |       | 110111110 | 111101000 |       |    -5.8853773464209E-01
[...]
    22   -3.588810089784e-15
    23    9.892152895925e-01
    24    1.871065495089e-13
    25   -4.201532409099e-04
    26   -3.671886756461e-16
    27   -3.550408164918e-16
    28    6.943643963187e-03
    29    1.237243392152e-15
    30    1.815367733827e-17
    31    2.851649726720e-17
    32   -3.684535196327e-04
    33   -8.431647461312e-04
    34   -1.021285469457e-03
    35    1.461541009561e-02
    36    1.508889290423e-02
    37    2.087072754866e-16
    38    8.530076678814e-16
    39   -9.899327284689e-03
    40    9.761859040126e-16
    41    2.246726980782e-16
    42   -2.100797838941e-02
    43   -1.403449952417e-15
    44    1.712057335727e-15
    45    1.227637869879e-02
    46   -4.666960375178e-05
    47    3.581437740225e-17
    48    4.389127396621e-17
    49   -4.344648965942e-04
    50   -2.133719475787e-16
    51   -5.033933745456e-05
    52   -1.070736987102e-16
    53    8.258473770366e-16
    54    1.058162008716e-01
    55    1.942177299070e-14
    56   -2.046755694680e-05
    57   -1.343799244823e-16
    58   -2.339969335774e-17
    59   -4.831162943573e-03
    60   -9.036413671052e-16
    61    4.017592669363e-17
    62    5.219292951866e-17
Sym=X
Ene= 1.181459
Spin=Alpha
Occup=0
     1   -5.551513539904e-16
     2   -1.598440254859e-15
     3    8.494461739172e-15
     4   -1.217718180906e-14
     5    8.900008362803e-15
     6   -8.589307210094e-16
     7   -5.810988209946e-17
     8    4.910602399415e-16
     9    1.905252012192e-15
    10   -1.211875604572e-15
    11   -1.450870295036e-15
    12   -3.299130832860e-15
    13    3.785672787741e-15
    14    3.704288443661e-15
    15   -1.218661563526e-16
    16   -3.553782229382e-16
    17   -2.070400252125e-16
    18    3.568940279377e-15
    19   -1.862094603735e-02
    20    5.005843495204e-15
    21   -5.941058987520e-15
    22    8.215712648843e-15
    23   -1.870350521785e-13
    24    9.896464922976e-01
    25    6.103549036768e-17
    26    1.977907424818e-16
    27   -1.524530451349e-16
    28   -1.354524276208e-15
    29    6.967164317129e-03
    30   -7.551846671708e-16
    31   -9.673912215155e-17
    32    4.159932944101e-17
    33    1.311938755469e-16
    34   -1.948603207902e-16
    35   -7.589119014217e-16
    36   -4.095688255856e-15
    37    3.848622557740e-16
    38   -1.553146466211e-16
    39    1.990811361167e-15
    40   -4.155274353134e-16
    41   -3.026662214064e-17
    42    4.283820424686e-15
    43    4.123063345591e-15
    44   -5.003011456940e-15
    45   -3.636536084181e-15
    46    1.242052191290e-16
    47    1.229601408240e-16
    48   -1.537194876888e-16
    49    6.703966259517e-17
    50   -4.425702669381e-04
    51    3.547575683953e-16
    52    8.854103087877e-16
    53   -1.013825064840e-15
    54   -2.035372189374e-14
    55    1.060598751114e-01
    56    2.890133186525e-17
    57    2.966391894735e-17
    58   -6.231977452988e-17
    59    8.766811980342e-16
    60   -4.835514339083e-03
    61    3.829863140938e-17
    62    5.314608457193e-17
Sym=X
Ene= 1.267059
Spin=Alpha
Occup=0
     1   -3.582623881812e-17
     2    3.118141850967e-17
     3   -6.117609992456e-16
     4    2.476359983626e-15
     5    4.457009444847e-15
     6   -3.682517850836e-02
     7    9.400167232917e-09
     8    1.368416435665e-16
     9   -2.456509202842e-02
    10   -5.584374501358e-08
    11    1.225576034630e-15
    12    2.868815793247e-01
    13   -2.233298028321e-07
    14    3.387089812256e-15
    15    4.655930383851e-17
    16   -8.124683928681e-03
    17    8.137417547605e-09
    18    1.091685956752e-16
    19   -5.452454695285e-16
    20    7.098794947500e-16
    21    1.037021205825e+00
    22   -1.292936037787e-06
    23    7.223857285434e-17
    24    6.459497881097e-15
    25    6.666224304451e-17
    26    2.176858249705e-03
    27   -3.276471892658e-09
    28    1.568542019762e-16
    29    3.472634204059e-16
    30   -2.911028305424e-04
    31    9.051300189345e-11
    32   -5.073382784075e-17
    33   -1.591351437384e-16
    34   -1.827217672761e-17
    35    4.348802977854e-15
    36   -1.038442272794e-14
    37   -8.806302367924e-02
    38    9.080978145940e-08
    39    1.665715651035e-16
    40   -8.246101699128e-02
    41    9.073041024985e-08
    42   -2.927807716716e-16
    43   -4.083033902748e-01
    44    4.519000538419e-07
    45    4.352836042225e-15
    46    9.639225105661e-17
    47   -1.680938712664e-02
    48    2.102075858230e-08
    49    8.180505697885e-17
    50   -5.428749877913e-17
    51   -2.841199709974e-16
    52   -1.328155094425e-01
    53    1.755337457089e-07
    54    1.452526395238e-16
    55    1.401690571805e-15
    56    6.587387994583e-17
    57   -6.890764556474e-03
    58    7.814733536274e-09
    59    3.409095532898e-17
    60   -9.890033808695e-17
    61    3.765986069326e-05
    62   -6.884965536150e-11
Sym=X
Ene= 1.301698
Spin=Alpha
Occup=0
     1   -2.862390032715e-16
     2   -6.033586948544e-16
     3    1.182726508859e-15
     4    2.063032315091e-15
     5    4.761430484939e-16
     6    8.031301908201e-08
     7   -4.825861887128e-02
     8   -6.301437442756e-16
     9   -3.610144000561e-08
    10   -3.788514197525e-02
    11    1.847627071437e-15
    12    5.140130024554e-07
    13    2.835484829513e-01
    14    9.055812999019e-16
    15    1.197438479020e-16
    16   -1.714194615591e-08
    17   -7.626324381440e-03
    18    1.151895304029e-16
    19    1.381329263936e-16
    20    5.742853711443e-16
    21    1.302721983833e-06
    22    1.033630687396e+00
    23    3.890939717263e-15
    24   -7.765134588346e-15
    25    5.525204612439e-16
    26    1.070879748372e-09
    27    1.795237686719e-03
    28    3.264884246842e-16
    29   -2.334092031875e-16
    30    4.366414668006e-09
    31   -3.705426182365e-04
    32    4.216081412987e-17
    33    1.069053053017e-16
    34    5.351998484874e-16
    35   -2.400984214732e-15
    36   -7.686515881313e-16
    37   -1.295105493756e-07
    38   -8.270355582740e-02
    39   -4.264326311458e-16
    40   -1.173178856367e-07
    41   -7.479611205628e-02
    42    2.038248429913e-15
    43   -5.620753390530e-07
    44   -4.037513670934e-01
    45    1.288450570806e-15
    46   -1.641679095793e-16
    47   -2.148049314458e-08
    48   -1.664779335056e-02
    49   -3.253289525758e-17
    50   -2.825456868375e-17
    51   -1.143781440757e-15
    52   -1.604246489329e-07
    53   -1.380273077165e-01
    54    8.166460649024e-16
    55   -3.277006988297e-15
    56    1.262806957311e-16
    57   -8.778942029997e-09
    58   -6.645631199460e-03
    59   -6.725140207205e-17
    60    3.416909738299e-16
    61    7.902313062149e-12
    62    4.380596720167e-05
Sym=X
Ene= 1.639216
Spin=Alpha
Occup=0
     1    2.672955728184e-02
     2    7.974868939290e-02
     3   -3.069029873455e-01
     4    3.796656552102e-01
     5   -1.405438509612e+00
     6    1.927119937874e-16
     7    7.343306296157e-16
     8   -3.053723091202e-01
     9    6.821898719319e-16
    10   -8.835664501776e-16
    11   -1.241774174535e-01
    12    7.778101471182e-17
    13   -4.808734318426e-16
    14   -1.092699264123e+00
    15    2.885345085623e-02
    16   -1.995955506888e-16
    17   -2.052138191532e-16
    18   -3.472913538951e-04
    19    1.728910650042e-16
    20   -1.453580747312e+00
    21    1.348230673365e-15
    22   -3.760597196324e-16
    23   -2.210287480255e-02
    24   -1.277152227219e-16
    25   -2.749734980971e-02
    26   -2.014643334444e-16
    27    1.900320646269e-16
    28   -1.650816804098e-03
    29   -1.709502127435e-16
    30   -1.505193953803e-16
    31   -2.231160290430e-16
    32   -9.373476056211e-03
    33   -2.022623888896e-02
    34   -4.521496833063e-02
    35    2.898834164829e-01
    36    1.672629102287e+00
    37    2.761883789528e-16
    38    2.563990862754e-16
    39   -1.584842460683e-01
    40    4.176018335349e-16
    41   -9.359853178741e-16
    42   -6.693213126525e-01
    43   -1.654292694063e-15
    44    1.184446693395e-15
    45   -1.761639781939e-01
    46   -1.937291848857e-02
    47    1.703912088925e-16
    48   -1.717831493645e-16
    49    2.024045928978e-04
    50    1.014921120412e-16
    51    4.443301947887e-02
    52    1.531784523671e-15
    53   -1.079037273548e-16
    54   -7.350530868511e-03
    55    3.208582307693e-16
    56   -5.977482044646e-03
    57    2.029583317231e-16
    58   -2.285868046508e-17
    59    2.634141486574e-04
    60    1.867811268698e-16
    61   -7.152983498690e-17
    62    8.601458402719e-17
Sym=X
Ene= 2.103311
Spin=Alpha
Occup=0
     1    1.152805330243e-01
     2    4.033945142749e-01
     3   -2.774729869292e+00
     4    3.861278801907e+00
     5   -1.229173740868e+00
     6   -6.759805420510e-15
     7    3.016363617400e-15
     8    4.623180692576e-01
     9    6.967720373869e-15
    10   -2.461857421245e-15
    11   -3.050860323088e-01
    12   -3.804373663358e-15
    13    2.699704328933e-15
    14    4.011484908802e-01
    15   -2.175165265001e-02
    16    2.996435843871e-16
    17   -9.673789652019e-16
    18   -7.388902682027e-03
    19    2.883601765060e-17
    20    2.555550127530e-01
    21   -3.106365138148e-15
    22    2.261115866444e-15
    23   -1.594018737808e-03
    24    2.005490239092e-15
    25    1.712430753475e-02
    26    8.243670331131e-16
    27   -6.316720096371e-16
    28   -1.474743125216e-03
    29   -5.328053912216e-16
    30    1.092563131138e-16
    31   -5.135700599960e-17
    32    4.179301334524e-03
    33    9.313845492732e-03
    34    2.087612639993e-02
    35   -1.375347915780e-01
    36   -4.088719734161e-01
    37   -2.170605421320e-16
    38   -4.273062172691e-16
    39    1.732875347624e-02
    40   -8.614250875788e-16
    41   -1.233166994415e-16
    42    2.379164600960e-01
    43    2.664333585327e-15
    44   -1.282194808906e-15
    45    2.453370353760e-01
    46    9.309185803317e-03
    47    4.071111118578e-18
    48   -1.320669718797e-16
    49    1.687369067015e-04
    50    1.079167022205e-16
    51   -9.310551911677e-02
    52   -3.937886249229e-15
    53    7.734509173949e-16
    54   -1.534850475284e-02
    55   -6.787073077304e-15
    56    1.974561453143e-02
    57   -3.749077066736e-17
    58    1.372822274336e-17
    59    2.336184934839e-04
    60    8.225472139056e-17
    61   -1.538359268056e-16
    62   -3.114654186172e-16
Sym=X
Ene= 2.221028
Spin=Alpha
Occup=0
     1   -1.672206552474e-03
     2   -6.295782659811e-03
     3    4.791028422001e-02
     4   -7.672791631726e-02
     5    1.173996750746e-02
     6    4.779560399177e-14
     7   -1.749872102595e-14
     8    1.371202256468e-03
     9   -5.969871391219e-14
    10    2.148506201984e-14
    11   -1.113120944701e-02
    12    3.207159212693e-14
    13   -1.147169823589e-14
    14   -7.248834120856e-03
    15    6.170478340505e-04
    16   -9.342516068912e-16
    17    1.001665583036e-15
    18    1.359522814218e-02
    19   -2.896640365433e-15
    20   -3.355723703743e-03
    21    1.206972561452e-14
    22   -3.276407266043e-15
    23    2.303316565700e-01
    24   -4.375614133523e-14
    25    5.391547098085e-04
    26   -1.465471071086e-15
    27    5.720411845640e-16
    28   -8.303694563577e-02
    29    1.617781710495e-14
    30    5.756457268873e-16
    31   -3.474648184032e-16
    32   -1.366278215606e-04
    33   -5.536287936277e-04
    34    4.012781798100e-03
    35   -1.245560198109e-02
    36    3.361862265592e-02
    37    3.471548293433e-15
    38   -1.000980561624e-15
    39   -2.056072412428e-03
    40    6.110288729873e-16
    41   -8.886974590849e-16
    42   -4.274868100290e-03
    43   -9.898462752644e-15
    44    3.710721744768e-15
    45   -1.847646101496e-02
    46   -2.862862925653e-04
    47    2.580691532192e-16
    48    2.402601251570e-17
    49    7.452883303798e-03
    50   -1.284343847711e-15
    51    6.268628059367e-03
    52    1.482601343849e-14
    53   -4.430469971833e-15
    54   -9.927888352792e-01
    55    1.864951981854e-13
    56   -8.322089702075e-04
    57    5.263196326960e-17
    58    3.663985204021e-17
    59    6.144807741572e-03
    60   -7.835023332527e-16
    61   -5.139791138000e-17
    62    7.121000417463e-17
Sym=X
Ene= 2.221031
Spin=Alpha
Occup=0
     1   -1.135461628832e-15
     2   -3.893595002216e-15
     3    2.743556409360e-14
     4   -3.929652866932e-14
     5    1.133846258340e-14
     6   -7.388658205249e-14
     7   -2.122599362103e-14
     8   -4.130238145422e-15
     9    9.326240522825e-14
    10    2.560403791141e-14
    11    2.056110497720e-15
    12   -4.927190921901e-14
    13   -1.650847864249e-14
    14   -3.642887389631e-15
    15    3.076949770651e-17
    16    9.531314819035e-16
    17   -1.913051281341e-17
    18    2.899327796705e-15
    19    1.344578483411e-02
    20   -2.079039581543e-15
    21   -1.572704599032e-14
    22   -1.206595202717e-14
    23    4.193255786008e-14
    24    2.304237368864e-01
    25   -3.981241867360e-16
    26    8.905299680148e-16
    27   -5.013456215712e-16
    28   -1.619478915382e-14
    29   -8.302928712210e-02
    30    1.660989834071e-17
    31   -2.393962614989e-16
    32   -4.197547785321e-17
    33   -1.519928664726e-16
    34    2.290106716981e-16
    35    2.602329305390e-16
    36    6.092995620963e-15
    37   -6.732647915125e-15
    38   -9.417340629623e-17
    39   -9.300145654321e-16
    40    1.969302324739e-15
    41   -1.165024644977e-15
    42   -1.775764710524e-15
    43    1.138404395602e-14
    44    8.517175024546e-15
    45   -4.026615442165e-15
    46    2.114290715759e-17
    47   -1.019217971819e-16
    48    4.940393448787e-17
    49    1.501941619508e-15
    50    7.455568968017e-03
    51    1.890674927502e-15
    52   -2.160871870491e-14
    53   -1.112344959982e-14
    54   -1.868669804522e-13
    55   -9.929407094510e-01
    56   -1.608190439209e-16
    57   -2.471665025748e-16
    58   -3.851187648311e-16
    59    1.321642518335e-15
    60    6.146855839171e-03
    61   -4.113956734425e-18
    62    2.012952551461e-16
Sym=X
Ene= 2.214875
Spin=Alpha
Occup=0
     1   -7.539080226189e-16
     2   -2.899022069707e-15
     3    2.168965072500e-14
     4   -3.312490191487e-14
     5    5.561513278398e-15
     6   -1.132940436914e+00
     7    9.492881203073e-08
     8   -3.285635514635e-15
     9    1.407793570643e+00
    10   -2.405320213552e-07
    11   -1.251763722563e-15
    12   -7.607587159881e-01
    13    1.971411427444e-07
    14   -5.586348506695e-15
    15    2.221752487722e-16
    16    1.641834880905e-02
    17   -3.492241923274e-09
    18    2.843190955176e-16
    19   -5.973303284844e-16
    20   -4.678210470724e-15
    21   -2.905725039053e-01
    22    7.047859068291e-08
    23    9.389435920668e-15
    24   -1.664370453430e-14
    25   -2.179097984083e-16
    26    2.579289481318e-02
    27   -4.343766678509e-09
    28   -3.514910494921e-15
    29    5.241439510394e-15
    30    2.006242600884e-03
    31   -7.078369399403e-10
    32   -5.842397782079e-17
    33   -7.821868993481e-17
    34   -4.594313686336e-16
    35    5.019035300927e-16
    36    1.147359235494e-14
    37   -7.735997800285e-02
    38   -1.417719420703e-08
    39   -5.889493488690e-16
    40   -1.598458777910e-02
    41   -1.621737049379e-08
    42   -2.946820100009e-15
    43    2.356214936562e-01
    44   -8.031247860284e-08
    45   -6.195242280891e-15
    46   -2.834906454048e-16
    47   -3.288748745130e-03
    48   -8.775828775435e-14
    49    1.024856167234e-16
    50   -6.366285814522e-16
    51    2.929524333320e-15
    52   -3.811453164626e-01
    53    4.214114774604e-08
    54   -4.206898412900e-14
    55    6.450494303857e-14
    56   -2.628298392221e-16
    57   -2.265106815112e-03
    58   -4.925153624690e-10
    59    3.975701269104e-16
    60   -9.119970200716e-16
    61    7.948293837323e-05
    62   -2.929695500001e-11
Sym=X
Ene= 2.268510
Spin=Alpha
Occup=0
     1    4.555315223967e-16
     2    1.385035449825e-15
     3   -1.054934879501e-14
     4    1.658654503796e-14
     5   -1.613520050126e-15
     6   -1.326067007357e-07
     7   -1.127279030939e+00
     8   -1.361969846605e-15
     9    1.645116050313e-07
    10    1.388917203633e+00
    11    5.024035876237e-15
    12   -8.610617542451e-08
    13   -7.626134068117e-01
    14    1.742813419646e-15
    15   -2.216141694860e-16
    16    1.460200496528e-09
    17    1.669588380266e-02
    18   -7.416452155327e-16
    19    3.128146124620e-16
    20    2.575854809700e-15
    21   -3.342257500253e-08
    22   -3.029449604553e-01
    23   -2.090270081652e-15
    24   -4.438586240346e-15
    25    1.065139875025e-16
    26    3.048968267996e-09
    27    2.787560617711e-02
    28    1.320351412711e-15
    29    1.540295176469e-15
    30    6.086647546270e-10
    31    2.102101846237e-03
    32   -1.334384784172e-16
    33   -4.012795393653e-16
    34    2.602051170623e-15
    35   -2.913809745822e-15
    36   -6.061584783888e-15
    37   -9.576098635009e-09
    38   -7.359515193050e-02
    39    5.708867336083e-16
    40   -2.309359440914e-09
    41   -1.194294380494e-02
    42    1.448466197031e-15
    43    2.675963424780e-08
    44    2.439652473453e-01
    45    4.134534359696e-15
    46    1.046441270762e-16
    47   -4.204514912841e-10
    48   -3.413549811078e-03
    49    4.809113578745e-17
    50   -1.051612473432e-16
    51   -2.272520456093e-15
    52   -4.675281981734e-08
    53   -3.980160327543e-01
    54    1.484137282666e-14
    55    2.064734821670e-14
    56    2.353109366157e-16
    57   -3.339525436121e-10
    58   -2.281916822736e-03
    59   -3.982412212872e-16
    60   -1.249398066028e-17
    61    8.789703953132e-12
    62    8.598362713497e-05
Sym=X
Ene= 2.646822
Spin=Alpha
Occup=0
     1   -7.766198367463e-17
     2   -1.951420573509e-16
     3    4.031571221007e-15
     4   -9.922857689250e-15
     5   -4.062689164237e-15
     6   -5.217229794994e-01
     7   -2.821972549975e-09
     8    9.202545176760e-15
     9    9.217846980579e-01
    10   -2.254546588838e-08
    11   -1.666479555692e-14
    12   -1.365073753488e-01
    13    2.036105672475e-08
    14    9.169119690549e-16
    15    1.203768389759e-16
    16   -3.672681764743e-02
    17    1.296783409941e-10
    18   -1.928597621733e-17
    19   -5.896729993026e-16
    20   -2.649878094882e-15
    21    6.069133410924e-01
    22   -1.562589898446e-09
    23   -2.422215425447e-16
    24   -1.248182875233e-15
    25    9.124626836058e-16
    26   -1.497939488748e-01
    27    1.329712072251e-09
    28   -9.480687651978e-16
    29   -2.148934816756e-15
    30    4.740851845246e-03
    31   -1.883988139221e-10
    32   -9.259544621469e-17
    33   -2.924851950847e-16
    34    8.012380784454e-16
    35   -1.401119298642e-15
    36    1.160878629274e-14
    37   -8.191611017397e-02
    38   -3.746517524815e-09
    39   -4.549429565241e-16
    40    7.045613074773e-02
    41   -4.893443513194e-09
    42   -2.805844472283e-15
    43   -3.953433654044e-01
    44   -4.630923002649e-09
    45   -7.091760444327e-15
    46   -1.974652024274e-16
    47    3.404193555064e-03
    48   -1.031317759159e-10
    49   -1.140127503196e-16
    50    2.468555386544e-16
    51    1.636625306541e-15
    52    1.005148419183e+00
    53   -1.224305791089e-08
    54   -6.808360169180e-16
    55    3.885348117191e-15
    56   -2.628567687825e-16
    57   -1.254875150378e-03
    58   -1.458139595867e-10
    59    3.763692137729e-17
    60    2.860426539157e-16
    61   -6.623562600263e-05
    62   -3.683713351941e-12
[5D7F]

======= END OF MOLDEN-FORMATTED INPUT FILE =======


        *************************************************************
        *                                                           *
        *  Thank you very much for using Q-Chem.  Have a nice day.  *
        *                                                           *
        *************************************************************


