                  Welcome to Q-Chem
     A Quantum Leap Into The Future Of Chemistry


 Q-Chem 6.0 (devel), Q-Chem, Inc., Pleasanton, CA (2022)

 E. Epifanovsky,  A. T. B. Gilbert,  Xintian Feng,  Joonho Lee,  Yuezhi Mao,  
 N. Mardirossian,  P. Pokhilko,  A. White,  M. Wormit,  M. P. Coons,  
 A. L. Dempwolff,  Zhengting Gan,  D. Hait,  P. R. Horn,  L. D. Jacobson,  
 I. Kaliman,  J. Kussmann,  A. W. Lange,  Ka Un Lao,  D. S. Levine,  Jie Liu,  
 S. C. McKenzie,  A. F. Morrison,  K. Nanda,  F. Plasser,  D. R. Rehn,  
 M. L. Vidal,  Zhi-Qiang You,  Ying Zhu,  B. Alam,  B. Albrecht,  
 A. Aldossary,  E. Alguire,  J. H. Andersen,  V. Athavale,  D. Barton,  
 K. Begam,  A. Behn,  N. Bellonzi,  Y. A. Bernard,  E. J. Berquist,  
 H. Burton,  A. Carreras,  K. Carter-Fenk,  Romit Chakraborty,  
 Chandrima Chakravarty,  Junhan Chen,  A. D. Chien,  K. D. Closser,  
 V. Cofer-Shabica,  L. Cunha,  S. Dasgupta,  Jia Deng,  M. de Wergifosse,  
 M. Diedenhofen,  Hainam Do,  S. Ehlert,  Po-Tung Fang,  S. Fatehi,  
 Qingguo Feng,  T. Friedhoff,  B. Ganoe,  J. Gayvert,  Qinghui Ge,  
 G. Gidofalvi,  M. Goldey,  J. Gomes,  C. Gonzalez-Espinoza,  S. Gulania,  
 A. Gunina,  J. A. Gyamfi,  M. W. D. Hanson-Heine,  P. H. P. Harbach,  
 A. W. Hauser,  M. F. Herbst,  M. Hernandez Vera,  M. Hodecker,  
 Z. C. Holden,  S. Houck,  Xunkun Huang,  Kerwin Hui,  B. C. Huynh,  
 K. Ikeda,  M. Ivanov,  Hyunjun Ji,  Zuxin Jin,  Hanjie Jiang,  B. Kaduk,  
 S. Kaehler,  R. Kang,  K. Khistyaev,  Jaehoon Kim,  Yongbin Kim,  
 P. Klunzinger,  Z. Koczor-Benda,  Joong Hoon Koh,  D. Kosenkov,  
 Saikiran Kotaru,  L. Koulias,  T. Kowalczyk,  C. M. Krauter,  K. Kue,  
 A. Kunitsa,  T. Kus,  A. Landau,  K. V. Lawler,  D. Lefrancois,  S. Lehtola,  
 Rain Li,  Shaozhi Li,  Yi-Pei Li,  Jiashu Liang,  M. Liebenthal,  
 Hung-Hsuan Lin,  You-Sheng Lin,  Fenglai Liu,  Kuan-Yu Liu,  
 M. Loipersberger,  A. Luenser,  C. Malbon,  A. Manjanath,  P. Manohar,  
 E. Mansoor,  S. F. Manzer,  Shan-Ping Mao,  A. V. Marenich,  T. Markovich,  
 S. Mason,  F. Matz,  S. A. Maurer,  P. F. McLaughlin,  M. F. S. J. Menger,  
 J.-M. Mewes,  S. A. Mewes,  P. Morgante,  Mohammad Mostafanejad,  
 J. W. Mullinax,  K. J. Oosterbaan,  G. Paran,  V. Parravicini,  
 Alexander C. Paul,  Suranjan K. Paul,  F. Pavosevic,  Zheng Pei,  S. Prager,  
 E. I. Proynov,  E. Ramos,  B. Rana,  A. E. Rask,  A. Rettig,  R. M. Richard,  
 F. Rob,  E. Rossomme,  T. Scheele,  M. Scheurer,  M. Schneider,  
 P. E. Schneider,  N. Sergueev,  S. M. Sharada,  Hengyuan Shen,  
 W. Skomorowski,  D. W. Small,  C. J. Stein,  Yingli Su,  Yu-Chuan Su,  
 E. J. Sundstrom,  Zhen Tao,  J. Thirman,  Hung-Yi Tsai,  T. Tsuchimochi,  
 N. M. Tubman,  C. Utku,  S. P. Veccham,  O. Vydrov,  J. Wenzel,  
 Jonathan Wong,  J. Witte,  A. Yamada,  Chou-Hsun Yang,  Kun Yao,  
 S. Yeganeh,  S. R. Yost,  A. Zech,  F. Zeller,  Igor Ying Zhang,  
 Xing Zhang,  Yu Zhang,  D. Zuev,  A. Aspuru-Guzik,  A. T. Bell,  
 N. A. Besley,  K. B. Bravaya,  B. R. Brooks,  D. Casanova,  Jeng-Da Chai,  
 Hsing-Ta Chen,  S. Coriani,  C. J. Cramer,  A. E. DePrince, III,  
 R. A. DiStasio Jr.,  A. Dreuw,  B. D. Dunietz,  T. R. Furlani,  
 W. A. Goddard III,  S. Grimme,  S. Hammes-Schiffer,  T. Head-Gordon,  
 W. J. Hehre,  Chao-Ping Hsu,  T.-C. Jagau,  Yousung Jung,  A. Klamt,  
 Jing Kong,  D. S. Lambrecht,  Xiangyuan Li,  WanZhen Liang,  N. J. Mayhall,  
 C. W. McCurdy,  J. B. Neaton,  T. Neudecker,  C. Ochsenfeld,  
 J. A. Parkhill,  R. Peverati,  V. A. Rassolov,  Haisheng Ren,  Yihan Shao,  
 L. V. Slipchenko,  R. P. Steele,  J. E. Subotnik,  A. J. W. Thom,  
 A. Tkatchenko,  D. G. Truhlar,  T. Van Voorhis,  Fan Wang,  
 T. A. Wesolowski,  K. B. Whaley,  H. L. Woodcock III,  P. M. Zimmerman,  
 S. Faraji,  P. M. W. Gill,  M. Head-Gordon,  J. M. Herbert,  A. I. Krylov

 Contributors to earlier versions of Q-Chem not listed above: 
 R. D. Adamson,  B. Austin,  R. Baer,  J. Baker,  G. J. O. Beran,  
 K. Brandhorst,  S. T. Brown,  E. F. C. Byrd,  Arup K. Chakraborty,  
 G. K. L. Chan,  Chun-Min Chang,  Yunqing Chen,  C.-L. Cheng,  
 Siu Hung Chien,  D. M. Chipman,  D. L. Crittenden,  H. Dachsel,  
 R. J. Doerksen,  A. D. Dutoi,  R. G. Edgar,  J. Fosso-Tande,  
 L. Fusti-Molnar,  D. Ghosh,  A. Ghysels,  A. Golubeva-Zadorozhnaya,  
 J. Gonthier,  M. S. Gordon,  S. R. Gwaltney,  G. Hawkins,  J. E. Herr,  
 A. Heyden,  S. Hirata,  E. G. Hohenstein,  G. Kedziora,  F. J. Keil,  
 C. Kelley,  Jihan Kim,  R. A. King,  R. Z. Khaliullin,  P. P. Korambath,  
 W. Kurlancheek,  A. Laurent,  A. M. Lee,  M. S. Lee,  S. V. Levchenko,  
 Ching Yeh Lin,  D. Liotard,  E. Livshits,  R. C. Lochan,  I. Lotan,  
 L. A. Martinez-Martinez,  P. E. Maslen,  N. Nair,  D. P. O'Neill,  
 D. Neuhauser,  E. Neuscamman,  C. M. Oana,  R. Olivares-Amaya,  R. Olson,  
 T. M. Perrine,  B. Peters,  P. A. Pieniazek,  A. Prociuk,  Y. M. Rhee,  
 J. Ritchie,  M. A. Rohrdanz,  E. Rosta,  N. J. Russ,  H. F. Schaefer III,  
 M. W. Schmidt,  N. E. Schultz,  S. Sharma,  N. Shenvi,  C. D. Sherrill,  
 A. C. Simmonett,  A. Sodt,  T. Stein,  D. Stuck,  K. S. Thanthiriwatte,  
 V. Vanovschi,  L. Vogt,  Tao Wang,  A. Warshel,  M. A. Watson,  
 C. F. Williams,  Q. Wu,  X. Xu,  Jun Yang,  W. Zhang,  Yan Zhao

   Please cite Q-Chem as follows:
  "Software for the frontiers of quantum chemistry:
   An overview of developments in the Q-Chem 5 package"
   J. Chem. Phys. 155, 084801 (2021)
   https://doi.org/10.1063/5.0055522 (open access)

 Q-Chem 6.0.1 for Intel X86 EM64T Linux

 Parts of Q-Chem use Armadillo 9.900.5 (Nocturnal Misbehaviour).
 http://arma.sourceforge.net/

 Q-Chem begins on Fri Oct 13 16:31:27 2023  

 Host: atlas-085
0

     Scratch files written to ./qchem23706//
 Processing $rem in /scratch/abel/SOFTWARE/qchem/config/preferences:
 Processing $rem in /dipc/acebg/.qchemrc:

 Checking the input file for inconsistencies... 	...done.

--------------------------------------------------------------
User input:
--------------------------------------------------------------
$comment
 RAS-SF CALCULATION
$end

$molecule
 READ nf.molecule
$end

$rem
!**CALCULATION TYPE***     
JOBTYPE            sp    
EXCHANGE           HF
CORRELATION        RASCI    !RASCI=Casanova; RASCI2=Zimmerman
BASIS              STO-3G

!***SCF REFERENCE***
UNRESTRICTED       FALSE
MAX_SCF_CYCLES     500

!****RAS-SF****
RAS_ROOTS          16       !number of RAS-CI roots to be computed
SET_ITER           100      !number of iterations in RASCI
RAS_ELEC           4       !number of electrons in RAS2
RAS_ELEC_ALPHA     3       !spin-α electrons in RAS2 
RAS_ELEC_BETA      1       !spin-β electrons in RAS2

RAS_ACT            4       !number of orbitals in RAS2 
RAS_ACT_ORB   [7,8,9,10]  !user-selected RAS2 orbitals
RAS_OCC            6       !number of orbitals in RAS1

RAS_DO_HOLE        FALSE   !presence of hole excitations in RAS-CI wave function
RAS_DO_PART        FALSE   !presence of particle excitations
!RAS_SPIN_MULT      0      !spin multiplicity: 0=any, 2n+1=defined 
RAS_PRINT          2      !level of information

!****RAS-SOC****
CALC_SOC           TRUE   !calculate SOC for EOM-CC, RAS-CI, ADC, TDDFT/TDA and TDDFT
RAS_SOC_SYM_DENS   TRUE   !averaging of α and β densities

MEM_TOTAL          60000 !Default 2000 MB
MEM_STATIC         16000  !Default 64 MB
STATE_ANALYSIS     TRUE
$end                                           

--------------------------------------------------------------
 ----------------------------------------------------------------
             Standard Nuclear Orientation (Angstroms)
    I     Atom           X                Y                Z
 ----------------------------------------------------------------
    1      N       0.0000000000     0.0000000000    -0.7407562500
    2      F       0.0000000000     0.0000000000     0.5761437500
 ----------------------------------------------------------------
 Molecular Point Group                 C2v   NOp =  4
 Largest Abelian Subgroup              C2v   NOp =  4
 Nuclear Repulsion Energy =          25.31563845 hartrees
 There are        9 alpha and        7 beta electrons
 Requested basis set is STO-3G
 There are 4 shells and 10 basis functions

 Q-Chem warning in module libmdc/get_mega.C, line 167:

 Allowed MEM_STATIC has been capped at MEM_STATIC=8191.
 Reduce the value of MEM_STATIC to silence this warning.


 Total QAlloc Memory Limit  60000 MB
 Mega-Array Size      8007 MB
 MEM_STATIC part      8191 MB


                       Distance Matrix (Angstroms)
             N (  1)
   F (  2)  1.316900
 
 A cutoff of  1.0D-09 yielded     10 shell pairs
 There are        67 function pairs
 Smallest overlap matrix eigenvalue = 4.44E-01

 Scale SEOQF with 1.000000e+00/1.000000e+00/1.000000e+00

 Standard Electronic Orientation quadrupole field applied
 Nucleus-field energy     =    -0.0000000073 hartrees
 Guess from superposition of atomic densities
 Warning:  Energy on first SCF cycle will be non-variational
 SAD guess density has 16.000000 electrons

 -----------------------------------------------------------------------
  General SCF calculation program by
  Eric Jon Sundstrom, Paul Horn, Yuezhi Mao, Dmitri Zuev, Alec White,
  David Stuck, Shaama M.S., Shane Yost, Joonho Lee, David Small,
  Daniel Levine, Susi Lehtola, Hugh Burton, Evgeny Epifanovsky,
  Bang C. Huynh
 -----------------------------------------------------------------------
 Hartree-Fock
 Orthonormalizing orbitals
 A restricted open-shell SCF calculation will be
 performed using GDM
 SCF converges when RMS gradient is below 1.0e-05
 ---------------------------------------
  Cycle       Energy        RMS Gradient
 ---------------------------------------
    1    -151.5260172399      4.37e-01   Descent step
    2    -151.6795165146      1.51e-01   Dog-leg BFGS step
    3    -151.7262913686      4.37e-02   Normal BFGS step
    4    -151.7287377494      1.65e-02   Normal BFGS step
    5    -151.7292177314      1.92e-03   Normal BFGS step
    6    -151.7292235580      2.87e-04   Normal BFGS step
    7    -151.7292236924      3.76e-05   Normal BFGS step
    8    -151.7292236935      1.08e-06  Convergence criterion met
The disked orbital energies are calculated using alpha and beta Focks
 ---------------------------------------
 SCF time:   CPU 0.08s  wall 1.00s 
<S^2> =          2.000000000
 SCF   energy in the final basis set =     -151.7292236935
 Total energy in the final basis set =     -151.7292236935
  
     ##========================================##
     ||                                        ||
     ||              R A S M A N 2             ||
     ||________________________________________||
     ||                                        ||
     ||  Author:                               ||
     ||                                        ||
     ||        David Casanova (2010)           ||
     ||                                        ||
     ##========================================##
  
Setting single-point xc-functionals (if necessary)

  ***************************************************
  *  RAS-CI Dimensions:                             *
  *                                                 *
  *  Active Elec.:   4 ( 3, 1)   Active Orb.:   4   *
  *  Doubly Occ. :   6           Doubly Vir.:   0   *
  *  Frozen Occ. :   0           Frozen Vir.:   0   *
  *                                                 *
  *  Total CI configurations:        16             * 
  *    Active configurations:        16             * 
  *      Hole configurations:         0             * 
  *  Particle configurations:         0             * 
  *                                                 *
  *   Requested states:       50                    *
  *    Computed states:       16                    *
  *  Spin multiplicity: Any multiplicity            *
  *                                                 *
  ***************************************************
-----------------------------------------
    Memory requirements of RASCI

 Each CI-vector requires      0.00 MiB 
 Max. subspace vectors             16      

 Reduced Lists                0.00 MiB 
 Excitation Lists             0.00 MiB 
 Excitation Lists Sign        0.00 MiB 
 CI-space (Max)               0.01 MiB 
 Integrals                    0.03 MiB 
 Memory required (Max)        0.03 MiB 
 Memory available          7811.55 MiB 

    Disk requirements of RASCI

 Fock matrix                  0.00 MiB 
 2-electron integrals         0.00 MiB 
 CI-space                     0.00 MiB 
 Disk required                0.01 MiB 
-----------------------------------------
  
RAS1 HF-like energy:           -146.3979296322
 Computing integrals
 Computing J and K matrices
 Computing addressing
 Making amplitude guesses
 
Direct CI diagonalization
 ---------------------------------------------------
 Iter    Rts Conv    Rts Left    Ttl Dev     Max Dev
 ---------------------------------------------------
   1        16           0      0.000000    0.000000    Roots Converged
 ---------------------------------------------------
   
**************************************************
 RAS-CI total energy for state   1:   -151.748336453833
  Excitation energy (eV) =  0.000000000000
  State symmetry: A2    (C2v      )
  <S^2>      :  2.0000
  Dipole Moment:   -0.0000 X    -0.0000 Y    -0.0589 Z
 NATURAL OCCUPATION NUMBERS (higher than 1.0E-05)
            1           2           3           4           5           6
    1   2.0000000   2.0000000   2.0000000   2.0000000   2.0000000   2.0000000
            7           8           9          10
    1   1.9736640   1.0000000   1.0000000   0.0263360
 Created directory ./qchem23706/plots

  Amplitudes : 
  
 | HOLE  | ALPHA | BETA  | PART  |    AMPLITUDE 
--------------------------------------------------
 |       | 1110  | 1000  |       |     9.9336249931859E-01
 |       | 0111  | 0001  |       |    -1.1471983851797E-01
--------------------------------------------------
*** Contributions RASCI wfn    Active: 100.00
                                 Hole:   0.00
                                 Part:   0.00

      Mulliken population analysis 
 ---------------------------------------------------
   Atom    Charge (a.u.)   Spin (a.u.)  
 ---------------------------------------------------
   1  N    0.082115        1.859713 
   2  F   -0.082115        0.140287 
 ---------------------------------------------------
   Sum:   -0.000000        2.000000 
 ---------------------------------------------------
 
*** Unpaired Electrons
 Yamaguchi Nd:         2.10
  
**************************************************
 RAS-CI total energy for state   2:   -151.461292331558
  Excitation energy (eV) =  7.810867971654
  State symmetry: B1    (C2v      )
  <S^2>      :  2.0000
  Dipole Moment:   -0.0000 X     0.0000 Y    -0.3720 Z
  Trans. Moment:   -0.0002 X    -0.3032 Y    -0.0000 Z
  Strength   :  0.017596
  Natural transition orbitals ( 1 -> 2 ):
   e-/hole pair  1 alpha:  ampl =  0.075575 (  0.6%)   [4 : 5]
   e-/hole pair  2 alpha:  ampl =  0.000224 (  0.0%)   [3 : 6]
   e-/hole pair  1 beta :  ampl =  0.983137 ( 96.7%)   [4 : 5]
   e-/hole pair  2 beta :  ampl =  0.000021 (  0.0%)   [3 : 6]
   Sum of square amplitudes: 0.97

 NATURAL OCCUPATION NUMBERS (higher than 1.0E-05)
            1           2           3           4           5           6
    1   2.0000000   2.0000000   2.0000000   2.0000000   2.0000000   2.0000000
            7           8           9          10
    1   1.9829013   1.0048450   1.0000000   0.0122538

  Amplitudes : 
  
 | HOLE  | ALPHA | BETA  | PART  |    AMPLITUDE 
--------------------------------------------------
 |       | 1110  | 0010  |       |     9.8895919512276E-01
 |       | 0111  | 0010  |       |     1.1580176890631E-01
--------------------------------------------------
*** Contributions RASCI wfn    Active: 100.00
                                 Hole:   0.00
                                 Part:   0.00

      Mulliken population analysis 
 ---------------------------------------------------
   Atom    Charge (a.u.)   Spin (a.u.)  
 ---------------------------------------------------
   1  N   -0.176239        1.429792 
   2  F    0.176239        0.570208 
 ---------------------------------------------------
   Sum:   -0.000000        2.000000 
 ---------------------------------------------------
 
*** Unpaired Electrons
 Yamaguchi Nd:         2.06
  
**************************************************
 RAS-CI total energy for state   3:   -151.461292331555
  Excitation energy (eV) =  7.810867971723
  State symmetry: B2    (C2v      )
  <S^2>      :  2.0000
  Dipole Moment:   -0.0000 X     0.0000 Y    -0.3720 Z
  Trans. Moment:    0.3032 X    -0.0002 Y     0.0000 Z
  Strength   :  0.017596
  Natural transition orbitals ( 1 -> 3 ):
   e-/hole pair  1 alpha:  ampl =  0.075575 (  0.6%)   [4 : 5]
   e-/hole pair  2 alpha:  ampl =  0.000224 (  0.0%)   [3 : 6]
   e-/hole pair  1 beta :  ampl =  0.983137 ( 96.7%)   [4 : 5]
   e-/hole pair  2 beta :  ampl =  0.000021 (  0.0%)   [3 : 6]
   Sum of square amplitudes: 0.97

 NATURAL OCCUPATION NUMBERS (higher than 1.0E-05)
            1           2           3           4           5           6
    1   2.0000000   2.0000000   2.0000000   2.0000000   2.0000000   2.0000000
            7           8           9          10
    1   1.9829013   1.0048450   1.0000000   0.0122538

  Amplitudes : 
  
 | HOLE  | ALPHA | BETA  | PART  |    AMPLITUDE 
--------------------------------------------------
 |       | 1110  | 0100  |       |     9.8895919512160E-01
 |       | 0111  | 0100  |       |     1.1580176891296E-01
--------------------------------------------------
*** Contributions RASCI wfn    Active: 100.00
                                 Hole:   0.00
                                 Part:   0.00

      Mulliken population analysis 
 ---------------------------------------------------
   Atom    Charge (a.u.)   Spin (a.u.)  
 ---------------------------------------------------
   1  N   -0.176239        1.429792 
   2  F    0.176239        0.570208 
 ---------------------------------------------------
   Sum:   -0.000000        2.000000 
 ---------------------------------------------------
 
*** Unpaired Electrons
 Yamaguchi Nd:         2.06
  
**************************************************
 RAS-CI total energy for state   4:   -151.331310919822
  Excitation energy (eV) = 11.347842140600
  State symmetry: B1    (C2v      )
  <S^2>      :  2.0000
  Dipole Moment:   -0.0000 X    -0.0000 Y     0.4259 Z
  Trans. Moment:    0.0000 X    -0.1414 Y    -0.0000 Z
  Strength   :  0.005561
  Natural transition orbitals ( 1 -> 4 ):
   e-/hole pair  1 alpha:  ampl =  0.973825 ( 94.8%)   [4 : 5]
   e-/hole pair  2 alpha:  ampl =  0.000025 (  0.0%)   [3 : 6]
   e-/hole pair  1 beta :  ampl =  0.090870 (  0.8%)   [4 : 5]
   e-/hole pair  2 beta :  ampl =  0.000224 (  0.0%)   [3 : 6]
   Sum of square amplitudes: 0.96

 NATURAL OCCUPATION NUMBERS (higher than 1.0E-05)
            1           2           3           4           5           6
    1   2.0000000   2.0000000   2.0000000   2.0000000   2.0000000   2.0000000
            7           8           9          10
    1   1.9849453   1.0000000   0.9898260   0.0252287

  Amplitudes : 
  
 | HOLE  | ALPHA | BETA  | PART  |    AMPLITUDE 
--------------------------------------------------
 |       | 1101  | 1000  |       |     9.8093742925886E-01
 |       | 1101  | 0001  |       |    -1.5857934700554E-01
--------------------------------------------------
*** Contributions RASCI wfn    Active: 100.00
                                 Hole:   0.00
                                 Part:   0.00

      Mulliken population analysis 
 ---------------------------------------------------
   Atom    Charge (a.u.)   Spin (a.u.)  
 ---------------------------------------------------
   1  N    0.265591        1.422862 
   2  F   -0.265591        0.577138 
 ---------------------------------------------------
   Sum:   -0.000000        2.000000 
 ---------------------------------------------------
 
*** Unpaired Electrons
 Yamaguchi Nd:         2.08
  
**************************************************
 RAS-CI total energy for state   5:   -151.331310919817
  Excitation energy (eV) = 11.347842140743
  State symmetry: B2    (C2v      )
  <S^2>      :  2.0000
  Dipole Moment:   -0.0000 X    -0.0000 Y     0.4259 Z
  Trans. Moment:   -0.1414 X    -0.0000 Y    -0.0000 Z
  Strength   :  0.005561
  Natural transition orbitals ( 1 -> 5 ):
   e-/hole pair  1 alpha:  ampl =  0.973825 ( 94.8%)   [4 : 5]
   e-/hole pair  2 alpha:  ampl =  0.000025 (  0.0%)   [3 : 6]
   e-/hole pair  1 beta :  ampl =  0.090870 (  0.8%)   [4 : 5]
   e-/hole pair  2 beta :  ampl =  0.000224 (  0.0%)   [3 : 6]
   Sum of square amplitudes: 0.96

 NATURAL OCCUPATION NUMBERS (higher than 1.0E-05)
            1           2           3           4           5           6
    1   2.0000000   2.0000000   2.0000000   2.0000000   2.0000000   2.0000000
            7           8           9          10
    1   1.9849453   1.0000000   0.9898260   0.0252287

  Amplitudes : 
  
 | HOLE  | ALPHA | BETA  | PART  |    AMPLITUDE 
--------------------------------------------------
 |       | 1011  | 1000  |       |     9.8093742925757E-01
 |       | 1011  | 0001  |       |    -1.5857934701094E-01
--------------------------------------------------
*** Contributions RASCI wfn    Active: 100.00
                                 Hole:   0.00
                                 Part:   0.00

      Mulliken population analysis 
 ---------------------------------------------------
   Atom    Charge (a.u.)   Spin (a.u.)  
 ---------------------------------------------------
   1  N    0.265591        1.422862 
   2  F   -0.265591        0.577138 
 ---------------------------------------------------
   Sum:   -0.000000        2.000000 
 ---------------------------------------------------
 
*** Unpaired Electrons
 Yamaguchi Nd:         2.08
  
**************************************************
 RAS-CI total energy for state   6:   -151.326562761581
  Excitation energy (eV) = 11.477046100040
  State symmetry: A2    (C2v      )
  <S^2>      :  6.0000
  Dipole Moment:   -0.0000 X     0.0000 Y     0.2479 Z
  Trans. Moment:    0.0000 X     0.0000 Y    -0.0000 Z
  Strength   :  0.000000
  Natural transition orbitals ( 1 -> 6 ):
   e-/hole pair  1 alpha:  ampl =  0.496697 ( 24.7%)   [4 : 5]
   e-/hole pair  2 alpha:  ampl =  0.057376 (  0.3%)   [3 : 6]
   e-/hole pair  1 beta :  ampl =  0.496697 ( 24.7%)   [4 : 5]
   e-/hole pair  2 beta :  ampl =  0.057376 (  0.3%)   [3 : 6]
   Sum of square amplitudes: 0.50

 NATURAL OCCUPATION NUMBERS (higher than 1.0E-05)
            1           2           3           4           5           6
    1   2.0000000   2.0000000   2.0000000   2.0000000   2.0000000   2.0000000
            7           8           9          10
    1   1.0000000   1.0000000   1.0000000   1.0000000

  Amplitudes : 
  
 | HOLE  | ALPHA | BETA  | PART  |    AMPLITUDE 
--------------------------------------------------
 |       | 1110  | 0001  |       |     5.0000000000000E-01
 |       | 1101  | 0010  |       |    -5.0000000000000E-01
 |       | 1011  | 0100  |       |     5.0000000000000E-01
 |       | 0111  | 1000  |       |    -5.0000000000000E-01
--------------------------------------------------
*** Contributions RASCI wfn    Active: 100.00
                                 Hole:   0.00
                                 Part:   0.00

      Mulliken population analysis 
 ---------------------------------------------------
   Atom    Charge (a.u.)   Spin (a.u.)  
 ---------------------------------------------------
   1  N    0.057003        1.528501 
   2  F   -0.057003        0.471499 
 ---------------------------------------------------
   Sum:   -0.000000        2.000000 
 ---------------------------------------------------
 
*** Unpaired Electrons
 Yamaguchi Nd:         4.00
  
**************************************************
 RAS-CI total energy for state   7:   -151.169626680444
  Excitation energy (eV) = 15.747494141389
  State symmetry: A2    (C2v      )
  <S^2>      :  2.0000
  Dipole Moment:    0.0000 X     0.0000 Y     0.2479 Z
  Trans. Moment:   -0.0000 X    -0.0000 Y    -0.0000 Z
  Strength   :  0.000000
  Natural transition orbitals ( 1 -> 7 ):
   e-/hole pair  1 alpha:  ampl =  0.000159 (  0.0%)   [4 : 5]
   e-/hole pair  2 alpha:  ampl =  0.000159 (  0.0%)   [3 : 6]
   e-/hole pair  1 beta :  ampl =  0.000159 (  0.0%)   [4 : 5]
   e-/hole pair  2 beta :  ampl =  0.000159 (  0.0%)   [3 : 6]
   Sum of square amplitudes: 0.00

 NATURAL OCCUPATION NUMBERS (higher than 1.0E-05)
            1           2           3           4           5           6
    1   2.0000000   2.0000000   2.0000000   2.0000000   2.0000000   2.0000000
            7           8           9          10
    1   1.0000000   1.0000000   1.0000000   1.0000000

  Amplitudes : 
  
 | HOLE  | ALPHA | BETA  | PART  |    AMPLITUDE 
--------------------------------------------------
 |       | 1101  | 0010  |       |     7.0710208681497E-01
 |       | 1011  | 0100  |       |     7.0710208680301E-01
--------------------------------------------------
*** Contributions RASCI wfn    Active: 100.00
                                 Hole:   0.00
                                 Part:   0.00

      Mulliken population analysis 
 ---------------------------------------------------
   Atom    Charge (a.u.)   Spin (a.u.)  
 ---------------------------------------------------
   1  N    0.057003        1.196911 
   2  F   -0.057003        0.803089 
 ---------------------------------------------------
   Sum:   -0.000000        2.000000 
 ---------------------------------------------------
 
*** Unpaired Electrons
 Yamaguchi Nd:         4.00
  
**************************************************
 RAS-CI total energy for state   8:   -151.169626680444
  Excitation energy (eV) = 15.747494141389
  State symmetry: A1    (C2v      )
  <S^2>      :  2.0000
  Dipole Moment:   -0.0000 X    -0.0000 Y     0.2479 Z
  Trans. Moment:    0.0000 X     0.0000 Y    -0.0000 Z
  Strength   :  0.000000
  Natural transition orbitals ( 1 -> 8 ):
   e-/hole pair  1 alpha:  ampl =  0.000159 (  0.0%)   [4 : 5]
   e-/hole pair  2 alpha:  ampl =  0.000159 (  0.0%)   [3 : 6]
   e-/hole pair  1 beta :  ampl =  0.000159 (  0.0%)   [4 : 5]
   e-/hole pair  2 beta :  ampl =  0.000159 (  0.0%)   [3 : 6]
   Sum of square amplitudes: 0.00

 NATURAL OCCUPATION NUMBERS (higher than 1.0E-05)
            1           2           3           4           5           6
    1   2.0000000   2.0000000   2.0000000   2.0000000   2.0000000   2.0000000
            7           8           9          10
    1   1.0000000   1.0000000   1.0000000   1.0000000

  Amplitudes : 
  
 | HOLE  | ALPHA | BETA  | PART  |    AMPLITUDE 
--------------------------------------------------
 |       | 1101  | 0100  |       |     7.0710208682567E-01
 |       | 1011  | 0010  |       |    -7.0710208679231E-01
--------------------------------------------------
*** Contributions RASCI wfn    Active: 100.00
                                 Hole:   0.00
                                 Part:   0.00

      Mulliken population analysis 
 ---------------------------------------------------
   Atom    Charge (a.u.)   Spin (a.u.)  
 ---------------------------------------------------
   1  N    0.057003        1.196911 
   2  F   -0.057003        0.803089 
 ---------------------------------------------------
   Sum:   -0.000000        2.000000 
 ---------------------------------------------------
 
*** Unpaired Electrons
 Yamaguchi Nd:         4.00
  
**************************************************
 RAS-CI total energy for state   9:   -151.161485771380
  Excitation energy (eV) = 15.969019547868
  State symmetry: A2    (C2v      )
  <S^2>      :  2.0000
  Dipole Moment:    0.0000 X     0.0000 Y     0.2473 Z
  Trans. Moment:    0.0000 X    -0.0000 Y     0.0747 Z
  Strength   :  0.002183
  Natural transition orbitals ( 1 -> 9 ):
   e-/hole pair  1 alpha:  ampl =  0.457923 ( 21.0%)   [4 : 5]
   e-/hole pair  2 alpha:  ampl =  0.061685 (  0.4%)   [3 : 6]
   e-/hole pair  1 beta :  ampl =  0.534004 ( 28.5%)   [4 : 5]
   e-/hole pair  2 beta :  ampl =  0.052897 (  0.3%)   [3 : 6]
   Sum of square amplitudes: 0.50

 NATURAL OCCUPATION NUMBERS (higher than 1.0E-05)
            1           2           3           4           5           6
    1   2.0000000   2.0000000   2.0000000   2.0000000   2.0000000   2.0000000
            7           8           9          10
    1   1.0002922   1.0000000   1.0000000   0.9997078

  Amplitudes : 
  
 | HOLE  | ALPHA | BETA  | PART  |    AMPLITUDE 
--------------------------------------------------
 |       | 1110  | 0001  |       |     5.3757437795072E-01
 |       | 1101  | 0010  |       |     4.9926260937159E-01
 |       | 1011  | 0100  |       |    -4.9926260938847E-01
 |       | 0111  | 1000  |       |    -4.6095084080935E-01
--------------------------------------------------
*** Contributions RASCI wfn    Active: 100.00
                                 Hole:   0.00
                                 Part:   0.00

      Mulliken population analysis 
 ---------------------------------------------------
   Atom    Charge (a.u.)   Spin (a.u.)  
 ---------------------------------------------------
   1  N    0.056780        1.530419 
   2  F   -0.056780        0.469581 
 ---------------------------------------------------
   Sum:   -0.000000        2.000000 
 ---------------------------------------------------
 
*** Unpaired Electrons
 Yamaguchi Nd:         4.00
  
**************************************************
 RAS-CI total energy for state  10:   -151.095589210653
  Excitation energy (eV) = 17.762156197196
  State symmetry: A1    (C2v      )
  <S^2>      :  2.0000
  Dipole Moment:   -0.0000 X    -0.0000 Y     0.2479 Z
  Trans. Moment:   -0.0000 X    -0.0000 Y     0.0000 Z
  Strength   :  0.000000
  Natural transition orbitals ( 1 -> 10 ):
   e-/hole pair  1 alpha:  ampl =  0.000159 (  0.0%)   [4 : 5]
   e-/hole pair  2 alpha:  ampl =  0.000159 (  0.0%)   [3 : 6]
   e-/hole pair  1 beta :  ampl =  0.000159 (  0.0%)   [4 : 5]
   e-/hole pair  2 beta :  ampl =  0.000159 (  0.0%)   [3 : 6]
   Sum of square amplitudes: 0.00

 NATURAL OCCUPATION NUMBERS (higher than 1.0E-05)
            1           2           3           4           5           6
    1   2.0000000   2.0000000   2.0000000   2.0000000   2.0000000   2.0000000
            7           8           9          10
    1   1.0000000   1.0000000   1.0000000   1.0000000

  Amplitudes : 
  
 | HOLE  | ALPHA | BETA  | PART  |    AMPLITUDE 
--------------------------------------------------
 |       | 1101  | 0100  |       |     7.0710678116987E-01
 |       | 1011  | 0010  |       |     7.0710678120323E-01
--------------------------------------------------
*** Contributions RASCI wfn    Active: 100.00
                                 Hole:   0.00
                                 Part:   0.00

      Mulliken population analysis 
 ---------------------------------------------------
   Atom    Charge (a.u.)   Spin (a.u.)  
 ---------------------------------------------------
   1  N    0.057003        1.196911 
   2  F   -0.057003        0.803089 
 ---------------------------------------------------
   Sum:   -0.000000        2.000000 
 ---------------------------------------------------
 
*** Unpaired Electrons
 Yamaguchi Nd:         4.00
  
**************************************************
 RAS-CI total energy for state  11:   -150.917762726870
  Excitation energy (eV) = 22.601061016705
  State symmetry: A2    (C2v      )
  <S^2>      :  2.0000
  Dipole Moment:    0.0000 X     0.0000 Y    -0.1038 Z
  Trans. Moment:    0.0000 X     0.0000 Y     1.3748 Z
  Strength   :  1.046505
  Natural transition orbitals ( 1 -> 11 ):
   e-/hole pair  1 alpha:  ampl =  0.724858 ( 52.5%)   [4 : 5]
   e-/hole pair  2 alpha:  ampl =  0.077261 (  0.6%)   [3 : 6]
   e-/hole pair  1 beta :  ampl =  0.670922 ( 45.0%)   [4 : 5]
   e-/hole pair  2 beta :  ampl =  0.083473 (  0.7%)   [3 : 6]
   Sum of square amplitudes: 0.99

 NATURAL OCCUPATION NUMBERS (higher than 1.0E-05)
            1           2           3           4           5           6
    1   2.0000000   2.0000000   2.0000000   2.0000000   2.0000000   2.0000000
            7           8           9          10
    1   1.1605317   1.0000000   1.0000000   0.8394683

  Amplitudes : 
  
 | HOLE  | ALPHA | BETA  | PART  |    AMPLITUDE 
--------------------------------------------------
 |       | 1110  | 0001  |       |     6.7561964491418E-01
 |       | 0111  | 1000  |       |     7.2987767354987E-01
--------------------------------------------------
*** Contributions RASCI wfn    Active: 100.00
                                 Hole:   0.00
                                 Part:   0.00

      Mulliken population analysis 
 ---------------------------------------------------
   Atom    Charge (a.u.)   Spin (a.u.)  
 ---------------------------------------------------
   1  N   -0.065173        1.857350 
   2  F    0.065173        0.142650 
 ---------------------------------------------------
   Sum:   -0.000000        2.000000 
 ---------------------------------------------------
 
*** Unpaired Electrons
 Yamaguchi Nd:         3.95
  
**************************************************
 RAS-CI total energy for state  12:   -150.737114665254
  Excitation energy (eV) = 27.516744875470
  State symmetry: B1    (C2v      )
  <S^2>      :  2.0000
  Dipole Moment:    0.0000 X     0.0000 Y    -0.5304 Z
  Trans. Moment:    0.0000 X     0.0588 Y     0.0000 Z
  Strength   :  0.002330
  Natural transition orbitals ( 1 -> 12 ):
   e-/hole pair  1 alpha:  ampl =  0.062399 (  0.4%)   [4 : 5]
   e-/hole pair  2 alpha:  ampl =  0.000224 (  0.0%)   [3 : 6]
   e-/hole pair  1 beta :  ampl =  0.151644 (  2.3%)   [4 : 5]
   e-/hole pair  2 beta :  ampl =  0.000023 (  0.0%)   [3 : 6]
   Sum of square amplitudes: 0.03

 NATURAL OCCUPATION NUMBERS (higher than 1.0E-05)
            1           2           3           4           5           6
    1   2.0000000   2.0000000   2.0000000   2.0000000   2.0000000   2.0000000
            7           8           9          10
    1   1.9791184   1.0076012   1.0000000   0.0132804

  Amplitudes : 
  
 | HOLE  | ALPHA | BETA  | PART  |    AMPLITUDE 
--------------------------------------------------
 |       | 1110  | 0010  |       |    -1.0670668252687E-01
 |       | 0111  | 0010  |       |     9.8902623663339E-01
--------------------------------------------------
*** Contributions RASCI wfn    Active: 100.00
                                 Hole:   0.00
                                 Part:   0.00

      Mulliken population analysis 
 ---------------------------------------------------
   Atom    Charge (a.u.)   Spin (a.u.)  
 ---------------------------------------------------
   1  N   -0.360405        1.613504 
   2  F    0.360405        0.386496 
 ---------------------------------------------------
   Sum:   -0.000000        2.000000 
 ---------------------------------------------------
 
*** Unpaired Electrons
 Yamaguchi Nd:         2.07
  
**************************************************
 RAS-CI total energy for state  13:   -150.737114665250
  Excitation energy (eV) = 27.516744875585
  State symmetry: B2    (C2v      )
  <S^2>      :  2.0000
  Dipole Moment:   -0.0000 X     0.0000 Y    -0.5304 Z
  Trans. Moment:   -0.0588 X     0.0000 Y    -0.0000 Z
  Strength   :  0.002330
  Natural transition orbitals ( 1 -> 13 ):
   e-/hole pair  1 alpha:  ampl =  0.062399 (  0.4%)   [4 : 5]
   e-/hole pair  2 alpha:  ampl =  0.000224 (  0.0%)   [3 : 6]
   e-/hole pair  1 beta :  ampl =  0.151644 (  2.3%)   [4 : 5]
   e-/hole pair  2 beta :  ampl =  0.000023 (  0.0%)   [3 : 6]
   Sum of square amplitudes: 0.03

 NATURAL OCCUPATION NUMBERS (higher than 1.0E-05)
            1           2           3           4           5           6
    1   2.0000000   2.0000000   2.0000000   2.0000000   2.0000000   2.0000000
            7           8           9          10
    1   1.9791184   1.0076012   1.0000000   0.0132804

  Amplitudes : 
  
 | HOLE  | ALPHA | BETA  | PART  |    AMPLITUDE 
--------------------------------------------------
 |       | 1110  | 0100  |       |    -1.0670668253325E-01
 |       | 0111  | 0100  |       |     9.8902623663274E-01
--------------------------------------------------
*** Contributions RASCI wfn    Active: 100.00
                                 Hole:   0.00
                                 Part:   0.00

      Mulliken population analysis 
 ---------------------------------------------------
   Atom    Charge (a.u.)   Spin (a.u.)  
 ---------------------------------------------------
   1  N   -0.360405        1.613504 
   2  F    0.360405        0.386496 
 ---------------------------------------------------
   Sum:   -0.000000        2.000000 
 ---------------------------------------------------
 
*** Unpaired Electrons
 Yamaguchi Nd:         2.07
  
**************************************************
 RAS-CI total energy for state  14:   -150.568567617223
  Excitation energy (eV) = 32.103143401045
  State symmetry: B1    (C2v      )
  <S^2>      :  2.0000
  Dipole Moment:   -0.0000 X    -0.0000 Y     1.4681 Z
  Trans. Moment:   -0.0000 X    -0.0797 Y     0.0000 Z
  Strength   :  0.004991
  Natural transition orbitals ( 1 -> 14 ):
   e-/hole pair  1 alpha:  ampl =  0.205087 (  4.2%)   [4 : 5]
   e-/hole pair  2 alpha:  ampl =  0.000018 (  0.0%)   [3 : 6]
   e-/hole pair  1 beta :  ampl =  0.046789 (  0.2%)   [4 : 5]
   e-/hole pair  2 beta :  ampl =  0.000224 (  0.0%)   [3 : 6]
   Sum of square amplitudes: 0.04

 NATURAL OCCUPATION NUMBERS (higher than 1.0E-05)
            1           2           3           4           5           6
    1   2.0000000   2.0000000   2.0000000   2.0000000   2.0000000   2.0000000
            7           8           9          10
    1   1.9903785   1.0000000   0.9968699   0.0127516

  Amplitudes : 
  
 | HOLE  | ALPHA | BETA  | PART  |    AMPLITUDE 
--------------------------------------------------
 |       | 1101  | 1000  |       |     1.6751572736749E-01
 |       | 1101  | 0001  |       |     9.8263047257766E-01
--------------------------------------------------
*** Contributions RASCI wfn    Active: 100.00
                                 Hole:   0.00
                                 Part:   0.00

      Mulliken population analysis 
 ---------------------------------------------------
   Atom    Charge (a.u.)   Spin (a.u.)  
 ---------------------------------------------------
   1  N    0.499065        1.647849 
   2  F   -0.499065        0.352151 
 ---------------------------------------------------
   Sum:   -0.000000        2.000000 
 ---------------------------------------------------
 
*** Unpaired Electrons
 Yamaguchi Nd:         2.04
  
**************************************************
 RAS-CI total energy for state  15:   -150.568567617215
  Excitation energy (eV) = 32.103143401281
  State symmetry: B2    (C2v      )
  <S^2>      :  2.0000
  Dipole Moment:   -0.0000 X     0.0000 Y     1.4681 Z
  Trans. Moment:   -0.0797 X     0.0000 Y     0.0000 Z
  Strength   :  0.004991
  Natural transition orbitals ( 1 -> 15 ):
   e-/hole pair  1 alpha:  ampl =  0.205087 (  4.2%)   [4 : 5]
   e-/hole pair  2 alpha:  ampl =  0.000018 (  0.0%)   [3 : 6]
   e-/hole pair  1 beta :  ampl =  0.046789 (  0.2%)   [4 : 5]
   e-/hole pair  2 beta :  ampl =  0.000224 (  0.0%)   [3 : 6]
   Sum of square amplitudes: 0.04

 NATURAL OCCUPATION NUMBERS (higher than 1.0E-05)
            1           2           3           4           5           6
    1   2.0000000   2.0000000   2.0000000   2.0000000   2.0000000   2.0000000
            7           8           9          10
    1   1.9903785   1.0000000   0.9968699   0.0127516

  Amplitudes : 
  
 | HOLE  | ALPHA | BETA  | PART  |    AMPLITUDE 
--------------------------------------------------
 |       | 1011  | 1000  |       |     1.6751572737309E-01
 |       | 1011  | 0001  |       |     9.8263047257678E-01
--------------------------------------------------
*** Contributions RASCI wfn    Active: 100.00
                                 Hole:   0.00
                                 Part:   0.00

      Mulliken population analysis 
 ---------------------------------------------------
   Atom    Charge (a.u.)   Spin (a.u.)  
 ---------------------------------------------------
   1  N    0.499065        1.647849 
   2  F   -0.499065        0.352151 
 ---------------------------------------------------
   Sum:   -0.000000        2.000000 
 ---------------------------------------------------
 
*** Unpaired Electrons
 Yamaguchi Nd:         2.04
  
**************************************************
 RAS-CI total energy for state  16:   -150.285915609118
  Excitation energy (eV) = 39.794495865390
  State symmetry: A2    (C2v      )
  <S^2>      :  2.0000
  Dipole Moment:    0.0000 X     0.0000 Y     0.9071 Z
  Trans. Moment:   -0.0000 X     0.0000 Y     0.0703 Z
  Strength   :  0.004817
  Natural transition orbitals ( 1 -> 16 ):
   e-/hole pair  1 alpha:  ampl =  0.158515 (  2.5%)   [4 : 5]
   e-/hole pair  2 alpha:  ampl =  0.077296 (  0.6%)   [3 : 6]
   e-/hole pair  1 beta :  ampl =  0.157784 (  2.5%)   [4 : 5]
   e-/hole pair  2 beta :  ampl =  0.077654 (  0.6%)   [3 : 6]
   Sum of square amplitudes: 0.06

 NATURAL OCCUPATION NUMBERS (higher than 1.0E-05)
            1           2           3           4           5           6
    1   2.0000000   2.0000000   2.0000000   2.0000000   2.0000000   2.0000000
            7           8           9          10
    1   1.9766178   1.0000000   1.0000000   0.0233822

  Amplitudes : 
  
 | HOLE  | ALPHA | BETA  | PART  |    AMPLITUDE 
--------------------------------------------------
 |       | 1110  | 1000  |       |     1.1338771998065E-01
 |       | 0111  | 0001  |       |     9.8886652994913E-01
--------------------------------------------------
*** Contributions RASCI wfn    Active: 100.00
                                 Hole:   0.00
                                 Part:   0.00

      Mulliken population analysis 
 ---------------------------------------------------
   Atom    Charge (a.u.)   Spin (a.u.)  
 ---------------------------------------------------
   1  N    0.154289        1.861297 
   2  F   -0.154289        0.138703 
 ---------------------------------------------------
   Sum:   -0.000000        2.000000 
 ---------------------------------------------------
 
*** Unpaired Electrons
 Yamaguchi Nd:         2.09
  
--------------------------------------------------
 Interstate Transition Properties
--------------------------------------------------
State A: Root  1
State B: Root  2
  
Angular momentum components
< B | Lx | A > =    -1.089159263i
< B | Ly | A > =     0.000586229i
< B | Lz | A > =     0.000000000i
  
Norm of one-particle transition density matrix
||gamma^AB||_total       =  0.986037
||gamma^AB||_symmetrized =  0.697209
||gamma^AB||_anti-symm   =  0.697258
  
Spin-orbit couplings
 Using HF (reference) density for the 2-elec mean-field SOC contribution
KET: S',Sz' (Root   1) =  1.000 1.000
BRA: S ,Sz  (Root   2) =  1.000 1.000
Clebsh-Gordan coefficient: < 1.000, 1.000; 1.000, 0.000| 1.000, 1.000> =  0.707
 Computing 1e-SO integrals
 1e Reduced matrix elements (cm-1)
<S|| Hso(L-) ||S'> =     0.0285354835   -53.0162511795
<S|| Hso(L0) ||S'> =     0.0000000000     0.0000000000
<S|| Hso(L+) ||S'> =     0.0285354835    53.0162511795
 1-elec SOC matrix (cm-1): < B(S,Sz) | Hso(1e) | A(S',Sz') >
                     |Sz'=-1.00>              |Sz'= 0.00>              |Sz'= 1.00>
 <Sz=-1.00|   -0.000000   -0.000000i     0.020178   37.488151i     0.000000    0.000000i
 <Sz= 0.00|   -0.020178   37.488151i    -0.000000   -0.000000i     0.020178   37.488151i
 <Sz= 1.00|    0.000000   -0.000000i    -0.020178   37.488151i    -0.000000    0.000000i
1-elec SOCC =    74.976312305 cm-1
 Computing 2e-SOMF integrals
 Averagin spin alpha/beta reference densities
 2e-SOMF Reduced matrix elements (cm-1)
<S|| Hso(L-) ||S'> =    -0.0115376990    21.4359622782
<S|| Hso(L0) ||S'> =     0.0000000000    -0.0000000000
<S|| Hso(L+) ||S'> =    -0.0115376990   -21.4359622782
 2-elec mean-field SOC matrix (cm-1): < B(S,Sz) | Hso(2e-mf) | A(S',Sz') >
                     |Sz'=-1.00>              |Sz'= 0.00>              |Sz'= 1.00>
 <Sz=-1.00|    0.000000   -0.000000i    -0.008158  -15.157514i    -0.000000   -0.000000i
 <Sz= 0.00|    0.008158  -15.157514i     0.000000    0.000000i    -0.008158  -15.157514i
 <Sz= 1.00|   -0.000000    0.000000i     0.008158  -15.157514i     0.000000   -0.000000i
 Total mean-field SOC matrix (cm-1): < B(S,Sz) | Hsomf | A(S',Sz') >
                     |Sz'=-1.00>              |Sz'= 0.00>              |Sz'= 1.00>
 <Sz=-1.00|   -0.000000   -0.000000i     0.012019   22.330636i     0.000000    0.000000i
 <Sz= 0.00|   -0.012019   22.330636i    -0.000000   -0.000000i     0.012019   22.330636i
 <Sz= 1.00|    0.000000   -0.000000i    -0.012019   22.330636i    -0.000000    0.000000i
Mean-Field SOCC =    44.661279337 cm-1
   
**************************************************
State A: Root  1
State B: Root  3
  
Angular momentum components
< B | Lx | A > =    -0.000586229i
< B | Ly | A > =    -1.089159263i
< B | Lz | A > =    -0.000000000i
  
Norm of one-particle transition density matrix
||gamma^AB||_total       =  0.986037
||gamma^AB||_symmetrized =  0.697209
||gamma^AB||_anti-symm   =  0.697258
  
Spin-orbit couplings
 Using HF (reference) density for the 2-elec mean-field SOC contribution
KET: S',Sz' (Root   1) =  1.000 1.000
BRA: S ,Sz  (Root   3) =  1.000 1.000
Clebsh-Gordan coefficient: < 1.000, 1.000; 1.000, 0.000| 1.000, 1.000> =  0.707
 Reading 1e-SO integrals
 1e Reduced matrix elements (cm-1)
<S|| Hso(L-) ||S'> =   -53.0162511771    -0.0285354835
<S|| Hso(L0) ||S'> =     0.0000000000     0.0000000000
<S|| Hso(L+) ||S'> =   -53.0162511771     0.0285354835
 1-elec SOC matrix (cm-1): < B(S,Sz) | Hso(1e) | A(S',Sz') >
                     |Sz'=-1.00>              |Sz'= 0.00>              |Sz'= 1.00>
 <Sz=-1.00|    0.000000   -0.000000i   -37.488151    0.020178i    -0.000000    0.000000i
 <Sz= 0.00|   37.488151    0.020178i     0.000000   -0.000000i   -37.488151    0.020178i
 <Sz= 1.00|   -0.000000   -0.000000i    37.488151    0.020178i     0.000000    0.000000i
1-elec SOCC =    74.976312301 cm-1
 Reading 2e-SOMF integrals
 2e-SOMF Reduced matrix elements (cm-1)
<S|| Hso(L-) ||S'> =    21.4359622774     0.0115376990
<S|| Hso(L0) ||S'> =     0.0000000000    -0.0000000000
<S|| Hso(L+) ||S'> =    21.4359622774    -0.0115376990
 2-elec mean-field SOC matrix (cm-1): < B(S,Sz) | Hso(2e-mf) | A(S',Sz') >
                     |Sz'=-1.00>              |Sz'= 0.00>              |Sz'= 1.00>
 <Sz=-1.00|   -0.000000    0.000000i    15.157514   -0.008158i     0.000000   -0.000000i
 <Sz= 0.00|  -15.157514   -0.008158i    -0.000000    0.000000i    15.157514   -0.008158i
 <Sz= 1.00|    0.000000    0.000000i   -15.157514   -0.008158i    -0.000000   -0.000000i
 Total mean-field SOC matrix (cm-1): < B(S,Sz) | Hsomf | A(S',Sz') >
                     |Sz'=-1.00>              |Sz'= 0.00>              |Sz'= 1.00>
 <Sz=-1.00|    0.000000   -0.000000i   -22.330636    0.012019i    -0.000000    0.000000i
 <Sz= 0.00|   22.330636    0.012019i     0.000000   -0.000000i   -22.330636    0.012019i
 <Sz= 1.00|   -0.000000   -0.000000i    22.330636    0.012019i     0.000000    0.000000i
Mean-Field SOCC =    44.661279335 cm-1
   
**************************************************
State A: Root  1
State B: Root  4
  
Angular momentum components
< B | Lx | A > =    -0.386600161i
< B | Ly | A > =    -0.000016424i
< B | Lz | A > =     0.000000000i
  
Norm of one-particle transition density matrix
||gamma^AB||_total       =  0.978055
||gamma^AB||_symmetrized =  0.691618
||gamma^AB||_anti-symm   =  0.691561
  
Spin-orbit couplings
 Using HF (reference) density for the 2-elec mean-field SOC contribution
KET: S',Sz' (Root   1) =  1.000 1.000
BRA: S ,Sz  (Root   4) =  1.000 1.000
Clebsh-Gordan coefficient: < 1.000, 1.000; 1.000, 0.000| 1.000, 1.000> =  0.707
 Reading 1e-SO integrals
 1e Reduced matrix elements (cm-1)
<S|| Hso(L-) ||S'> =     0.0005828911    13.7206158695
<S|| Hso(L0) ||S'> =     0.0000000000    -0.0000000000
<S|| Hso(L+) ||S'> =     0.0005828911   -13.7206158695
 1-elec SOC matrix (cm-1): < B(S,Sz) | Hso(1e) | A(S',Sz') >
                     |Sz'=-1.00>              |Sz'= 0.00>              |Sz'= 1.00>
 <Sz=-1.00|   -0.000000   -0.000000i     0.000412   -9.701941i     0.000000   -0.000000i
 <Sz= 0.00|   -0.000412   -9.701941i    -0.000000    0.000000i     0.000412   -9.701941i
 <Sz= 1.00|    0.000000    0.000000i    -0.000412   -9.701941i    -0.000000   -0.000000i
1-elec SOCC =    19.403881064 cm-1
 Reading 2e-SOMF integrals
 2e-SOMF Reduced matrix elements (cm-1)
<S|| Hso(L-) ||S'> =    -0.0003403268    -8.0109191361
<S|| Hso(L0) ||S'> =     0.0000000000     0.0000000000
<S|| Hso(L+) ||S'> =    -0.0003403268     8.0109191361
 2-elec mean-field SOC matrix (cm-1): < B(S,Sz) | Hso(2e-mf) | A(S',Sz') >
                     |Sz'=-1.00>              |Sz'= 0.00>              |Sz'= 1.00>
 <Sz=-1.00|    0.000000    0.000000i    -0.000241    5.664575i    -0.000000    0.000000i
 <Sz= 0.00|    0.000241    5.664575i     0.000000   -0.000000i    -0.000241    5.664575i
 <Sz= 1.00|   -0.000000   -0.000000i     0.000241    5.664575i     0.000000    0.000000i
 Total mean-field SOC matrix (cm-1): < B(S,Sz) | Hsomf | A(S',Sz') >
                     |Sz'=-1.00>              |Sz'= 0.00>              |Sz'= 1.00>
 <Sz=-1.00|   -0.000000   -0.000000i     0.000172   -4.037365i     0.000000   -0.000000i
 <Sz= 0.00|   -0.000172   -4.037365i    -0.000000    0.000000i     0.000172   -4.037365i
 <Sz= 1.00|    0.000000    0.000000i    -0.000172   -4.037365i    -0.000000   -0.000000i
Mean-Field SOCC =     8.074730565 cm-1
   
**************************************************
State A: Root  1
State B: Root  5
  
Angular momentum components
< B | Lx | A > =    -0.000016424i
< B | Ly | A > =     0.386600161i
< B | Lz | A > =     0.000000000i
  
Norm of one-particle transition density matrix
||gamma^AB||_total       =  0.978055
||gamma^AB||_symmetrized =  0.691618
||gamma^AB||_anti-symm   =  0.691561
  
Spin-orbit couplings
 Using HF (reference) density for the 2-elec mean-field SOC contribution
KET: S',Sz' (Root   1) =  1.000 1.000
BRA: S ,Sz  (Root   5) =  1.000 1.000
Clebsh-Gordan coefficient: < 1.000, 1.000; 1.000, 0.000| 1.000, 1.000> =  0.707
 Reading 1e-SO integrals
 1e Reduced matrix elements (cm-1)
<S|| Hso(L-) ||S'> =   -13.7206158725     0.0005828911
<S|| Hso(L0) ||S'> =     0.0000000000     0.0000000000
<S|| Hso(L+) ||S'> =   -13.7206158725    -0.0005828911
 1-elec SOC matrix (cm-1): < B(S,Sz) | Hso(1e) | A(S',Sz') >
                     |Sz'=-1.00>              |Sz'= 0.00>              |Sz'= 1.00>
 <Sz=-1.00|    0.000000   -0.000000i    -9.701941   -0.000412i    -0.000000   -0.000000i
 <Sz= 0.00|    9.701941   -0.000412i     0.000000    0.000000i    -9.701941   -0.000412i
 <Sz= 1.00|   -0.000000    0.000000i     9.701941   -0.000412i     0.000000    0.000000i
1-elec SOCC =    19.403881068 cm-1
 Reading 2e-SOMF integrals
 2e-SOMF Reduced matrix elements (cm-1)
<S|| Hso(L-) ||S'> =     8.0109191372    -0.0003403268
<S|| Hso(L0) ||S'> =     0.0000000000    -0.0000000000
<S|| Hso(L+) ||S'> =     8.0109191372     0.0003403268
 2-elec mean-field SOC matrix (cm-1): < B(S,Sz) | Hso(2e-mf) | A(S',Sz') >
                     |Sz'=-1.00>              |Sz'= 0.00>              |Sz'= 1.00>
 <Sz=-1.00|   -0.000000    0.000000i     5.664575    0.000241i     0.000000    0.000000i
 <Sz= 0.00|   -5.664575    0.000241i    -0.000000   -0.000000i     5.664575    0.000241i
 <Sz= 1.00|    0.000000   -0.000000i    -5.664575    0.000241i    -0.000000   -0.000000i
 Total mean-field SOC matrix (cm-1): < B(S,Sz) | Hsomf | A(S',Sz') >
                     |Sz'=-1.00>              |Sz'= 0.00>              |Sz'= 1.00>
 <Sz=-1.00|    0.000000   -0.000000i    -4.037365   -0.000172i    -0.000000   -0.000000i
 <Sz= 0.00|    4.037365   -0.000172i     0.000000    0.000000i    -4.037365   -0.000172i
 <Sz= 1.00|   -0.000000    0.000000i     4.037365   -0.000172i     0.000000    0.000000i
Mean-Field SOCC =     8.074730567 cm-1
   
**************************************************
State A: Root  1
State B: Root  6
  
Angular momentum components
< B | Lx | A > =     0.000000000i
< B | Ly | A > =    -0.000000000i
< B | Lz | A > =     0.000000000i
  
Norm of one-particle transition density matrix
||gamma^AB||_total       =  0.707107
||gamma^AB||_symmetrized =  0.554073
||gamma^AB||_anti-symm   =  0.439321
  
Spin-orbit couplings
 Using HF (reference) density for the 2-elec mean-field SOC contribution
KET: S',Sz' (Root   1) =  1.000 1.000
BRA: S ,Sz  (Root   6) =  2.000 1.000
Clebsh-Gordan coefficient: < 1.000, 1.000; 1.000, 0.000| 2.000, 1.000> =  0.707
 Reading 1e-SO integrals
 1e Reduced matrix elements (cm-1)
<S|| Hso(L-) ||S'> =     0.0000000000    -0.0000000000
<S|| Hso(L0) ||S'> =     0.0000000000     0.0000000000
<S|| Hso(L+) ||S'> =     0.0000000000     0.0000000000
 1-elec SOC matrix (cm-1): < B(S,Sz) | Hso(1e) | A(S',Sz') >
                     |Sz'=-1.00>              |Sz'= 0.00>              |Sz'= 1.00>
 <Sz=-2.00|    0.000000    0.000000i     0.000000    0.000000i     0.000000    0.000000i
 <Sz=-1.00|    0.000000    0.000000i     0.000000    0.000000i     0.000000    0.000000i
 <Sz= 0.00|    0.000000   -0.000000i    -0.000000    0.000000i     0.000000    0.000000i
 <Sz= 1.00|    0.000000   -0.000000i     0.000000   -0.000000i     0.000000    0.000000i
 <Sz= 2.00|    0.000000    0.000000i     0.000000    0.000000i     0.000000   -0.000000i
1-elec SOCC =     0.000000000 cm-1
 Reading 2e-SOMF integrals
 2e-SOMF Reduced matrix elements (cm-1)
<S|| Hso(L-) ||S'> =    -0.0000000000     0.0000000000
<S|| Hso(L0) ||S'> =     0.0000000000    -0.0000000000
<S|| Hso(L+) ||S'> =    -0.0000000000    -0.0000000000
 2-elec mean-field SOC matrix (cm-1): < B(S,Sz) | Hso(2e-mf) | A(S',Sz') >
                     |Sz'=-1.00>              |Sz'= 0.00>              |Sz'= 1.00>
 <Sz=-2.00|   -0.000000   -0.000000i     0.000000    0.000000i     0.000000    0.000000i
 <Sz=-1.00|   -0.000000   -0.000000i    -0.000000   -0.000000i    -0.000000   -0.000000i
 <Sz= 0.00|   -0.000000    0.000000i     0.000000   -0.000000i    -0.000000   -0.000000i
 <Sz= 1.00|   -0.000000    0.000000i    -0.000000    0.000000i    -0.000000   -0.000000i
 <Sz= 2.00|    0.000000    0.000000i     0.000000    0.000000i    -0.000000    0.000000i
 Total mean-field SOC matrix (cm-1): < B(S,Sz) | Hsomf | A(S',Sz') >
                     |Sz'=-1.00>              |Sz'= 0.00>              |Sz'= 1.00>
 <Sz=-2.00|    0.000000    0.000000i     0.000000    0.000000i     0.000000    0.000000i
 <Sz=-1.00|    0.000000    0.000000i     0.000000    0.000000i     0.000000    0.000000i
 <Sz= 0.00|    0.000000   -0.000000i    -0.000000    0.000000i     0.000000    0.000000i
 <Sz= 1.00|    0.000000   -0.000000i     0.000000   -0.000000i     0.000000    0.000000i
 <Sz= 2.00|    0.000000    0.000000i     0.000000    0.000000i     0.000000   -0.000000i
Mean-Field SOCC =     0.000000000 cm-1
   
**************************************************
State A: Root  1
State B: Root  7
  
Angular momentum components
< B | Lx | A > =     0.000000000i
< B | Ly | A > =     0.000000000i
< B | Lz | A > =    -0.000000000i
  
Norm of one-particle transition density matrix
||gamma^AB||_total       =  0.000318
||gamma^AB||_symmetrized =  0.000318
||gamma^AB||_anti-symm   =  0.000000
  
Spin-orbit couplings
 Using HF (reference) density for the 2-elec mean-field SOC contribution
KET: S',Sz' (Root   1) =  1.000 1.000
BRA: S ,Sz  (Root   7) =  1.000 1.000
Clebsh-Gordan coefficient: < 1.000, 1.000; 1.000, 0.000| 1.000, 1.000> =  0.707
 Reading 1e-SO integrals
 1e Reduced matrix elements (cm-1)
<S|| Hso(L-) ||S'> =    -0.0000000000    -0.0000000000
<S|| Hso(L0) ||S'> =     0.0000000000     0.0000000000
<S|| Hso(L+) ||S'> =    -0.0000000000     0.0000000000
 1-elec SOC matrix (cm-1): < B(S,Sz) | Hso(1e) | A(S',Sz') >
                     |Sz'=-1.00>              |Sz'= 0.00>              |Sz'= 1.00>
 <Sz=-1.00|    0.000000   -0.000000i    -0.000000    0.000000i    -0.000000    0.000000i
 <Sz= 0.00|    0.000000    0.000000i     0.000000   -0.000000i    -0.000000    0.000000i
 <Sz= 1.00|   -0.000000   -0.000000i     0.000000    0.000000i     0.000000    0.000000i
1-elec SOCC =     0.000000000 cm-1
 Reading 2e-SOMF integrals
 2e-SOMF Reduced matrix elements (cm-1)
<S|| Hso(L-) ||S'> =     0.0000000000     0.0000000000
<S|| Hso(L0) ||S'> =     0.0000000000    -0.0000000000
<S|| Hso(L+) ||S'> =     0.0000000000    -0.0000000000
 2-elec mean-field SOC matrix (cm-1): < B(S,Sz) | Hso(2e-mf) | A(S',Sz') >
                     |Sz'=-1.00>              |Sz'= 0.00>              |Sz'= 1.00>
 <Sz=-1.00|   -0.000000    0.000000i     0.000000   -0.000000i     0.000000   -0.000000i
 <Sz= 0.00|   -0.000000   -0.000000i    -0.000000    0.000000i     0.000000   -0.000000i
 <Sz= 1.00|    0.000000    0.000000i    -0.000000   -0.000000i    -0.000000   -0.000000i
 Total mean-field SOC matrix (cm-1): < B(S,Sz) | Hsomf | A(S',Sz') >
                     |Sz'=-1.00>              |Sz'= 0.00>              |Sz'= 1.00>
 <Sz=-1.00|    0.000000   -0.000000i    -0.000000    0.000000i    -0.000000    0.000000i
 <Sz= 0.00|    0.000000    0.000000i     0.000000   -0.000000i    -0.000000    0.000000i
 <Sz= 1.00|   -0.000000   -0.000000i     0.000000    0.000000i     0.000000    0.000000i
Mean-Field SOCC =     0.000000000 cm-1
   
**************************************************
State A: Root  1
State B: Root  8
  
Angular momentum components
< B | Lx | A > =     0.000000000i
< B | Ly | A > =     0.000000000i
< B | Lz | A > =    -0.000000000i
  
Norm of one-particle transition density matrix
||gamma^AB||_total       =  0.000318
||gamma^AB||_symmetrized =  0.000318
||gamma^AB||_anti-symm   =  0.000000
  
Spin-orbit couplings
 Using HF (reference) density for the 2-elec mean-field SOC contribution
KET: S',Sz' (Root   1) =  1.000 1.000
BRA: S ,Sz  (Root   8) =  1.000 1.000
Clebsh-Gordan coefficient: < 1.000, 1.000; 1.000, 0.000| 1.000, 1.000> =  0.707
 Reading 1e-SO integrals
 1e Reduced matrix elements (cm-1)
<S|| Hso(L-) ||S'> =    -0.0000000000     0.0000000000
<S|| Hso(L0) ||S'> =     0.0000000000     0.0000000000
<S|| Hso(L+) ||S'> =    -0.0000000000    -0.0000000000
 1-elec SOC matrix (cm-1): < B(S,Sz) | Hso(1e) | A(S',Sz') >
                     |Sz'=-1.00>              |Sz'= 0.00>              |Sz'= 1.00>
 <Sz=-1.00|    0.000000   -0.000000i    -0.000000   -0.000000i    -0.000000    0.000000i
 <Sz= 0.00|    0.000000   -0.000000i     0.000000    0.000000i    -0.000000   -0.000000i
 <Sz= 1.00|   -0.000000    0.000000i     0.000000   -0.000000i     0.000000    0.000000i
1-elec SOCC =     0.000000000 cm-1
 Reading 2e-SOMF integrals
 2e-SOMF Reduced matrix elements (cm-1)
<S|| Hso(L-) ||S'> =     0.0000000000    -0.0000000000
<S|| Hso(L0) ||S'> =     0.0000000000    -0.0000000000
<S|| Hso(L+) ||S'> =     0.0000000000     0.0000000000
 2-elec mean-field SOC matrix (cm-1): < B(S,Sz) | Hso(2e-mf) | A(S',Sz') >
                     |Sz'=-1.00>              |Sz'= 0.00>              |Sz'= 1.00>
 <Sz=-1.00|   -0.000000    0.000000i     0.000000    0.000000i     0.000000   -0.000000i
 <Sz= 0.00|   -0.000000    0.000000i    -0.000000   -0.000000i     0.000000    0.000000i
 <Sz= 1.00|    0.000000   -0.000000i    -0.000000    0.000000i    -0.000000   -0.000000i
 Total mean-field SOC matrix (cm-1): < B(S,Sz) | Hsomf | A(S',Sz') >
                     |Sz'=-1.00>              |Sz'= 0.00>              |Sz'= 1.00>
 <Sz=-1.00|    0.000000   -0.000000i    -0.000000   -0.000000i    -0.000000    0.000000i
 <Sz= 0.00|    0.000000   -0.000000i     0.000000    0.000000i    -0.000000   -0.000000i
 <Sz= 1.00|   -0.000000    0.000000i     0.000000   -0.000000i     0.000000    0.000000i
Mean-Field SOCC =     0.000000000 cm-1
   
**************************************************
State A: Root  1
State B: Root  9
  
Angular momentum components
< B | Lx | A > =     0.000000000i
< B | Ly | A > =    -0.000000000i
< B | Lz | A > =    -0.000000000i
  
Norm of one-particle transition density matrix
||gamma^AB||_total       =  0.708137
||gamma^AB||_symmetrized =  0.554277
||gamma^AB||_anti-symm   =  0.440720
  
Spin-orbit couplings
 Using HF (reference) density for the 2-elec mean-field SOC contribution
KET: S',Sz' (Root   1) =  1.000 1.000
BRA: S ,Sz  (Root   9) =  1.000 1.000
Clebsh-Gordan coefficient: < 1.000, 1.000; 1.000, 0.000| 1.000, 1.000> =  0.707
 Reading 1e-SO integrals
 1e Reduced matrix elements (cm-1)
<S|| Hso(L-) ||S'> =     0.0000000000    -0.0000000000
<S|| Hso(L0) ||S'> =     0.0000000000    -0.0000000000
<S|| Hso(L+) ||S'> =     0.0000000000     0.0000000000
 1-elec SOC matrix (cm-1): < B(S,Sz) | Hso(1e) | A(S',Sz') >
                     |Sz'=-1.00>              |Sz'= 0.00>              |Sz'= 1.00>
 <Sz=-1.00|   -0.000000    0.000000i     0.000000    0.000000i     0.000000    0.000000i
 <Sz= 0.00|   -0.000000    0.000000i    -0.000000   -0.000000i     0.000000    0.000000i
 <Sz= 1.00|    0.000000   -0.000000i    -0.000000    0.000000i    -0.000000   -0.000000i
1-elec SOCC =     0.000000000 cm-1
 Reading 2e-SOMF integrals
 2e-SOMF Reduced matrix elements (cm-1)
<S|| Hso(L-) ||S'> =    -0.0000000000     0.0000000000
<S|| Hso(L0) ||S'> =     0.0000000000     0.0000000000
<S|| Hso(L+) ||S'> =    -0.0000000000    -0.0000000000
 2-elec mean-field SOC matrix (cm-1): < B(S,Sz) | Hso(2e-mf) | A(S',Sz') >
                     |Sz'=-1.00>              |Sz'= 0.00>              |Sz'= 1.00>
 <Sz=-1.00|    0.000000   -0.000000i    -0.000000   -0.000000i    -0.000000   -0.000000i
 <Sz= 0.00|    0.000000   -0.000000i     0.000000    0.000000i    -0.000000   -0.000000i
 <Sz= 1.00|   -0.000000    0.000000i     0.000000   -0.000000i     0.000000    0.000000i
 Total mean-field SOC matrix (cm-1): < B(S,Sz) | Hsomf | A(S',Sz') >
                     |Sz'=-1.00>              |Sz'= 0.00>              |Sz'= 1.00>
 <Sz=-1.00|   -0.000000    0.000000i     0.000000    0.000000i     0.000000    0.000000i
 <Sz= 0.00|   -0.000000    0.000000i    -0.000000   -0.000000i     0.000000    0.000000i
 <Sz= 1.00|    0.000000   -0.000000i    -0.000000    0.000000i    -0.000000   -0.000000i
Mean-Field SOCC =     0.000000000 cm-1
   
**************************************************
State A: Root  1
State B: Root 10
  
Angular momentum components
< B | Lx | A > =    -0.000000000i
< B | Ly | A > =    -0.000000000i
< B | Lz | A > =     0.000000000i
  
Norm of one-particle transition density matrix
||gamma^AB||_total       =  0.000318
||gamma^AB||_symmetrized =  0.000000
||gamma^AB||_anti-symm   =  0.000318
  
Spin-orbit couplings
 Using HF (reference) density for the 2-elec mean-field SOC contribution
KET: S',Sz' (Root   1) =  1.000 1.000
BRA: S ,Sz  (Root  10) =  1.000 1.000
Clebsh-Gordan coefficient: < 1.000, 1.000; 1.000, 0.000| 1.000, 1.000> =  0.707
 Reading 1e-SO integrals
 1e Reduced matrix elements (cm-1)
<S|| Hso(L-) ||S'> =     0.0000000000    -0.0000000000
<S|| Hso(L0) ||S'> =     0.0000000000     0.0537906365
<S|| Hso(L+) ||S'> =     0.0000000000     0.0000000000
 1-elec SOC matrix (cm-1): < B(S,Sz) | Hso(1e) | A(S',Sz') >
                     |Sz'=-1.00>              |Sz'= 0.00>              |Sz'= 1.00>
 <Sz=-1.00|   -0.000000   -0.038036i     0.000000    0.000000i     0.000000    0.000000i
 <Sz= 0.00|   -0.000000    0.000000i    -0.000000    0.000000i     0.000000    0.000000i
 <Sz= 1.00|    0.000000    0.000000i    -0.000000    0.000000i    -0.000000    0.038036i
1-elec SOCC =     0.053790637 cm-1
 Reading 2e-SOMF integrals
 2e-SOMF Reduced matrix elements (cm-1)
<S|| Hso(L-) ||S'> =    -0.0000000000    -0.0000000000
<S|| Hso(L0) ||S'> =     0.0000000000    -0.0229874618
<S|| Hso(L+) ||S'> =    -0.0000000000     0.0000000000
 2-elec mean-field SOC matrix (cm-1): < B(S,Sz) | Hso(2e-mf) | A(S',Sz') >
                     |Sz'=-1.00>              |Sz'= 0.00>              |Sz'= 1.00>
 <Sz=-1.00|    0.000000    0.016255i    -0.000000    0.000000i    -0.000000   -0.000000i
 <Sz= 0.00|    0.000000    0.000000i     0.000000   -0.000000i    -0.000000    0.000000i
 <Sz= 1.00|   -0.000000   -0.000000i     0.000000    0.000000i     0.000000   -0.016255i
 Total mean-field SOC matrix (cm-1): < B(S,Sz) | Hsomf | A(S',Sz') >
                     |Sz'=-1.00>              |Sz'= 0.00>              |Sz'= 1.00>
 <Sz=-1.00|   -0.000000   -0.021781i     0.000000    0.000000i     0.000000    0.000000i
 <Sz= 0.00|   -0.000000    0.000000i    -0.000000    0.000000i     0.000000    0.000000i
 <Sz= 1.00|    0.000000    0.000000i    -0.000000    0.000000i    -0.000000    0.021781i
Mean-Field SOCC =     0.030803175 cm-1
   
**************************************************
State A: Root  1
State B: Root 11
  
Angular momentum components
< B | Lx | A > =    -0.000000000i
< B | Ly | A > =     0.000000000i
< B | Lz | A > =     0.000000000i
  
Norm of one-particle transition density matrix
||gamma^AB||_total       =  0.994230
||gamma^AB||_symmetrized =  0.618255
||gamma^AB||_anti-symm   =  0.778623
  
Spin-orbit couplings
 Using HF (reference) density for the 2-elec mean-field SOC contribution
KET: S',Sz' (Root   1) =  1.000 1.000
BRA: S ,Sz  (Root  11) =  1.000 1.000
Clebsh-Gordan coefficient: < 1.000, 1.000; 1.000, 0.000| 1.000, 1.000> =  0.707
 Reading 1e-SO integrals
 1e Reduced matrix elements (cm-1)
<S|| Hso(L-) ||S'> =    -0.0000000000     0.0000000000
<S|| Hso(L0) ||S'> =     0.0000000000     0.0000000000
<S|| Hso(L+) ||S'> =    -0.0000000000    -0.0000000000
 1-elec SOC matrix (cm-1): < B(S,Sz) | Hso(1e) | A(S',Sz') >
                     |Sz'=-1.00>              |Sz'= 0.00>              |Sz'= 1.00>
 <Sz=-1.00|    0.000000   -0.000000i    -0.000000   -0.000000i    -0.000000   -0.000000i
 <Sz= 0.00|    0.000000   -0.000000i     0.000000    0.000000i    -0.000000   -0.000000i
 <Sz= 1.00|   -0.000000    0.000000i     0.000000   -0.000000i     0.000000    0.000000i
1-elec SOCC =     0.000000000 cm-1
 Reading 2e-SOMF integrals
 2e-SOMF Reduced matrix elements (cm-1)
<S|| Hso(L-) ||S'> =     0.0000000000    -0.0000000000
<S|| Hso(L0) ||S'> =     0.0000000000    -0.0000000000
<S|| Hso(L+) ||S'> =     0.0000000000     0.0000000000
 2-elec mean-field SOC matrix (cm-1): < B(S,Sz) | Hso(2e-mf) | A(S',Sz') >
                     |Sz'=-1.00>              |Sz'= 0.00>              |Sz'= 1.00>
 <Sz=-1.00|   -0.000000    0.000000i     0.000000    0.000000i     0.000000    0.000000i
 <Sz= 0.00|   -0.000000    0.000000i    -0.000000   -0.000000i     0.000000    0.000000i
 <Sz= 1.00|    0.000000   -0.000000i    -0.000000    0.000000i    -0.000000   -0.000000i
 Total mean-field SOC matrix (cm-1): < B(S,Sz) | Hsomf | A(S',Sz') >
                     |Sz'=-1.00>              |Sz'= 0.00>              |Sz'= 1.00>
 <Sz=-1.00|    0.000000   -0.000000i    -0.000000   -0.000000i    -0.000000   -0.000000i
 <Sz= 0.00|    0.000000   -0.000000i     0.000000    0.000000i    -0.000000   -0.000000i
 <Sz= 1.00|   -0.000000    0.000000i     0.000000   -0.000000i     0.000000    0.000000i
Mean-Field SOCC =     0.000000000 cm-1
   
**************************************************
State A: Root  1
State B: Root 12
  
Angular momentum components
< B | Lx | A > =     0.091715129i
< B | Ly | A > =    -0.000006032i
< B | Lz | A > =     0.000000000i
  
Norm of one-particle transition density matrix
||gamma^AB||_total       =  0.163980
||gamma^AB||_symmetrized =  0.115957
||gamma^AB||_anti-symm   =  0.115946
  
Spin-orbit couplings
 Using HF (reference) density for the 2-elec mean-field SOC contribution
KET: S',Sz' (Root   1) =  1.000 1.000
BRA: S ,Sz  (Root  12) =  1.000 1.000
Clebsh-Gordan coefficient: < 1.000, 1.000; 1.000, 0.000| 1.000, 1.000> =  0.707
 Reading 1e-SO integrals
 1e Reduced matrix elements (cm-1)
<S|| Hso(L-) ||S'> =    -0.0002372321     3.6070190818
<S|| Hso(L0) ||S'> =     0.0000000000    -0.0000000000
<S|| Hso(L+) ||S'> =    -0.0002372321    -3.6070190818
 1-elec SOC matrix (cm-1): < B(S,Sz) | Hso(1e) | A(S',Sz') >
                     |Sz'=-1.00>              |Sz'= 0.00>              |Sz'= 1.00>
 <Sz=-1.00|    0.000000    0.000000i    -0.000168   -2.550548i    -0.000000   -0.000000i
 <Sz= 0.00|    0.000168   -2.550548i     0.000000    0.000000i    -0.000168   -2.550548i
 <Sz= 1.00|   -0.000000    0.000000i     0.000168   -2.550548i     0.000000   -0.000000i
1-elec SOCC =     5.101095316 cm-1
 Reading 2e-SOMF integrals
 2e-SOMF Reduced matrix elements (cm-1)
<S|| Hso(L-) ||S'> =     0.0000677207    -1.0296662191
<S|| Hso(L0) ||S'> =     0.0000000000     0.0000000000
<S|| Hso(L+) ||S'> =     0.0000677207     1.0296662191
 2-elec mean-field SOC matrix (cm-1): < B(S,Sz) | Hso(2e-mf) | A(S',Sz') >
                     |Sz'=-1.00>              |Sz'= 0.00>              |Sz'= 1.00>
 <Sz=-1.00|   -0.000000   -0.000000i     0.000048    0.728084i     0.000000    0.000000i
 <Sz= 0.00|   -0.000048    0.728084i    -0.000000   -0.000000i     0.000048    0.728084i
 <Sz= 1.00|    0.000000   -0.000000i    -0.000048    0.728084i    -0.000000    0.000000i
 Total mean-field SOC matrix (cm-1): < B(S,Sz) | Hsomf | A(S',Sz') >
                     |Sz'=-1.00>              |Sz'= 0.00>              |Sz'= 1.00>
 <Sz=-1.00|    0.000000    0.000000i    -0.000120   -1.822464i    -0.000000   -0.000000i
 <Sz= 0.00|    0.000120   -1.822464i     0.000000    0.000000i    -0.000120   -1.822464i
 <Sz= 1.00|   -0.000000    0.000000i     0.000120   -1.822464i     0.000000   -0.000000i
Mean-Field SOCC =     3.644927381 cm-1
   
**************************************************
State A: Root  1
State B: Root 13
  
Angular momentum components
< B | Lx | A > =     0.000006032i
< B | Ly | A > =     0.091715129i
< B | Lz | A > =    -0.000000000i
  
Norm of one-particle transition density matrix
||gamma^AB||_total       =  0.163980
||gamma^AB||_symmetrized =  0.115957
||gamma^AB||_anti-symm   =  0.115946
  
Spin-orbit couplings
 Using HF (reference) density for the 2-elec mean-field SOC contribution
KET: S',Sz' (Root   1) =  1.000 1.000
BRA: S ,Sz  (Root  13) =  1.000 1.000
Clebsh-Gordan coefficient: < 1.000, 1.000; 1.000, 0.000| 1.000, 1.000> =  0.707
 Reading 1e-SO integrals
 1e Reduced matrix elements (cm-1)
<S|| Hso(L-) ||S'> =     3.6070190814     0.0002372321
<S|| Hso(L0) ||S'> =     0.0000000000     0.0000000000
<S|| Hso(L+) ||S'> =     3.6070190814    -0.0002372321
 1-elec SOC matrix (cm-1): < B(S,Sz) | Hso(1e) | A(S',Sz') >
                     |Sz'=-1.00>              |Sz'= 0.00>              |Sz'= 1.00>
 <Sz=-1.00|   -0.000000   -0.000000i     2.550548   -0.000168i     0.000000   -0.000000i
 <Sz= 0.00|   -2.550548   -0.000168i    -0.000000    0.000000i     2.550548   -0.000168i
 <Sz= 1.00|    0.000000    0.000000i    -2.550548   -0.000168i    -0.000000    0.000000i
1-elec SOCC =     5.101095316 cm-1
 Reading 2e-SOMF integrals
 2e-SOMF Reduced matrix elements (cm-1)
<S|| Hso(L-) ||S'> =    -1.0296662190    -0.0000677207
<S|| Hso(L0) ||S'> =     0.0000000000    -0.0000000000
<S|| Hso(L+) ||S'> =    -1.0296662190     0.0000677207
 2-elec mean-field SOC matrix (cm-1): < B(S,Sz) | Hso(2e-mf) | A(S',Sz') >
                     |Sz'=-1.00>              |Sz'= 0.00>              |Sz'= 1.00>
 <Sz=-1.00|    0.000000    0.000000i    -0.728084    0.000048i    -0.000000    0.000000i
 <Sz= 0.00|    0.728084    0.000048i     0.000000   -0.000000i    -0.728084    0.000048i
 <Sz= 1.00|   -0.000000   -0.000000i     0.728084    0.000048i     0.000000   -0.000000i
 Total mean-field SOC matrix (cm-1): < B(S,Sz) | Hsomf | A(S',Sz') >
                     |Sz'=-1.00>              |Sz'= 0.00>              |Sz'= 1.00>
 <Sz=-1.00|   -0.000000   -0.000000i     1.822464   -0.000120i     0.000000   -0.000000i
 <Sz= 0.00|   -1.822464   -0.000120i    -0.000000    0.000000i     1.822464   -0.000120i
 <Sz= 1.00|    0.000000    0.000000i    -1.822464   -0.000120i    -0.000000    0.000000i
Mean-Field SOCC =     3.644927381 cm-1
   
**************************************************
State A: Root  1
State B: Root 14
  
Angular momentum components
< B | Lx | A > =    -0.006814805i
< B | Ly | A > =     0.000001142i
< B | Lz | A > =     0.000000000i
  
Norm of one-particle transition density matrix
||gamma^AB||_total       =  0.210356
||gamma^AB||_symmetrized =  0.148721
||gamma^AB||_anti-symm   =  0.148767
  
Spin-orbit couplings
 Using HF (reference) density for the 2-elec mean-field SOC contribution
KET: S',Sz' (Root   1) =  1.000 1.000
BRA: S ,Sz  (Root  14) =  1.000 1.000
Clebsh-Gordan coefficient: < 1.000, 1.000; 1.000, 0.000| 1.000, 1.000> =  0.707
 Reading 1e-SO integrals
 1e Reduced matrix elements (cm-1)
<S|| Hso(L-) ||S'> =     0.0012181385    -7.2698254933
<S|| Hso(L0) ||S'> =     0.0000000000     0.0000000000
<S|| Hso(L+) ||S'> =     0.0012181385     7.2698254933
 1-elec SOC matrix (cm-1): < B(S,Sz) | Hso(1e) | A(S',Sz') >
                     |Sz'=-1.00>              |Sz'= 0.00>              |Sz'= 1.00>
 <Sz=-1.00|   -0.000000   -0.000000i     0.000861    5.140543i     0.000000    0.000000i
 <Sz= 0.00|   -0.000861    5.140543i    -0.000000   -0.000000i     0.000861    5.140543i
 <Sz= 1.00|    0.000000   -0.000000i    -0.000861    5.140543i    -0.000000    0.000000i
1-elec SOCC =    10.281085953 cm-1
 Reading 2e-SOMF integrals
 2e-SOMF Reduced matrix elements (cm-1)
<S|| Hso(L-) ||S'> =    -0.0004208928     2.5118795913
<S|| Hso(L0) ||S'> =     0.0000000000    -0.0000000000
<S|| Hso(L+) ||S'> =    -0.0004208928    -2.5118795913
 2-elec mean-field SOC matrix (cm-1): < B(S,Sz) | Hso(2e-mf) | A(S',Sz') >
                     |Sz'=-1.00>              |Sz'= 0.00>              |Sz'= 1.00>
 <Sz=-1.00|    0.000000    0.000000i    -0.000298   -1.776167i    -0.000000   -0.000000i
 <Sz= 0.00|    0.000298   -1.776167i     0.000000    0.000000i    -0.000298   -1.776167i
 <Sz= 1.00|   -0.000000    0.000000i     0.000298   -1.776167i     0.000000   -0.000000i
 Total mean-field SOC matrix (cm-1): < B(S,Sz) | Hsomf | A(S',Sz') >
                     |Sz'=-1.00>              |Sz'= 0.00>              |Sz'= 1.00>
 <Sz=-1.00|   -0.000000   -0.000000i     0.000564    3.364376i     0.000000    0.000000i
 <Sz= 0.00|   -0.000564    3.364376i    -0.000000   -0.000000i     0.000564    3.364376i
 <Sz= 1.00|    0.000000   -0.000000i    -0.000564    3.364376i    -0.000000    0.000000i
Mean-Field SOCC =     6.728751718 cm-1
   
**************************************************
State A: Root  1
State B: Root 15
  
Angular momentum components
< B | Lx | A > =     0.000001142i
< B | Ly | A > =     0.006814805i
< B | Lz | A > =    -0.000000000i
  
Norm of one-particle transition density matrix
||gamma^AB||_total       =  0.210356
||gamma^AB||_symmetrized =  0.148721
||gamma^AB||_anti-symm   =  0.148767
  
Spin-orbit couplings
 Using HF (reference) density for the 2-elec mean-field SOC contribution
KET: S',Sz' (Root   1) =  1.000 1.000
BRA: S ,Sz  (Root  15) =  1.000 1.000
Clebsh-Gordan coefficient: < 1.000, 1.000; 1.000, 0.000| 1.000, 1.000> =  0.707
 Reading 1e-SO integrals
 1e Reduced matrix elements (cm-1)
<S|| Hso(L-) ||S'> =     7.2698254923     0.0012181385
<S|| Hso(L0) ||S'> =     0.0000000000    -0.0000000000
<S|| Hso(L+) ||S'> =     7.2698254923    -0.0012181385
 1-elec SOC matrix (cm-1): < B(S,Sz) | Hso(1e) | A(S',Sz') >
                     |Sz'=-1.00>              |Sz'= 0.00>              |Sz'= 1.00>
 <Sz=-1.00|   -0.000000    0.000000i     5.140543   -0.000861i     0.000000   -0.000000i
 <Sz= 0.00|   -5.140543   -0.000861i    -0.000000    0.000000i     5.140543   -0.000861i
 <Sz= 1.00|    0.000000    0.000000i    -5.140543   -0.000861i    -0.000000   -0.000000i
1-elec SOCC =    10.281085952 cm-1
 Reading 2e-SOMF integrals
 2e-SOMF Reduced matrix elements (cm-1)
<S|| Hso(L-) ||S'> =    -2.5118795909    -0.0004208928
<S|| Hso(L0) ||S'> =     0.0000000000     0.0000000000
<S|| Hso(L+) ||S'> =    -2.5118795909     0.0004208928
 2-elec mean-field SOC matrix (cm-1): < B(S,Sz) | Hso(2e-mf) | A(S',Sz') >
                     |Sz'=-1.00>              |Sz'= 0.00>              |Sz'= 1.00>
 <Sz=-1.00|    0.000000   -0.000000i    -1.776167    0.000298i    -0.000000    0.000000i
 <Sz= 0.00|    1.776167    0.000298i     0.000000   -0.000000i    -1.776167    0.000298i
 <Sz= 1.00|   -0.000000   -0.000000i     1.776167    0.000298i     0.000000    0.000000i
 Total mean-field SOC matrix (cm-1): < B(S,Sz) | Hsomf | A(S',Sz') >
                     |Sz'=-1.00>              |Sz'= 0.00>              |Sz'= 1.00>
 <Sz=-1.00|   -0.000000    0.000000i     3.364376   -0.000564i     0.000000   -0.000000i
 <Sz= 0.00|   -3.364376   -0.000564i    -0.000000    0.000000i     3.364376   -0.000564i
 <Sz= 1.00|    0.000000    0.000000i    -3.364376   -0.000564i    -0.000000   -0.000000i
Mean-Field SOCC =     6.728751717 cm-1
   
**************************************************
State A: Root  1
State B: Root 16
  
Angular momentum components
< B | Lx | A > =     0.000000000i
< B | Ly | A > =     0.000000000i
< B | Lz | A > =    -0.000000000i
  
Norm of one-particle transition density matrix
||gamma^AB||_total       =  0.249054
||gamma^AB||_symmetrized =  0.235625
||gamma^AB||_anti-symm   =  0.080677
  
Spin-orbit couplings
 Using HF (reference) density for the 2-elec mean-field SOC contribution
KET: S',Sz' (Root   1) =  1.000 1.000
BRA: S ,Sz  (Root  16) =  1.000 1.000
Clebsh-Gordan coefficient: < 1.000, 1.000; 1.000, 0.000| 1.000, 1.000> =  0.707
 Reading 1e-SO integrals
 1e Reduced matrix elements (cm-1)
<S|| Hso(L-) ||S'> =     0.0000000000    -0.0000000000
<S|| Hso(L0) ||S'> =     0.0000000000     0.0000000000
<S|| Hso(L+) ||S'> =     0.0000000000     0.0000000000
 1-elec SOC matrix (cm-1): < B(S,Sz) | Hso(1e) | A(S',Sz') >
                     |Sz'=-1.00>              |Sz'= 0.00>              |Sz'= 1.00>
 <Sz=-1.00|   -0.000000   -0.000000i     0.000000    0.000000i     0.000000    0.000000i
 <Sz= 0.00|   -0.000000    0.000000i    -0.000000   -0.000000i     0.000000    0.000000i
 <Sz= 1.00|    0.000000   -0.000000i    -0.000000    0.000000i    -0.000000    0.000000i
1-elec SOCC =     0.000000000 cm-1
 Reading 2e-SOMF integrals
 2e-SOMF Reduced matrix elements (cm-1)
<S|| Hso(L-) ||S'> =    -0.0000000000    -0.0000000000
<S|| Hso(L0) ||S'> =     0.0000000000    -0.0000000000
<S|| Hso(L+) ||S'> =    -0.0000000000     0.0000000000
 2-elec mean-field SOC matrix (cm-1): < B(S,Sz) | Hso(2e-mf) | A(S',Sz') >
                     |Sz'=-1.00>              |Sz'= 0.00>              |Sz'= 1.00>
 <Sz=-1.00|    0.000000    0.000000i    -0.000000    0.000000i    -0.000000    0.000000i
 <Sz= 0.00|    0.000000    0.000000i     0.000000   -0.000000i    -0.000000    0.000000i
 <Sz= 1.00|   -0.000000   -0.000000i     0.000000    0.000000i     0.000000   -0.000000i
 Total mean-field SOC matrix (cm-1): < B(S,Sz) | Hsomf | A(S',Sz') >
                     |Sz'=-1.00>              |Sz'= 0.00>              |Sz'= 1.00>
 <Sz=-1.00|   -0.000000   -0.000000i     0.000000    0.000000i     0.000000    0.000000i
 <Sz= 0.00|   -0.000000    0.000000i    -0.000000   -0.000000i     0.000000    0.000000i
 <Sz= 1.00|    0.000000   -0.000000i    -0.000000    0.000000i    -0.000000    0.000000i
Mean-Field SOCC =     0.000000000 cm-1
   
**************************************************
State A: Root  2
State B: Root  1
  
Angular momentum components
< B | Lx | A > =     1.089159263i
< B | Ly | A > =    -0.000586229i
< B | Lz | A > =    -0.000000000i
  
Norm of one-particle transition density matrix
[...]
<S|| Hso(L+) ||S'> =     0.0000000000     0.0000000000
 1-elec SOC matrix (cm-1): < B(S,Sz) | Hso(1e) | A(S',Sz') >
                     |Sz'=-1.00>              |Sz'= 0.00>              |Sz'= 1.00>
 <Sz=-1.00|   -0.000000   -0.000000i     0.000000    0.000000i     0.000000    0.000000i
 <Sz= 0.00|   -0.000000    0.000000i    -0.000000   -0.000000i     0.000000    0.000000i
 <Sz= 1.00|    0.000000   -0.000000i    -0.000000    0.000000i    -0.000000    0.000000i
1-elec SOCC =     0.000000000 cm-1
 Reading 2e-SOMF integrals
 2e-SOMF Reduced matrix elements (cm-1)
<S|| Hso(L-) ||S'> =    -0.0000000000     0.0000000000
<S|| Hso(L0) ||S'> =     0.0000000000    -0.0000000000
<S|| Hso(L+) ||S'> =    -0.0000000000    -0.0000000000
 2-elec mean-field SOC matrix (cm-1): < B(S,Sz) | Hso(2e-mf) | A(S',Sz') >
                     |Sz'=-1.00>              |Sz'= 0.00>              |Sz'= 1.00>
 <Sz=-1.00|    0.000000    0.000000i    -0.000000   -0.000000i    -0.000000   -0.000000i
 <Sz= 0.00|    0.000000   -0.000000i     0.000000    0.000000i    -0.000000   -0.000000i
 <Sz= 1.00|   -0.000000    0.000000i     0.000000   -0.000000i     0.000000   -0.000000i
 Total mean-field SOC matrix (cm-1): < B(S,Sz) | Hsomf | A(S',Sz') >
                     |Sz'=-1.00>              |Sz'= 0.00>              |Sz'= 1.00>
 <Sz=-1.00|   -0.000000   -0.000000i     0.000000    0.000000i     0.000000    0.000000i
 <Sz= 0.00|   -0.000000    0.000000i    -0.000000   -0.000000i     0.000000    0.000000i
 <Sz= 1.00|    0.000000   -0.000000i    -0.000000    0.000000i    -0.000000    0.000000i
Mean-Field SOCC =     0.000000000 cm-1
   
**************************************************
State A: Root 16
State B: Root 10
  
Angular momentum components
< B | Lx | A > =     0.000000000i
< B | Ly | A > =     0.000000000i
< B | Lz | A > =    -0.000000000i
  
Norm of one-particle transition density matrix
||gamma^AB||_total       =  0.001275
||gamma^AB||_symmetrized =  0.000000
||gamma^AB||_anti-symm   =  0.001275
  
Spin-orbit couplings
 Using HF (reference) density for the 2-elec mean-field SOC contribution
KET: S',Sz' (Root  16) =  1.000 1.000
BRA: S ,Sz  (Root  10) =  1.000 1.000
Clebsh-Gordan coefficient: < 1.000, 1.000; 1.000, 0.000| 1.000, 1.000> =  0.707
 Reading 1e-SO integrals
 1e Reduced matrix elements (cm-1)
<S|| Hso(L-) ||S'> =    -0.0000000000    -0.0000000000
<S|| Hso(L0) ||S'> =     0.0000000000     0.2155715590
<S|| Hso(L+) ||S'> =    -0.0000000000     0.0000000000
 1-elec SOC matrix (cm-1): < B(S,Sz) | Hso(1e) | A(S',Sz') >
                     |Sz'=-1.00>              |Sz'= 0.00>              |Sz'= 1.00>
 <Sz=-1.00|    0.000000   -0.152432i    -0.000000    0.000000i    -0.000000    0.000000i
 <Sz= 0.00|    0.000000    0.000000i     0.000000    0.000000i    -0.000000    0.000000i
 <Sz= 1.00|   -0.000000    0.000000i     0.000000    0.000000i     0.000000    0.152432i
1-elec SOCC =     0.215571559 cm-1
 Reading 2e-SOMF integrals
 2e-SOMF Reduced matrix elements (cm-1)
<S|| Hso(L-) ||S'> =     0.0000000000     0.0000000000
<S|| Hso(L0) ||S'> =     0.0000000000    -0.0921246390
<S|| Hso(L+) ||S'> =     0.0000000000    -0.0000000000
 2-elec mean-field SOC matrix (cm-1): < B(S,Sz) | Hso(2e-mf) | A(S',Sz') >
                     |Sz'=-1.00>              |Sz'= 0.00>              |Sz'= 1.00>
 <Sz=-1.00|   -0.000000    0.065142i     0.000000   -0.000000i     0.000000   -0.000000i
 <Sz= 0.00|   -0.000000   -0.000000i    -0.000000   -0.000000i     0.000000   -0.000000i
 <Sz= 1.00|    0.000000   -0.000000i    -0.000000   -0.000000i    -0.000000   -0.065142i
 Total mean-field SOC matrix (cm-1): < B(S,Sz) | Hsomf | A(S',Sz') >
                     |Sz'=-1.00>              |Sz'= 0.00>              |Sz'= 1.00>
 <Sz=-1.00|    0.000000   -0.087290i    -0.000000    0.000000i    -0.000000    0.000000i
 <Sz= 0.00|    0.000000    0.000000i     0.000000    0.000000i    -0.000000    0.000000i
 <Sz= 1.00|   -0.000000    0.000000i     0.000000    0.000000i     0.000000    0.087290i
Mean-Field SOCC =     0.123446920 cm-1
   
**************************************************
State A: Root 16
State B: Root 11
  
Angular momentum components
< B | Lx | A > =     0.000000000i
< B | Ly | A > =    -0.000000000i
< B | Lz | A > =     0.000000000i
  
Norm of one-particle transition density matrix
||gamma^AB||_total       =  0.991342
||gamma^AB||_symmetrized =  0.772652
||gamma^AB||_anti-symm   =  0.621102
  
Spin-orbit couplings
 Using HF (reference) density for the 2-elec mean-field SOC contribution
KET: S',Sz' (Root  16) =  1.000 1.000
BRA: S ,Sz  (Root  11) =  1.000 1.000
Clebsh-Gordan coefficient: < 1.000, 1.000; 1.000, 0.000| 1.000, 1.000> =  0.707
 Reading 1e-SO integrals
 1e Reduced matrix elements (cm-1)
<S|| Hso(L-) ||S'> =     0.0000000000    -0.0000000000
<S|| Hso(L0) ||S'> =     0.0000000000    -0.0000000000
<S|| Hso(L+) ||S'> =     0.0000000000     0.0000000000
 1-elec SOC matrix (cm-1): < B(S,Sz) | Hso(1e) | A(S',Sz') >
                     |Sz'=-1.00>              |Sz'= 0.00>              |Sz'= 1.00>
 <Sz=-1.00|   -0.000000    0.000000i     0.000000    0.000000i     0.000000    0.000000i
 <Sz= 0.00|   -0.000000    0.000000i    -0.000000   -0.000000i     0.000000    0.000000i
 <Sz= 1.00|    0.000000   -0.000000i    -0.000000    0.000000i    -0.000000   -0.000000i
1-elec SOCC =     0.000000000 cm-1
 Reading 2e-SOMF integrals
 2e-SOMF Reduced matrix elements (cm-1)
<S|| Hso(L-) ||S'> =    -0.0000000000     0.0000000000
<S|| Hso(L0) ||S'> =     0.0000000000     0.0000000000
<S|| Hso(L+) ||S'> =    -0.0000000000    -0.0000000000
 2-elec mean-field SOC matrix (cm-1): < B(S,Sz) | Hso(2e-mf) | A(S',Sz') >
                     |Sz'=-1.00>              |Sz'= 0.00>              |Sz'= 1.00>
 <Sz=-1.00|    0.000000   -0.000000i    -0.000000   -0.000000i    -0.000000   -0.000000i
 <Sz= 0.00|    0.000000   -0.000000i     0.000000    0.000000i    -0.000000   -0.000000i
 <Sz= 1.00|   -0.000000    0.000000i     0.000000   -0.000000i     0.000000    0.000000i
 Total mean-field SOC matrix (cm-1): < B(S,Sz) | Hsomf | A(S',Sz') >
                     |Sz'=-1.00>              |Sz'= 0.00>              |Sz'= 1.00>
 <Sz=-1.00|   -0.000000    0.000000i     0.000000    0.000000i     0.000000    0.000000i
 <Sz= 0.00|   -0.000000    0.000000i    -0.000000   -0.000000i     0.000000    0.000000i
 <Sz= 1.00|    0.000000   -0.000000i    -0.000000    0.000000i    -0.000000   -0.000000i
Mean-Field SOCC =     0.000000000 cm-1
   
**************************************************
State A: Root 16
State B: Root 12
  
Angular momentum components
< B | Lx | A > =     0.311838726i
< B | Ly | A > =    -0.000020510i
< B | Lz | A > =    -0.000000000i
  
Norm of one-particle transition density matrix
||gamma^AB||_total       =  0.975401
||gamma^AB||_symmetrized =  0.689615
||gamma^AB||_anti-symm   =  0.689811
  
Spin-orbit couplings
 Using HF (reference) density for the 2-elec mean-field SOC contribution
KET: S',Sz' (Root  16) =  1.000 1.000
BRA: S ,Sz  (Root  12) =  1.000 1.000
Clebsh-Gordan coefficient: < 1.000, 1.000; 1.000, 0.000| 1.000, 1.000> =  0.707
 Reading 1e-SO integrals
 1e Reduced matrix elements (cm-1)
<S|| Hso(L-) ||S'> =    -0.0005647818     8.5872812286
<S|| Hso(L0) ||S'> =     0.0000000000     0.0000000000
<S|| Hso(L+) ||S'> =    -0.0005647818    -8.5872812286
 1-elec SOC matrix (cm-1): < B(S,Sz) | Hso(1e) | A(S',Sz') >
                     |Sz'=-1.00>              |Sz'= 0.00>              |Sz'= 1.00>
 <Sz=-1.00|    0.000000   -0.000000i    -0.000399   -6.072125i    -0.000000   -0.000000i
 <Sz= 0.00|    0.000399   -6.072125i     0.000000    0.000000i    -0.000399   -6.072125i
 <Sz= 1.00|   -0.000000    0.000000i     0.000399   -6.072125i     0.000000    0.000000i
1-elec SOCC =    12.144249604 cm-1
 Reading 2e-SOMF integrals
 2e-SOMF Reduced matrix elements (cm-1)
<S|| Hso(L-) ||S'> =     0.0003898909    -5.9281354947
<S|| Hso(L0) ||S'> =     0.0000000000    -0.0000000000
<S|| Hso(L+) ||S'> =     0.0003898909     5.9281354947
 2-elec mean-field SOC matrix (cm-1): < B(S,Sz) | Hso(2e-mf) | A(S',Sz') >
                     |Sz'=-1.00>              |Sz'= 0.00>              |Sz'= 1.00>
 <Sz=-1.00|   -0.000000    0.000000i     0.000276    4.191825i     0.000000    0.000000i
 <Sz= 0.00|   -0.000276    4.191825i    -0.000000   -0.000000i     0.000276    4.191825i
 <Sz= 1.00|    0.000000   -0.000000i    -0.000276    4.191825i    -0.000000   -0.000000i
 Total mean-field SOC matrix (cm-1): < B(S,Sz) | Hsomf | A(S',Sz') >
                     |Sz'=-1.00>              |Sz'= 0.00>              |Sz'= 1.00>
 <Sz=-1.00|    0.000000   -0.000000i    -0.000124   -1.880300i    -0.000000   -0.000000i
 <Sz= 0.00|    0.000124   -1.880300i     0.000000    0.000000i    -0.000124   -1.880300i
 <Sz= 1.00|   -0.000000    0.000000i     0.000124   -1.880300i     0.000000    0.000000i
Mean-Field SOCC =     3.760599969 cm-1
   
**************************************************
State A: Root 16
State B: Root 13
  
Angular momentum components
< B | Lx | A > =     0.000020510i
< B | Ly | A > =     0.311838726i
< B | Lz | A > =     0.000000000i
  
Norm of one-particle transition density matrix
||gamma^AB||_total       =  0.975401
||gamma^AB||_symmetrized =  0.689615
||gamma^AB||_anti-symm   =  0.689811
  
Spin-orbit couplings
 Using HF (reference) density for the 2-elec mean-field SOC contribution
KET: S',Sz' (Root  16) =  1.000 1.000
BRA: S ,Sz  (Root  13) =  1.000 1.000
Clebsh-Gordan coefficient: < 1.000, 1.000; 1.000, 0.000| 1.000, 1.000> =  0.707
 Reading 1e-SO integrals
 1e Reduced matrix elements (cm-1)
<S|| Hso(L-) ||S'> =     8.5872812315     0.0005647818
<S|| Hso(L0) ||S'> =     0.0000000000     0.0000000000
<S|| Hso(L+) ||S'> =     8.5872812315    -0.0005647818
 1-elec SOC matrix (cm-1): < B(S,Sz) | Hso(1e) | A(S',Sz') >
                     |Sz'=-1.00>              |Sz'= 0.00>              |Sz'= 1.00>
 <Sz=-1.00|   -0.000000   -0.000000i     6.072125   -0.000399i     0.000000   -0.000000i
 <Sz= 0.00|   -6.072125   -0.000399i    -0.000000    0.000000i     6.072125   -0.000399i
 <Sz= 1.00|    0.000000    0.000000i    -6.072125   -0.000399i    -0.000000    0.000000i
1-elec SOCC =    12.144249608 cm-1
 Reading 2e-SOMF integrals
 2e-SOMF Reduced matrix elements (cm-1)
<S|| Hso(L-) ||S'> =    -5.9281354957    -0.0003898909
<S|| Hso(L0) ||S'> =     0.0000000000    -0.0000000000
<S|| Hso(L+) ||S'> =    -5.9281354957     0.0003898909
 2-elec mean-field SOC matrix (cm-1): < B(S,Sz) | Hso(2e-mf) | A(S',Sz') >
                     |Sz'=-1.00>              |Sz'= 0.00>              |Sz'= 1.00>
 <Sz=-1.00|    0.000000    0.000000i    -4.191825    0.000276i    -0.000000    0.000000i
 <Sz= 0.00|    4.191825    0.000276i     0.000000   -0.000000i    -4.191825    0.000276i
 <Sz= 1.00|   -0.000000   -0.000000i     4.191825    0.000276i     0.000000   -0.000000i
 Total mean-field SOC matrix (cm-1): < B(S,Sz) | Hsomf | A(S',Sz') >
                     |Sz'=-1.00>              |Sz'= 0.00>              |Sz'= 1.00>
 <Sz=-1.00|   -0.000000   -0.000000i     1.880300   -0.000124i     0.000000   -0.000000i
 <Sz= 0.00|   -1.880300   -0.000124i    -0.000000    0.000000i     1.880300   -0.000124i
 <Sz= 1.00|    0.000000    0.000000i    -1.880300   -0.000124i    -0.000000    0.000000i
Mean-Field SOCC =     3.760599972 cm-1
   
**************************************************
State A: Root 16
State B: Root 14
  
Angular momentum components
< B | Lx | A > =    -1.112140289i
< B | Ly | A > =     0.000186351i
< B | Lz | A > =     0.000000000i
  
Norm of one-particle transition density matrix
||gamma^AB||_total       =  0.988796
||gamma^AB||_symmetrized =  0.699261
||gamma^AB||_anti-symm   =  0.699108
  
Spin-orbit couplings
 Using HF (reference) density for the 2-elec mean-field SOC contribution
KET: S',Sz' (Root  16) =  1.000 1.000
BRA: S ,Sz  (Root  14) =  1.000 1.000
Clebsh-Gordan coefficient: < 1.000, 1.000; 1.000, 0.000| 1.000, 1.000> =  0.707
 Reading 1e-SO integrals
 1e Reduced matrix elements (cm-1)
<S|| Hso(L-) ||S'> =    -0.0090549722    54.0398874450
<S|| Hso(L0) ||S'> =     0.0000000000    -0.0000000000
<S|| Hso(L+) ||S'> =    -0.0090549722   -54.0398874450
 1-elec SOC matrix (cm-1): < B(S,Sz) | Hso(1e) | A(S',Sz') >
                     |Sz'=-1.00>              |Sz'= 0.00>              |Sz'= 1.00>
 <Sz=-1.00|    0.000000   -0.000000i    -0.006403  -38.211971i    -0.000000   -0.000000i
 <Sz= 0.00|    0.006403  -38.211971i     0.000000    0.000000i    -0.006403  -38.211971i
 <Sz= 1.00|   -0.000000    0.000000i     0.006403  -38.211971i     0.000000    0.000000i
1-elec SOCC =    76.423942807 cm-1
 Reading 2e-SOMF integrals
 2e-SOMF Reduced matrix elements (cm-1)
<S|| Hso(L-) ||S'> =     0.0037008013   -22.0863061894
<S|| Hso(L0) ||S'> =     0.0000000000    -0.0000000000
<S|| Hso(L+) ||S'> =     0.0037008013    22.0863061894
 2-elec mean-field SOC matrix (cm-1): < B(S,Sz) | Hso(2e-mf) | A(S',Sz') >
                     |Sz'=-1.00>              |Sz'= 0.00>              |Sz'= 1.00>
 <Sz=-1.00|   -0.000000    0.000000i     0.002617   15.617377i     0.000000    0.000000i
 <Sz= 0.00|   -0.002617   15.617377i    -0.000000   -0.000000i     0.002617   15.617377i
 <Sz= 1.00|    0.000000   -0.000000i    -0.002617   15.617377i    -0.000000   -0.000000i
 Total mean-field SOC matrix (cm-1): < B(S,Sz) | Hsomf | A(S',Sz') >
                     |Sz'=-1.00>              |Sz'= 0.00>              |Sz'= 1.00>
 <Sz=-1.00|    0.000000   -0.000000i    -0.003786  -22.594594i    -0.000000   -0.000000i
 <Sz= 0.00|    0.003786  -22.594594i     0.000000    0.000000i    -0.003786  -22.594594i
 <Sz= 1.00|   -0.000000    0.000000i     0.003786  -22.594594i     0.000000   -0.000000i
Mean-Field SOCC =    45.189188613 cm-1
   
**************************************************
State A: Root 16
State B: Root 15
  
Angular momentum components
< B | Lx | A > =     0.000186351i
< B | Ly | A > =     1.112140289i
< B | Lz | A > =    -0.000000000i
  
Norm of one-particle transition density matrix
||gamma^AB||_total       =  0.988796
||gamma^AB||_symmetrized =  0.699261
||gamma^AB||_anti-symm   =  0.699108
  
Spin-orbit couplings
 Using HF (reference) density for the 2-elec mean-field SOC contribution
KET: S',Sz' (Root  16) =  1.000 1.000
BRA: S ,Sz  (Root  15) =  1.000 1.000
Clebsh-Gordan coefficient: < 1.000, 1.000; 1.000, 0.000| 1.000, 1.000> =  0.707
 Reading 1e-SO integrals
 1e Reduced matrix elements (cm-1)
<S|| Hso(L-) ||S'> =   -54.0398874430    -0.0090549722
<S|| Hso(L0) ||S'> =     0.0000000000    -0.0000000000
<S|| Hso(L+) ||S'> =   -54.0398874430     0.0090549722
 1-elec SOC matrix (cm-1): < B(S,Sz) | Hso(1e) | A(S',Sz') >
                     |Sz'=-1.00>              |Sz'= 0.00>              |Sz'= 1.00>
 <Sz=-1.00|    0.000000    0.000000i   -38.211971    0.006403i    -0.000000    0.000000i
 <Sz= 0.00|   38.211971    0.006403i     0.000000   -0.000000i   -38.211971    0.006403i
 <Sz= 1.00|   -0.000000   -0.000000i    38.211971    0.006403i     0.000000   -0.000000i
1-elec SOCC =    76.423942804 cm-1
 Reading 2e-SOMF integrals
 2e-SOMF Reduced matrix elements (cm-1)
<S|| Hso(L-) ||S'> =    22.0863061886     0.0037008013
<S|| Hso(L0) ||S'> =     0.0000000000     0.0000000000
<S|| Hso(L+) ||S'> =    22.0863061886    -0.0037008013
 2-elec mean-field SOC matrix (cm-1): < B(S,Sz) | Hso(2e-mf) | A(S',Sz') >
                     |Sz'=-1.00>              |Sz'= 0.00>              |Sz'= 1.00>
 <Sz=-1.00|   -0.000000   -0.000000i    15.617377   -0.002617i     0.000000   -0.000000i
 <Sz= 0.00|  -15.617377   -0.002617i    -0.000000    0.000000i    15.617377   -0.002617i
 <Sz= 1.00|    0.000000    0.000000i   -15.617377   -0.002617i    -0.000000    0.000000i
 Total mean-field SOC matrix (cm-1): < B(S,Sz) | Hsomf | A(S',Sz') >
                     |Sz'=-1.00>              |Sz'= 0.00>              |Sz'= 1.00>
 <Sz=-1.00|    0.000000   -0.000000i   -22.594594    0.003786i    -0.000000    0.000000i
 <Sz= 0.00|   22.594594    0.003786i     0.000000   -0.000000i   -22.594594    0.003786i
 <Sz= 1.00|   -0.000000   -0.000000i    22.594594    0.003786i     0.000000    0.000000i
Mean-Field SOCC =    45.189188611 cm-1
   
**************************************************
RAS-CI timing summary (seconds)
  CPU time          0.51s
  System time       0.00s
  Wall time         1.12s
Detailed CPU timing summary
     Fock matrix         :         0.0023 s
     Integrals           :         0.0030 s
     Addressing matrices :         0.0002 s
     Guesses             :         0.0003 s
     Iterations          :         0.0033 s
     Properties          :         0.4986 s
     RAS-CI(2) correction:         0.0000 s
  
 
 --------------------------------------------------------------
             Orbital Energies (a.u.) and Symmetries
 --------------------------------------------------------------
 
 Alpha MOs, Restricted
 -- Doubly Occupied --           
-26.039 -15.440  -1.611  -1.024  -0.619  -0.619  -0.576
  1 A1    2 A1    3 A1    4 A1    1 B1    1 B2    5 A1                         
 -- Singly Occupied (Occupied) --
 -0.448  -0.448
  2 B1    2 B2                                                                 
 -- Virtual --                   
  0.536
  6 A1                                                                         
 
 Beta MOs, Restricted
 -- Doubly Occupied --           
-26.039 -15.440  -1.611  -1.024  -0.619  -0.619  -0.576
  1 A1    2 A1    3 A1    4 A1    1 B1    1 B2    5 A1                         
 -- Singly Occupied (Vacant) --  
 -0.448  -0.448
  2 B1    2 B2                                                                 
 -- Virtual --                   
  0.536
  6 A1                                                                         
 --------------------------------------------------------------
 
          Ground-State Mulliken Net Atomic Charges

     Atom                 Charge (a.u.)
  ----------------------------------------
      1 N                     0.074662
      2 F                    -0.074662
  ----------------------------------------
  Sum of atomic charges =     0.000000

 -----------------------------------------------------------------
                    Cartesian Multipole Moments
 -----------------------------------------------------------------
    Charge (ESU x 10^10)
                -0.0000
    Dipole Moment (Debye)
         X       0.0000      Y       0.0000      Z       0.2309
       Tot       0.2309
    Quadrupole Moments (Debye-Ang)
        XX      -8.4773     XY       0.0000     YY      -8.4773
        XZ       0.0000     YZ       0.0000     ZZ      -9.9171
    Octopole Moments (Debye-Ang^2)
       XXX       0.0000    XXY       0.0000    XYY       0.0000
       YYY       0.0000    XXZ       1.2951    XYZ      -0.0000
       YYZ       1.2951    XZZ       0.0000    YZZ       0.0000
       ZZZ       5.2379
    Hexadecapole Moments (Debye-Ang^3)
      XXXX      -4.2279   XXXY       0.0000   XXYY      -1.4093
      XYYY       0.0000   YYYY      -4.2279   XXXZ       0.0000
      XXYZ       0.0000   XYYZ       0.0000   YYYZ       0.0000
      XXZZ      -5.4637   XYZZ       0.0000   YYZZ      -5.4637
      XZZZ       0.0000   YZZZ       0.0000   ZZZZ     -29.0190
 -----------------------------------------------------------------
 Total job time:  3.40s(wall), 0.68s(cpu) 
 Fri Oct 13 16:31:30 2023

======= MOLDEN-FORMATTED INPUT FILE FOLLOWS =======
[Molden Format]
[Atoms] (Angs)
  N      1    7      0.00000000      0.00000000     -0.74075625
  F      2    9      0.00000000      0.00000000      0.57614375

======= END OF MOLDEN-FORMATTED INPUT FILE =======


        *************************************************************
        *                                                           *
        *  Thank you very much for using Q-Chem.  Have a nice day.  *
        *                                                           *
        *************************************************************


