                  Welcome to Q-Chem
     A Quantum Leap Into The Future Of Chemistry


 Q-Chem 6.0 (devel), Q-Chem, Inc., Pleasanton, CA (2022)

 E. Epifanovsky,  A. T. B. Gilbert,  Xintian Feng,  Joonho Lee,  Yuezhi Mao,  
 N. Mardirossian,  P. Pokhilko,  A. White,  M. Wormit,  M. P. Coons,  
 A. L. Dempwolff,  Zhengting Gan,  D. Hait,  P. R. Horn,  L. D. Jacobson,  
 I. Kaliman,  J. Kussmann,  A. W. Lange,  Ka Un Lao,  D. S. Levine,  Jie Liu,  
 S. C. McKenzie,  A. F. Morrison,  K. Nanda,  F. Plasser,  D. R. Rehn,  
 M. L. Vidal,  Zhi-Qiang You,  Ying Zhu,  B. Alam,  B. Albrecht,  
 A. Aldossary,  E. Alguire,  J. H. Andersen,  V. Athavale,  D. Barton,  
 K. Begam,  A. Behn,  N. Bellonzi,  Y. A. Bernard,  E. J. Berquist,  
 H. Burton,  A. Carreras,  K. Carter-Fenk,  Romit Chakraborty,  
 Chandrima Chakravarty,  Junhan Chen,  A. D. Chien,  K. D. Closser,  
 V. Cofer-Shabica,  L. Cunha,  S. Dasgupta,  Jia Deng,  M. de Wergifosse,  
 M. Diedenhofen,  Hainam Do,  S. Ehlert,  Po-Tung Fang,  S. Fatehi,  
 Qingguo Feng,  T. Friedhoff,  B. Ganoe,  J. Gayvert,  Qinghui Ge,  
 G. Gidofalvi,  M. Goldey,  J. Gomes,  C. Gonzalez-Espinoza,  S. Gulania,  
 A. Gunina,  J. A. Gyamfi,  M. W. D. Hanson-Heine,  P. H. P. Harbach,  
 A. W. Hauser,  M. F. Herbst,  M. Hernandez Vera,  M. Hodecker,  
 Z. C. Holden,  S. Houck,  Xunkun Huang,  Kerwin Hui,  B. C. Huynh,  
 K. Ikeda,  M. Ivanov,  Hyunjun Ji,  Zuxin Jin,  Hanjie Jiang,  B. Kaduk,  
 S. Kaehler,  R. Kang,  K. Khistyaev,  Jaehoon Kim,  Yongbin Kim,  
 P. Klunzinger,  Z. Koczor-Benda,  Joong Hoon Koh,  D. Kosenkov,  
 Saikiran Kotaru,  L. Koulias,  T. Kowalczyk,  C. M. Krauter,  K. Kue,  
 A. Kunitsa,  T. Kus,  A. Landau,  K. V. Lawler,  D. Lefrancois,  S. Lehtola,  
 Rain Li,  Shaozhi Li,  Yi-Pei Li,  Jiashu Liang,  M. Liebenthal,  
 Hung-Hsuan Lin,  You-Sheng Lin,  Fenglai Liu,  Kuan-Yu Liu,  
 M. Loipersberger,  A. Luenser,  C. Malbon,  A. Manjanath,  P. Manohar,  
 E. Mansoor,  S. F. Manzer,  Shan-Ping Mao,  A. V. Marenich,  T. Markovich,  
 S. Mason,  F. Matz,  S. A. Maurer,  P. F. McLaughlin,  M. F. S. J. Menger,  
 J.-M. Mewes,  S. A. Mewes,  P. Morgante,  Mohammad Mostafanejad,  
 J. W. Mullinax,  K. J. Oosterbaan,  G. Paran,  V. Parravicini,  
 Alexander C. Paul,  Suranjan K. Paul,  F. Pavosevic,  Zheng Pei,  S. Prager,  
 E. I. Proynov,  E. Ramos,  B. Rana,  A. E. Rask,  A. Rettig,  R. M. Richard,  
 F. Rob,  E. Rossomme,  T. Scheele,  M. Scheurer,  M. Schneider,  
 P. E. Schneider,  N. Sergueev,  S. M. Sharada,  Hengyuan Shen,  
 W. Skomorowski,  D. W. Small,  C. J. Stein,  Yingli Su,  Yu-Chuan Su,  
 E. J. Sundstrom,  Zhen Tao,  J. Thirman,  Hung-Yi Tsai,  T. Tsuchimochi,  
 N. M. Tubman,  C. Utku,  S. P. Veccham,  O. Vydrov,  J. Wenzel,  
 Jonathan Wong,  J. Witte,  A. Yamada,  Chou-Hsun Yang,  Kun Yao,  
 S. Yeganeh,  S. R. Yost,  A. Zech,  F. Zeller,  Igor Ying Zhang,  
 Xing Zhang,  Yu Zhang,  D. Zuev,  A. Aspuru-Guzik,  A. T. Bell,  
 N. A. Besley,  K. B. Bravaya,  B. R. Brooks,  D. Casanova,  Jeng-Da Chai,  
 Hsing-Ta Chen,  S. Coriani,  C. J. Cramer,  A. E. DePrince, III,  
 R. A. DiStasio Jr.,  A. Dreuw,  B. D. Dunietz,  T. R. Furlani,  
 W. A. Goddard III,  S. Grimme,  S. Hammes-Schiffer,  T. Head-Gordon,  
 W. J. Hehre,  Chao-Ping Hsu,  T.-C. Jagau,  Yousung Jung,  A. Klamt,  
 Jing Kong,  D. S. Lambrecht,  Xiangyuan Li,  WanZhen Liang,  N. J. Mayhall,  
 C. W. McCurdy,  J. B. Neaton,  T. Neudecker,  C. Ochsenfeld,  
 J. A. Parkhill,  R. Peverati,  V. A. Rassolov,  Haisheng Ren,  Yihan Shao,  
 L. V. Slipchenko,  R. P. Steele,  J. E. Subotnik,  A. J. W. Thom,  
 A. Tkatchenko,  D. G. Truhlar,  T. Van Voorhis,  Fan Wang,  
 T. A. Wesolowski,  K. B. Whaley,  H. L. Woodcock III,  P. M. Zimmerman,  
 S. Faraji,  P. M. W. Gill,  M. Head-Gordon,  J. M. Herbert,  A. I. Krylov

 Contributors to earlier versions of Q-Chem not listed above: 
 R. D. Adamson,  B. Austin,  R. Baer,  J. Baker,  G. J. O. Beran,  
 K. Brandhorst,  S. T. Brown,  E. F. C. Byrd,  Arup K. Chakraborty,  
 G. K. L. Chan,  Chun-Min Chang,  Yunqing Chen,  C.-L. Cheng,  
 Siu Hung Chien,  D. M. Chipman,  D. L. Crittenden,  H. Dachsel,  
 R. J. Doerksen,  A. D. Dutoi,  R. G. Edgar,  J. Fosso-Tande,  
 L. Fusti-Molnar,  D. Ghosh,  A. Ghysels,  A. Golubeva-Zadorozhnaya,  
 J. Gonthier,  M. S. Gordon,  S. R. Gwaltney,  G. Hawkins,  J. E. Herr,  
 A. Heyden,  S. Hirata,  E. G. Hohenstein,  G. Kedziora,  F. J. Keil,  
 C. Kelley,  Jihan Kim,  R. A. King,  R. Z. Khaliullin,  P. P. Korambath,  
 W. Kurlancheek,  A. Laurent,  A. M. Lee,  M. S. Lee,  S. V. Levchenko,  
 Ching Yeh Lin,  D. Liotard,  E. Livshits,  R. C. Lochan,  I. Lotan,  
 L. A. Martinez-Martinez,  P. E. Maslen,  N. Nair,  D. P. O'Neill,  
 D. Neuhauser,  E. Neuscamman,  C. M. Oana,  R. Olivares-Amaya,  R. Olson,  
 T. M. Perrine,  B. Peters,  P. A. Pieniazek,  A. Prociuk,  Y. M. Rhee,  
 J. Ritchie,  M. A. Rohrdanz,  E. Rosta,  N. J. Russ,  H. F. Schaefer III,  
 M. W. Schmidt,  N. E. Schultz,  S. Sharma,  N. Shenvi,  C. D. Sherrill,  
 A. C. Simmonett,  A. Sodt,  T. Stein,  D. Stuck,  K. S. Thanthiriwatte,  
 V. Vanovschi,  L. Vogt,  Tao Wang,  A. Warshel,  M. A. Watson,  
 C. F. Williams,  Q. Wu,  X. Xu,  Jun Yang,  W. Zhang,  Yan Zhao

   Please cite Q-Chem as follows:
  "Software for the frontiers of quantum chemistry:
   An overview of developments in the Q-Chem 5 package"
   J. Chem. Phys. 155, 084801 (2021)
   https://doi.org/10.1063/5.0055522 (open access)

 Q-Chem 6.0.1 for Intel X86 EM64T Linux

 Parts of Q-Chem use Armadillo 9.900.5 (Nocturnal Misbehaviour).
 http://arma.sourceforge.net/

 Q-Chem begins on Tue Nov 14 15:30:18 2023  

 Host: atlas-187
0

     Scratch files written to ./qchem231688//
 Processing $rem in /scratch/abel/SOFTWARE/qchem/config/preferences:
 Processing $rem in /dipc/acebg/.qchemrc:

 Checking the input file for inconsistencies... 	...done.

--------------------------------------------------------------
User input:
--------------------------------------------------------------
$comment
 RAS-SF CALCULATION
$end

$molecule
 READ nh.molecule
$end

$rem
!**CALCULATION TYPE***     
JOBTYPE            sp    
EXCHANGE           HF
CORRELATION        RASCI    !RASCI=Casanova; RASCI2=Zimmerman
BASIS              def2-TZVP

!***SCF REFERENCE***
!SKIP_SCFMAN        FALSE
UNRESTRICTED       FALSE
!SCF_GUESS          core
!SCF_GUESS_MIX      FALSE
!SCF_GUESS_ALWAYS   FALSE
MAX_SCF_CYCLES     500
!SCF_CONVERGENCE    8
SCF_ALGORITHM      DIIS_GDM !DIIS,DM,DIIS_DM,GDM,DIIS_GDM,GD

!SYMMETRY           TRUE !use of symmetry for calculating integrals
!SYM_IGNORE         FALSE !turn off using symmetry
!SYM_TOL            5 !tolerance for determining point group

!THRESH             14
SCF_FINAL_PRINT     1 !0,1,2,3

!****RAS-SF****
RAS_ROOTS          30       !number of RAS-CI roots to be computed
SET_ITER           150     !number of iterations in RASCI
RAS_ELEC           8       !number of electrons in RAS2
!RAS_ELEC_ALPHA     5       !spin-α electrons in RAS2 
!RAS_ELEC_BETA      3      !spin-β electrons in RAS2

RAS_ACT            6       !number of orbitals in RAS2 
RAS_ACT_ORB   [1, 2, 3, 4, 5, 6]  !user-selected RAS2 orbitals
RAS_OCC            0       !number of orbitals in RAS1
!N_FROZEN_CORE      0     !Number of frozen core orbitals
!N_FROZEN_VIRTUAL   0      !Number of frozen virtual orbitals

RAS_DO_HOLE        TRUE   !presence of hole excitations in RAS-CI wave function
RAS_DO_PART        TRUE   !presence of particle excitations
!RAS_AMPL_PRINT     10     !threshold (×10 2 ) for the CI amplitudes

!RAS_GUESS_CS       0      !number of closed shell guess conﬁgurations
RAS_SPIN_MULT      0      !spin multiplicity: 0=any, 2n+1=defined 
!RAS_SRDFT          FALSE  !short-range density functional RAS-CI
!RAS_NFRAG          0     !fragments of excitation analysis in RASCI

RAS_PRINT          2      !level of information
RAS_NATORB         TRUE   !computation of the natural orbital occupancies
!RAS_NATORB_STATE  0      !Saves NO of i RAS computed state in .fchk ﬁle
!RAS_FOD            TRUE

!****RAS-SOC****
CALC_SOC           TRUE   !calculate SOC for EOM-CC, RAS-CI, ADC, TDDFT/TDA and TDDFT
!RAS_SOC_2E        TRUE   !two-electron mean-ﬁeld contribution, default=true
RAS_SOC_SYM_DENS   TRUE   !averaging of α and β densities

!****MEMORY****
MEM_TOTAL          60000 !Default 2000 MB
MEM_STATIC         16000  !Default 64 MB

!**Molecular Properties and Analysis **                                                                                          
!GUI                2
STATE_ANALYSIS     TRUE
MOLDEN_FORMAT      TRUE
PRINT_ORBITALS     20
$end                                           

--------------------------------------------------------------
 ----------------------------------------------------------------
             Standard Nuclear Orientation (Angstroms)
    I     Atom           X                Y                Z
 ----------------------------------------------------------------
    1      N       0.0000000000     0.0000000000    -0.1295250000
    2      H       0.0000000000     0.0000000000     0.9066750000
 ----------------------------------------------------------------
 Molecular Point Group                 C2v   NOp =  4
 Largest Abelian Subgroup              C2v   NOp =  4
 Nuclear Repulsion Energy =           3.57483157 hartrees
 There are        5 alpha and        3 beta electrons
 Requested basis set is def2-TZVP
 There are 15 shells and 37 basis functions

 Q-Chem warning in module libmdc/get_mega.C, line 167:

 Allowed MEM_STATIC has been capped at MEM_STATIC=8191.
 Reduce the value of MEM_STATIC to silence this warning.


 Total QAlloc Memory Limit  60000 MB
 Mega-Array Size      8007 MB
 MEM_STATIC part      8191 MB


                       Distance Matrix (Angstroms)
             N (  1)
   H (  2)  1.036200
 
 A cutoff of  1.0D-09 yielded    120 shell pairs
 There are       756 function pairs (       990 Cartesian)
 Smallest overlap matrix eigenvalue = 7.92E-03

 Scale SEOQF with 1.000000e+00/1.000000e+00/1.000000e+00

 Standard Electronic Orientation quadrupole field applied
 Nucleus-field energy     =    -0.0000000010 hartrees
 Guess from superposition of atomic densities
 Warning:  Energy on first SCF cycle will be non-variational
 SAD guess density has 8.000000 electrons

 -----------------------------------------------------------------------
  General SCF calculation program by
  Eric Jon Sundstrom, Paul Horn, Yuezhi Mao, Dmitri Zuev, Alec White,
  David Stuck, Shaama M.S., Shane Yost, Joonho Lee, David Small,
  Daniel Levine, Susi Lehtola, Hugh Burton, Evgeny Epifanovsky,
  Bang C. Huynh
 -----------------------------------------------------------------------
 Hartree-Fock
 Orthonormalizing orbitals
 A restricted open-shell SCF calculation will be
 performed using DIIS, GDM
 SCF converges when RMS gradient is below 1.0e-05
 ---------------------------------------
  Cycle       Energy         DIIS error
 ---------------------------------------
    1     -54.8699534210      6.45e-02  
    2     -54.9131240494      6.02e-02  
    3     -54.9744575084      3.70e-03  Done DIIS. Switching to GDM
 ---------------------------------------
  Cycle       Energy        RMS Gradient
 ---------------------------------------
    1     -54.9744575084      1.67e-02   Normal BFGS step
    2     -54.9749884804      6.25e-03   Normal BFGS step
    3     -54.9750576435      8.62e-04   Normal BFGS step
    4     -54.9750599612      1.88e-04   Normal BFGS step
    5     -54.9750600510      3.41e-05   Normal BFGS step
    6     -54.9750600567      4.03e-06  Convergence criterion met
The disked orbital energies are calculated using alpha and beta Focks
 ---------------------------------------
 Alpha HF Exchange    Energy =  -4.00407548233491
 Beta HF Exchange     Energy =  -2.91824887140462
 Nuclear Attraction   Energy =   0.00000000000000
 One-Electron (alpha) Energy = -46.02190963520349
 One-Electron (beta)  Energy = -35.60131364711679
 Total Coulomb        Energy =  29.99565600770161
 Final Alpha MO Eigenvalues
            1           2           3           4           5           6
    1 -15.6370037  -1.1538935  -0.5926888  -0.5374482  -0.5374482   0.1438755
            7           8           9          10          11          12
    1   0.4341771   0.4563990   0.4563990   0.4767601   0.6361648   1.1444744
           13          14          15          16          17          18
    1   1.1444744   1.1977206   1.1977206   1.4711100   2.1048373   2.1048373
           19          20          21          22          23          24
    1   2.1980371   2.2468563   2.3610515   2.3610515   2.7057602   3.1922195
           25          26          27          28          29          30
    1   4.2013001   4.2013001   4.1947021   4.1947021   4.5391586   4.5391586
           31          32          33          34          35          36
    1   4.7772057   4.7772057   4.9115023   4.9115023   5.1102655   5.7963180
           37
    1  32.4905268
 Final Beta MO Eigenvalues
            1           2           3           4           5           6
    1 -15.5822332  -0.9289305  -0.5069138   0.1828699   0.1828699   0.1567546
            7           8           9          10          11          12
    1   0.4629833   0.5347379   0.5347379   0.5058088   0.6681776   1.2199019
           13          14          15          16          17          18
    1   1.2199019   1.3364972   1.3364972   1.5160048   2.1427876   2.1427876
           19          20          21          22          23          24
    1   2.2508999   2.2792154   2.4846000   2.4846000   2.7363294   3.2206018
           25          26          27          28          29          30
    1   4.2738926   4.2738926   4.2957215   4.2957215   4.5995386   4.5995386
           31          32          33          34          35          36
    1   4.9324798   4.9324798   4.9897645   4.9897645   5.1715901   5.8267965
           37
    1  32.5228099
 SCF time:   CPU 1.02s  wall 3.00s 
<S^2> =          2.000000000
 SCF   energy in the final basis set =      -54.9750600567
 Total energy in the final basis set =      -54.9750600567
  
     ##========================================##
     ||                                        ||
     ||              R A S M A N 2             ||
     ||________________________________________||
     ||                                        ||
     ||  Author:                               ||
     ||                                        ||
     ||        David Casanova (2010)           ||
     ||                                        ||
     ##========================================##
  
Setting single-point xc-functionals (if necessary)

  ***************************************************
  *  RAS-CI Dimensions:                             *
  *                                                 *
  *  Active Elec.:   8 ( 4, 4)   Active Orb.:   6   *
  *  Doubly Occ. :   0           Doubly Vir.:  31   *
  *  Frozen Occ. :   0           Frozen Vir.:   0   *
  *                                                 *
  *  Total CI configurations:     18825             * 
  *    Active configurations:       225             * 
  *      Hole configurations:         0             * 
  *  Particle configurations:     18600             * 
  *                                                 *
  *   Requested states:       30                    *
  *  Spin multiplicity: Any multiplicity            *
  *                                                 *
  ***************************************************
-----------------------------------------
    Memory requirements of RASCI

 Each CI-vector requires      0.14 MiB 
 Max. subspace vectors           4500      

 Reduced Lists                0.00 MiB 
 Excitation Lists             0.00 MiB 
 Excitation Lists Sign        0.00 MiB 
 CI-space (Max)             805.14 MiB 
 Integrals                    0.89 MiB 
 Memory required (Max)      805.15 MiB 
 Memory available          7811.55 MiB 

    Disk requirements of RASCI

 Fock matrix                  0.02 MiB 
 2-electron integrals         1.18 MiB 
 CI-space                  1292.61 MiB 
 Disk required             1293.81 MiB 
-----------------------------------------
  
RAS1 HF-like energy:              3.5748315717
 Computing integrals
 Computing J and K matrices
 Computing addressing
 Making amplitude guesses
 
Direct CI diagonalization
 ---------------------------------------------------
 Iter    Rts Conv    Rts Left    Ttl Dev     Max Dev
 ---------------------------------------------------
   1         0          30      1.437836    0.195657
   2         0          30      0.440310    0.027400
   3         0          30      0.141486    0.007712
   4         0          30      0.100486    0.004576
   5         0          30      0.092916    0.007092
   6         0          30      0.086182    0.009931
   7         0          30      0.091636    0.014442
   8         0          30      0.057269    0.010385
   9         0          30      0.081622    0.008700
  10         0          30      0.049775    0.007144
  11         0          30      0.041464    0.006609
  12         0          30      0.054009    0.006638
  13         0          30      0.036582    0.004954
  14         0          30      0.043696    0.005248
  15         0          30      0.035385    0.003998
  16         0          30      0.037981    0.005974
  17         0          30      0.032975    0.003013
  18         0          30      0.025342    0.004790
  19         1          29      0.031291    0.003471
  20         1          29      0.031093    0.004165
  21         1          29      0.027504    0.004028
  22         2          28      0.019013    0.002560
  23         4          26      0.017404    0.003049
  24         9          21      0.013008    0.002014
  25        11          19      0.009512    0.001163
  26        11          19      0.008445    0.001949
  27        12          18      0.005982    0.001146
  28        13          17      0.006576    0.002642
  29        13          17      0.004817    0.001082
  30        13          17      0.006172    0.002921
  31        13          17      0.004423    0.001929
  32        15          15      0.002699    0.000953
  33        15          15      0.003083    0.001467
  34        15          15      0.001665    0.000585
  35        16          14      0.001718    0.000867
  36        16          14      0.001439    0.000715
  37        17          13      0.001192    0.000735
  38        17          13      0.002929    0.002345
  39        21           9      0.001914    0.001554
  40        20          10      0.004518    0.002253
  41        21           9      0.005478    0.002675
  42        21           9      0.001720    0.000905
  43        24           6      0.001944    0.001057
  44        25           5      0.000914    0.000493
  45        25           5      0.000471    0.000251
  46        27           3      0.000659    0.000356
  47        28           2      0.000210    0.000109
  48        28           2      0.000169    0.000086
  49        28           2      0.000117    0.000058
  50        28           2      0.000061    0.000027
  51        28           2      0.000086    0.000041
  52        29           1      0.000035    0.000014
  53        29           1      0.000026    0.000008
  54        29           1      0.000030    0.000010
  55        29           1      0.000016    0.000003
  56        29           1      0.000015    0.000002
  57        29           1      0.000013    0.000002
  58        30           0      0.000011    0.000001    Roots Converged
 ---------------------------------------------------
   
**************************************************
 RAS-CI total energy for state   1:    -23.400647264989
  Excitation energy (eV) =  0.000000000000
  State symmetry: A1    (C2v      )
  <S^2>      :  0.0000
  Dipole Moment:    0.0000 X    -0.0000 Y    -0.9476 Z
 NATURAL OCCUPATION NUMBERS (higher than 1.0E-05)
            1           2           3           4           5           6
    1   1.9925687   1.9850238   1.9850238   1.9827981   0.0161333   0.0145009
            7           8           9          10          11          12
    1   0.0145009   0.0070180   0.0010795   0.0008202   0.0000873   0.0000820
           13          14          15          16          17          18
    1   0.0000820   0.0000607   0.0000607   0.0000510   0.0000291   0.0000291

 Head-Gordon Nu:    0.11
 Head-Gordon Nu_nl: 0.01
 Created directory ./qchem231688/plots

  Amplitudes : 
  
 | HOLE  | ALPHA  | BETA   | PART  |    AMPLITUDE 
--------------------------------------------------
 |       | 110110 | 011110 |       |    -1.2024045598211E-01
 |       | 011110 | 110110 |       |    -1.2024044184021E-01
 |       | 011110 | 011110 |       |     8.3843242282682E-01
 |       | 011100 | 011110 |   8   |    -1.0453118956583E-01
 |       | 011110 | 011100 |   8   |    -1.0453118891171E-01
 |       | 011100 | 011110 |  21   |    -1.3747495216494E-01
 |       | 011110 | 011100 |  21   |    -1.3747491638810E-01
 |       | 011010 | 011110 |   7   |     1.0453118948825E-01
 |       | 011110 | 011010 |   7   |     1.0453118882067E-01
 |       | 011010 | 011110 |  20   |     1.3747495474128E-01
 |       | 011110 | 011010 |  20   |     1.3747491509806E-01
 |       | 010110 | 011110 |  10   |    -1.0256223664905E-01
 |       | 011110 | 010110 |  10   |    -1.0256231056743E-01
 |       | 010110 | 011110 |  19   |    -1.1642027847356E-01
 |       | 011110 | 010110 |  19   |    -1.1641999196019E-01
--------------------------------------------------
*** Contributions RASCI wfn    Active:  76.38
                                 Hole:   0.00
                                 Part:  23.62

      Mulliken population analysis 
 ---------------------------------------------------
   Atom    Charge (a.u.)   Spin (a.u.)  
 ---------------------------------------------------
   1  N   -0.460818       -0.000000 
   2  H    0.460061        0.000000 
 ---------------------------------------------------
   Sum:   -0.000757       -0.000000 
 ---------------------------------------------------
 
  
 NATURAL OCCUPATION NUMBERS (higher than 1.0E-05)
            1           2           3           4           5           6
    1   1.9925687   1.9850238   1.9850238   1.9827981   0.0161333   0.0145009
            7           8           9          10          11          12
    1   0.0145009   0.0070180   0.0010795   0.0008202   0.0000873   0.0000820
           13          14          15          16          17          18
    1   0.0000820   0.0000607   0.0000607   0.0000510   0.0000291   0.0000291
  
*** Unpaired Electrons
 Yamaguchi Nd:         0.22
 Head-Gordon Nu:       0.11
 Head-Gordon Nu_nl:    0.01
  
**************************************************
 RAS-CI total energy for state   2:    -22.902470549457
  Excitation energy (eV) = 13.556078141344
  State symmetry: B2    (C2v      )
  <S^2>      :  2.0000
  Dipole Moment:    0.0000 X    -0.0000 Y     1.7192 Z
  Trans. Moment:    0.0000 X     0.0000 Y    -0.0000 Z
  Strength   :  0.000000
  Natural transition orbitals ( 1 -> 2 ):
   e-/hole pair  1:  ampl =  0.981656 ( 96.4%)   [6 : 7]
   e-/hole pair  2:  ampl =  0.013537 (  0.0%)   [5 : 8]
   Sum of square amplitudes: 0.96

 NATURAL OCCUPATION NUMBERS (higher than 1.0E-05)
            1           2           3           4           5           6
    1   1.9883239   1.9770822   1.9733226   0.9960522   0.9896121   0.0286317
            7           8           9          10          11          12
    1   0.0218616   0.0123186   0.0093056   0.0010386   0.0006788   0.0006644
           13          14          15          16          17          18
    1   0.0004855   0.0001812   0.0000796   0.0000574   0.0000538   0.0000483
           19          20          21          22          23          24
    1   0.0000423   0.0000368   0.0000334   0.0000309   0.0000137   0.0000117
           25
    1   0.0000113

 Head-Gordon Nu:    2.12
 Head-Gordon Nu_nl: 2.01

  Amplitudes : 
  
 | HOLE  | ALPHA  | BETA   | PART  |    AMPLITUDE 
--------------------------------------------------
 |       | 110110 | 011101 |       |     1.0863489798315E-01
 |       | 110101 | 011110 |       |    -1.0344199227462E-01
 |       | 011110 | 110101 |       |     1.0344199227460E-01
 |       | 011110 | 011101 |       |    -5.5846012947793E-01
 |       | 011101 | 110110 |       |    -1.0863489798319E-01
 |       | 011101 | 011110 |       |     5.5846012947810E-01
 |       | 011001 | 011110 |  20   |     1.0057143845186E-01
 |       | 011110 | 011001 |  20   |    -1.0057143845183E-01
 |       | 011100 | 011101 |  21   |     1.0501332198867E-01
 |       | 011101 | 011100 |  21   |    -1.0501332198870E-01
 |       | 011010 | 011101 |  20   |    -1.0164364397935E-01
 |       | 011101 | 011010 |  20   |     1.0164364397938E-01
--------------------------------------------------
*** Contributions RASCI wfn    Active:  70.76
                                 Hole:   0.00
                                 Part:  29.24

      Mulliken population analysis 
 ---------------------------------------------------
   Atom    Charge (a.u.)   Spin (a.u.)  
 ---------------------------------------------------
   1  N    0.989918       -0.000000 
   2  H   -0.990775        0.000000 
 ---------------------------------------------------
   Sum:   -0.000857        0.000000 
 ---------------------------------------------------
 
  
 NATURAL OCCUPATION NUMBERS (higher than 1.0E-05)
            1           2           3           4           5           6
    1   1.9883239   1.9770822   1.9733226   0.9960522   0.9896121   0.0286317
            7           8           9          10          11          12
    1   0.0218616   0.0123186   0.0093056   0.0010386   0.0006788   0.0006644
           13          14          15          16          17          18
    1   0.0004855   0.0001812   0.0000796   0.0000574   0.0000538   0.0000483
           19          20          21          22          23          24
    1   0.0000423   0.0000368   0.0000334   0.0000309   0.0000137   0.0000117
           25
    1   0.0000113
  
*** Unpaired Electrons
 Yamaguchi Nd:         2.27
 Head-Gordon Nu:       2.12
 Head-Gordon Nu_nl:    2.01
  
**************************************************
 RAS-CI total energy for state   3:    -22.902470549404
  Excitation energy (eV) = 13.556078142788
  State symmetry: B1    (C2v      )
  <S^2>      :  2.0000
  Dipole Moment:   -0.0000 X    -0.0000 Y     1.7192 Z
  Trans. Moment:    0.0000 X     0.0000 Y     0.0000 Z
  Strength   :  0.000000
  Natural transition orbitals ( 1 -> 3 ):
   e-/hole pair  1:  ampl =  0.981656 ( 96.4%)   [6 : 7]
   e-/hole pair  2:  ampl =  0.013537 (  0.0%)   [5 : 8]
   Sum of square amplitudes: 0.96

 NATURAL OCCUPATION NUMBERS (higher than 1.0E-05)
            1           2           3           4           5           6
    1   1.9883239   1.9770822   1.9733226   0.9960522   0.9896121   0.0286317
            7           8           9          10          11          12
    1   0.0218616   0.0123186   0.0093056   0.0010386   0.0006788   0.0006644
           13          14          15          16          17          18
    1   0.0004855   0.0001812   0.0000796   0.0000574   0.0000538   0.0000483
           19          20          21          22          23          24
    1   0.0000423   0.0000368   0.0000334   0.0000309   0.0000137   0.0000117
           25
    1   0.0000113

 Head-Gordon Nu:    2.12
 Head-Gordon Nu_nl: 2.01

  Amplitudes : 
  
 | HOLE  | ALPHA  | BETA   | PART  |    AMPLITUDE 
--------------------------------------------------
 |       | 110110 | 011011 |       |     1.0863491701741E-01
 |       | 110011 | 011110 |       |    -1.0344200879594E-01
 |       | 011110 | 110011 |       |     1.0344200879593E-01
 |       | 011110 | 011011 |       |    -5.5846012837768E-01
 |       | 011011 | 110110 |       |    -1.0863491701742E-01
 |       | 011011 | 011110 |       |     5.5846012837774E-01
 |       | 011001 | 011110 |  21   |     1.0057144042538E-01
 |       | 011110 | 011001 |  21   |    -1.0057144042537E-01
 |       | 011100 | 011011 |  21   |     1.0164365306381E-01
 |       | 011011 | 011100 |  21   |    -1.0164365306382E-01
 |       | 011010 | 011011 |  20   |    -1.0501336228911E-01
 |       | 011011 | 011010 |  20   |     1.0501336228912E-01
--------------------------------------------------
*** Contributions RASCI wfn    Active:  70.76
                                 Hole:   0.00
                                 Part:  29.24

      Mulliken population analysis 
 ---------------------------------------------------
   Atom    Charge (a.u.)   Spin (a.u.)  
 ---------------------------------------------------
   1  N    0.989918       -0.000000 
   2  H   -0.990775        0.000000 
 ---------------------------------------------------
   Sum:   -0.000857        0.000000 
 ---------------------------------------------------
 
  
 NATURAL OCCUPATION NUMBERS (higher than 1.0E-05)
            1           2           3           4           5           6
    1   1.9883239   1.9770822   1.9733226   0.9960522   0.9896121   0.0286317
            7           8           9          10          11          12
    1   0.0218616   0.0123186   0.0093056   0.0010386   0.0006788   0.0006644
           13          14          15          16          17          18
    1   0.0004855   0.0001812   0.0000796   0.0000574   0.0000538   0.0000483
           19          20          21          22          23          24
    1   0.0000423   0.0000368   0.0000334   0.0000309   0.0000137   0.0000117
           25
    1   0.0000113
  
*** Unpaired Electrons
 Yamaguchi Nd:         2.27
 Head-Gordon Nu:       2.12
 Head-Gordon Nu_nl:    2.01
  
**************************************************
 RAS-CI total energy for state   4:    -22.891667905995
  Excitation energy (eV) = 13.850033025894
  State symmetry: B1    (C2v      )
  <S^2>      :  0.0000
  Dipole Moment:    0.0000 X    -0.0000 Y     1.8001 Z
  Trans. Moment:    0.2748 X    -0.0000 Y    -0.0000 Z
  Strength   :  0.025632
  Natural transition orbitals ( 1 -> 4 ):
   e-/hole pair  1:  ampl =  0.980539 ( 96.1%)   [6 : 7]
   e-/hole pair  2:  ampl =  0.009650 (  0.0%)   [5 : 8]
   Sum of square amplitudes: 0.96

 NATURAL OCCUPATION NUMBERS (higher than 1.0E-05)
            1           2           3           4           5           6
    1   1.9884124   1.9771518   1.9729357   0.9972035   0.9895001   0.0281892
            7           8           9          10          11          12
    1   0.0217737   0.0121299   0.0091326   0.0010768   0.0006943   0.0006683
           13          14          15          16          17          18
    1   0.0005514   0.0001973   0.0000685   0.0000530   0.0000508   0.0000485
           19          20          21          22
    1   0.0000426   0.0000319   0.0000254   0.0000231

 Head-Gordon Nu:    2.12
 Head-Gordon Nu_nl: 2.01

  Amplitudes : 
  
 | HOLE  | ALPHA  | BETA   | PART  |    AMPLITUDE 
--------------------------------------------------
 |       | 110110 | 011011 |       |    -1.0823952468718E-01
 |       | 110011 | 011110 |       |    -1.0134405555886E-01
 |       | 011110 | 110011 |       |    -1.0134405555888E-01
 |       | 011110 | 011011 |       |     5.5796031391630E-01
 |       | 011011 | 110110 |       |    -1.0823952468717E-01
 |       | 011011 | 011110 |       |     5.5796031391625E-01
 |       | 011001 | 011110 |  21   |     1.0059452498782E-01
 |       | 011110 | 011001 |  21   |     1.0059452498783E-01
 |       | 011100 | 011011 |  21   |    -1.0174935092806E-01
 |       | 011011 | 011100 |  21   |    -1.0174935092806E-01
 |       | 011010 | 011011 |  20   |     1.0411724284873E-01
 |       | 011011 | 011010 |  20   |     1.0411724284872E-01
--------------------------------------------------
*** Contributions RASCI wfn    Active:  70.97
                                 Hole:   0.00
                                 Part:  29.03

      Mulliken population analysis 
 ---------------------------------------------------
   Atom    Charge (a.u.)   Spin (a.u.)  
 ---------------------------------------------------
   1  N    0.988170        0.000000 
   2  H   -0.989028       -0.000000 
 ---------------------------------------------------
   Sum:   -0.000858        0.000000 
 ---------------------------------------------------
 
  
 NATURAL OCCUPATION NUMBERS (higher than 1.0E-05)
            1           2           3           4           5           6
    1   1.9884124   1.9771518   1.9729357   0.9972035   0.9895001   0.0281892
            7           8           9          10          11          12
    1   0.0217737   0.0121299   0.0091326   0.0010768   0.0006943   0.0006683
           13          14          15          16          17          18
    1   0.0005514   0.0001973   0.0000685   0.0000530   0.0000508   0.0000485
           19          20          21          22
    1   0.0000426   0.0000319   0.0000254   0.0000231
  
*** Unpaired Electrons
 Yamaguchi Nd:         2.27
 Head-Gordon Nu:       2.12
 Head-Gordon Nu_nl:    2.01
  
**************************************************
 RAS-CI total energy for state   5:    -22.891667905894
  Excitation energy (eV) = 13.850033028653
  State symmetry: B2    (C2v      )
  <S^2>      :  0.0000
  Dipole Moment:   -0.0000 X     0.0000 Y     1.8001 Z
  Trans. Moment:   -0.0000 X    -0.2748 Y     0.0000 Z
  Strength   :  0.025632
  Natural transition orbitals ( 1 -> 5 ):
   e-/hole pair  1:  ampl =  0.980539 ( 96.1%)   [6 : 7]
   e-/hole pair  2:  ampl =  0.009650 (  0.0%)   [5 : 8]
   Sum of square amplitudes: 0.96

 NATURAL OCCUPATION NUMBERS (higher than 1.0E-05)
            1           2           3           4           5           6
    1   1.9884124   1.9771517   1.9729359   0.9972035   0.9895001   0.0281890
            7           8           9          10          11          12
    1   0.0217738   0.0121299   0.0091326   0.0010768   0.0006943   0.0006683
           13          14          15          16          17          18
    1   0.0005514   0.0001973   0.0000685   0.0000529   0.0000508   0.0000485
           19          20          21          22
    1   0.0000426   0.0000319   0.0000254   0.0000231

 Head-Gordon Nu:    2.12
 Head-Gordon Nu_nl: 2.01

  Amplitudes : 
  
 | HOLE  | ALPHA  | BETA   | PART  |    AMPLITUDE 
--------------------------------------------------
 |       | 110110 | 011101 |       |    -1.0823965819531E-01
 |       | 110101 | 011110 |       |    -1.0134391689941E-01
 |       | 011110 | 110101 |       |    -1.0134391689944E-01
 |       | 011110 | 011101 |       |     5.5796032266819E-01
 |       | 011101 | 110110 |       |    -1.0823965819528E-01
 |       | 011101 | 011110 |       |     5.5796032266803E-01
 |       | 011001 | 011110 |  20   |     1.0059452719173E-01
 |       | 011110 | 011001 |  20   |     1.0059452719176E-01
 |       | 011100 | 011101 |  21   |    -1.0411721979188E-01
 |       | 011101 | 011100 |  21   |    -1.0411721979185E-01
 |       | 011010 | 011101 |  20   |     1.0174936000150E-01
 |       | 011101 | 011010 |  20   |     1.0174936000147E-01
--------------------------------------------------
*** Contributions RASCI wfn    Active:  70.97
                                 Hole:   0.00
                                 Part:  29.03

      Mulliken population analysis 
 ---------------------------------------------------
   Atom    Charge (a.u.)   Spin (a.u.)  
 ---------------------------------------------------
   1  N    0.988168        0.000000 
   2  H   -0.989025       -0.000000 
 ---------------------------------------------------
   Sum:   -0.000858        0.000000 
 ---------------------------------------------------
 
  
 NATURAL OCCUPATION NUMBERS (higher than 1.0E-05)
            1           2           3           4           5           6
    1   1.9884124   1.9771517   1.9729359   0.9972035   0.9895001   0.0281890
            7           8           9          10          11          12
    1   0.0217738   0.0121299   0.0091326   0.0010768   0.0006943   0.0006683
           13          14          15          16          17          18
    1   0.0005514   0.0001973   0.0000685   0.0000529   0.0000508   0.0000485
           19          20          21          22
    1   0.0000426   0.0000319   0.0000254   0.0000231
  
*** Unpaired Electrons
 Yamaguchi Nd:         2.27
 Head-Gordon Nu:       2.12
 Head-Gordon Nu_nl:    2.01
  
**************************************************
 RAS-CI total energy for state   6:    -22.829865348500
  Excitation energy (eV) = 15.531766179254
  State symmetry: A1    (C2v      )
  <S^2>      :  2.0000
  Dipole Moment:    0.0000 X     0.0000 Y     1.6610 Z
  Trans. Moment:    0.0000 X    -0.0000 Y    -0.0000 Z
  Strength   :  0.000000
  Natural transition orbitals ( 1 -> 6 ):
   e-/hole pair  1:  ampl =  0.984290 ( 96.9%)   [6 : 7]
   e-/hole pair  2:  ampl =  0.030725 (  0.1%)   [5 : 8]
   Sum of square amplitudes: 0.97

 NATURAL OCCUPATION NUMBERS (higher than 1.0E-05)
            1           2           3           4           5           6
    1   1.9863979   1.9774117   1.9774117   0.9989582   0.9858730   0.0212426
            7           8           9          10          11          12
    1   0.0212426   0.0194123   0.0079304   0.0010463   0.0007420   0.0007420
           13          14          15          16          17          18
    1   0.0007062   0.0003772   0.0001313   0.0001313   0.0000590   0.0000590
           19          20          21          22          23
    1   0.0000388   0.0000145   0.0000145   0.0000112   0.0000112

 Head-Gordon Nu:    2.12
 Head-Gordon Nu_nl: 2.01

  Amplitudes : 
  
 | HOLE  | ALPHA  | BETA   | PART  |    AMPLITUDE 
--------------------------------------------------
 |       | 110110 | 010111 |       |     1.1366161807114E-01
 |       | 011110 | 010111 |       |    -5.6639608962413E-01
 |       | 011110 | 001111 |       |     1.0426318750707E-01
 |       | 010111 | 110110 |       |    -1.1366159830456E-01
 |       | 010111 | 011110 |       |     5.6639609225153E-01
 |       | 001111 | 011110 |       |    -1.0426315311068E-01
 |       | 010110 | 011110 |  10   |     1.1172113251012E-01
 |       | 011110 | 010110 |  10   |    -1.1172114750830E-01
 |       | 010101 | 011110 |  21   |     1.0092445350348E-01
 |       | 011110 | 010101 |  21   |    -1.0092446249730E-01
 |       | 010011 | 011110 |  20   |    -1.0092445757995E-01
 |       | 011110 | 010011 |  20   |     1.0092446664640E-01
 |       | 011100 | 010111 |  21   |     1.0278810366049E-01
 |       | 010111 | 011100 |  21   |    -1.0278812515325E-01
 |       | 011010 | 010111 |  20   |    -1.0278809909428E-01
 |       | 010111 | 011010 |  20   |     1.0278812028489E-01
--------------------------------------------------
*** Contributions RASCI wfn    Active:  71.23
                                 Hole:   0.00
                                 Part:  28.77

      Mulliken population analysis 
 ---------------------------------------------------
   Atom    Charge (a.u.)   Spin (a.u.)  
 ---------------------------------------------------
   1  N    0.819161        0.000000 
   2  H   -0.820016       -0.000000 
 ---------------------------------------------------
   Sum:   -0.000856       -0.000000 
 ---------------------------------------------------
 
  
 NATURAL OCCUPATION NUMBERS (higher than 1.0E-05)
            1           2           3           4           5           6
    1   1.9863979   1.9774117   1.9774117   0.9989582   0.9858730   0.0212426
            7           8           9          10          11          12
    1   0.0212426   0.0194123   0.0079304   0.0010463   0.0007420   0.0007420
           13          14          15          16          17          18
    1   0.0007062   0.0003772   0.0001313   0.0001313   0.0000590   0.0000590
           19          20          21          22          23
    1   0.0000388   0.0000145   0.0000145   0.0000112   0.0000112
  
*** Unpaired Electrons
 Yamaguchi Nd:         2.26
 Head-Gordon Nu:       2.12
 Head-Gordon Nu_nl:    2.01
  
**************************************************
 RAS-CI total energy for state   7:    -22.791851105035
  Excitation energy (eV) = 16.566186373596
  State symmetry: A1    (C2v      )
  <S^2>      :  0.0000
  Dipole Moment:   -0.0000 X    -0.0000 Y     1.6106 Z
  Trans. Moment:   -0.0000 X     0.0000 Y     0.7141 Z
  Strength   :  0.206959
  Natural transition orbitals ( 1 -> 7 ):
   e-/hole pair  1:  ampl =  0.980469 ( 96.1%)   [6 : 7]
   e-/hole pair  2:  ampl =  0.033030 (  0.1%)   [5 : 8]
   Sum of square amplitudes: 0.96

 NATURAL OCCUPATION NUMBERS (higher than 1.0E-05)
            1           2           3           4           5           6
    1   1.9860919   1.9770906   1.9770906   1.1103839   0.8770856   0.0212803
            7           8           9          10          11          12
    1   0.0212803   0.0170740   0.0076901   0.0014953   0.0009772   0.0008224
           13          14          15          16          17          18
    1   0.0008224   0.0001789   0.0001789   0.0000822   0.0000738   0.0000738
           19          20          21          22
    1   0.0000631   0.0000631   0.0000478   0.0000109

 Head-Gordon Nu:    1.90
 Head-Gordon Nu_nl: 1.96

  Amplitudes : 
  
 | HOLE  | ALPHA  | BETA   | PART  |    AMPLITUDE 
--------------------------------------------------
 |       | 110110 | 010111 |       |    -1.1295924928653E-01
 |       | 011110 | 010111 |       |     5.5540807024677E-01
 |       | 010111 | 110110 |       |    -1.1295947299774E-01
 |       | 010111 | 011110 |       |     5.5540806875510E-01
 |       | 010111 | 010111 |       |    -1.7044420927452E-01
 |       | 011100 | 010111 |  21   |    -1.0105256095857E-01
 |       | 010111 | 011100 |  21   |    -1.0105257597231E-01
 |       | 011010 | 010111 |  20   |     1.0105255700916E-01
 |       | 010111 | 011010 |  20   |     1.0105257943674E-01
 |       | 010110 | 010111 |  10   |    -1.0786787060350E-01
 |       | 010111 | 010110 |  10   |    -1.0786713229916E-01
--------------------------------------------------
*** Contributions RASCI wfn    Active:  72.14
                                 Hole:   0.00
                                 Part:  27.86

      Mulliken population analysis 
 ---------------------------------------------------
   Atom    Charge (a.u.)   Spin (a.u.)  
 ---------------------------------------------------
   1  N    0.819731        0.000001 
   2  H   -0.820575       -0.000001 
 ---------------------------------------------------
   Sum:   -0.000844       -0.000000 
 ---------------------------------------------------
 
  
 NATURAL OCCUPATION NUMBERS (higher than 1.0E-05)
            1           2           3           4           5           6
    1   1.9860919   1.9770906   1.9770906   1.1103839   0.8770856   0.0212803
            7           8           9          10          11          12
    1   0.0212803   0.0170740   0.0076901   0.0014953   0.0009772   0.0008224
           13          14          15          16          17          18
    1   0.0008224   0.0001789   0.0001789   0.0000822   0.0000738   0.0000738
           19          20          21          22
    1   0.0000631   0.0000631   0.0000478   0.0000109
  
*** Unpaired Electrons
 Yamaguchi Nd:         2.23
 Head-Gordon Nu:       1.90
 Head-Gordon Nu_nl:    1.96
  
**************************************************
 RAS-CI total energy for state   8:    -22.648241123334
  Excitation energy (eV) = 20.474012799665
  State symmetry: B2    (C2v      )
  <S^2>      :  2.0000
  Dipole Moment:   -0.0000 X     0.0000 Y    -2.0981 Z
  Trans. Moment:   -0.0000 X     0.0000 Y    -0.0000 Z
  Strength   :  0.000000
  Natural transition orbitals ( 1 -> 8 ):
   e-/hole pair  1:  ampl =  0.984750 ( 97.0%)   [6 : 7]
   e-/hole pair  2:  ampl =  0.024195 (  0.1%)   [5 : 8]
   Sum of square amplitudes: 0.97

 NATURAL OCCUPATION NUMBERS (higher than 1.0E-05)
            1           2           3           4           5           6
    1   1.9876612   1.9775065   1.9760216   0.9971331   0.9904992   0.0232927
            7           8           9          10          11          12
    1   0.0213618   0.0123850   0.0098014   0.0014443   0.0008364   0.0007015
           13          14          15          16          17          18
    1   0.0006714   0.0001457   0.0001366   0.0000648   0.0000526   0.0000513
           19          20          21          22          23          24
    1   0.0000487   0.0000416   0.0000310   0.0000257   0.0000169   0.0000152
           25          26          27
    1   0.0000150   0.0000120   0.0000103

 Head-Gordon Nu:    2.12
 Head-Gordon Nu_nl: 2.01

  Amplitudes : 
  
 | HOLE  | ALPHA  | BETA   | PART  |    AMPLITUDE 
--------------------------------------------------
 |       | 111100 | 110110 |       |    -1.1328081892202E-01
 |       | 111100 | 011110 |       |     5.7011112887955E-01
 |       | 110110 | 111100 |       |     1.1328081892199E-01
 |       | 011110 | 111100 |       |    -5.7011112887940E-01
 |       | 011100 | 111100 |  21   |     1.0870665484333E-01
 |       | 111100 | 011100 |  21   |    -1.0870665484336E-01
 |       | 011010 | 111100 |  20   |    -1.0572818806066E-01
 |       | 111100 | 011010 |  20   |     1.0572818806068E-01
 |       | 111000 | 011110 |  20   |    -1.0410814953541E-01
 |       | 011110 | 111000 |  20   |     1.0410814953539E-01
--------------------------------------------------
*** Contributions RASCI wfn    Active:  72.24
                                 Hole:   0.00
                                 Part:  27.76

      Mulliken population analysis 
 ---------------------------------------------------
   Atom    Charge (a.u.)   Spin (a.u.)  
 ---------------------------------------------------
   1  N   -0.616690        0.000000 
   2  H    0.615863       -0.000000 
 ---------------------------------------------------
   Sum:   -0.000827       -0.000000 
 ---------------------------------------------------
 
  
 NATURAL OCCUPATION NUMBERS (higher than 1.0E-05)
            1           2           3           4           5           6
    1   1.9876612   1.9775065   1.9760216   0.9971331   0.9904992   0.0232927
            7           8           9          10          11          12
    1   0.0213618   0.0123850   0.0098014   0.0014443   0.0008364   0.0007015
           13          14          15          16          17          18
    1   0.0006714   0.0001457   0.0001366   0.0000648   0.0000526   0.0000513
           19          20          21          22          23          24
    1   0.0000487   0.0000416   0.0000310   0.0000257   0.0000169   0.0000152
           25          26          27
    1   0.0000150   0.0000120   0.0000103
  
*** Unpaired Electrons
 Yamaguchi Nd:         2.26
 Head-Gordon Nu:       2.12
 Head-Gordon Nu_nl:    2.01
  
**************************************************
 RAS-CI total energy for state   9:    -22.648241123299
  Excitation energy (eV) = 20.474012800611
  State symmetry: B1    (C2v      )
  <S^2>      :  2.0000
  Dipole Moment:   -0.0000 X     0.0000 Y    -2.0981 Z
  Trans. Moment:   -0.0000 X    -0.0000 Y     0.0000 Z
  Strength   :  0.000000
  Natural transition orbitals ( 1 -> 9 ):
   e-/hole pair  1:  ampl =  0.984750 ( 97.0%)   [6 : 7]
   e-/hole pair  2:  ampl =  0.024195 (  0.1%)   [5 : 8]
   Sum of square amplitudes: 0.97

 NATURAL OCCUPATION NUMBERS (higher than 1.0E-05)
            1           2           3           4           5           6
    1   1.9876612   1.9775065   1.9760216   0.9971331   0.9904992   0.0232927
            7           8           9          10          11          12
    1   0.0213618   0.0123850   0.0098014   0.0014443   0.0008363   0.0007015
           13          14          15          16          17          18
    1   0.0006714   0.0001457   0.0001366   0.0000648   0.0000526   0.0000513
           19          20          21          22          23          24
    1   0.0000487   0.0000416   0.0000310   0.0000257   0.0000169   0.0000152
           25          26          27
    1   0.0000150   0.0000120   0.0000103

 Head-Gordon Nu:    2.12
 Head-Gordon Nu_nl: 2.01

  Amplitudes : 
  
 | HOLE  | ALPHA  | BETA   | PART  |    AMPLITUDE 
--------------------------------------------------
 |       | 111010 | 110110 |       |     1.1328065702002E-01
 |       | 111010 | 011110 |       |    -5.7011112891872E-01
 |       | 110110 | 111010 |       |    -1.1328065702013E-01
 |       | 011110 | 111010 |       |     5.7011112891926E-01
 |       | 011100 | 111010 |  21   |    -1.0572817958330E-01
 |       | 111010 | 011100 |  21   |     1.0572817958320E-01
 |       | 011010 | 111010 |  20   |     1.0870656830092E-01
 |       | 111010 | 011010 |  20   |    -1.0870656830082E-01
 |       | 111000 | 011110 |  21   |     1.0410814789451E-01
 |       | 011110 | 111000 |  21   |    -1.0410814789461E-01
--------------------------------------------------
*** Contributions RASCI wfn    Active:  72.24
                                 Hole:   0.00
                                 Part:  27.76

      Mulliken population analysis 
 ---------------------------------------------------
   Atom    Charge (a.u.)   Spin (a.u.)  
 ---------------------------------------------------
   1  N   -0.616690       -0.000000 
   2  H    0.615863        0.000000 
 ---------------------------------------------------
   Sum:   -0.000827       -0.000000 
 ---------------------------------------------------
 
  
 NATURAL OCCUPATION NUMBERS (higher than 1.0E-05)
            1           2           3           4           5           6
    1   1.9876612   1.9775065   1.9760216   0.9971331   0.9904992   0.0232927
            7           8           9          10          11          12
    1   0.0213618   0.0123850   0.0098014   0.0014443   0.0008363   0.0007015
           13          14          15          16          17          18
    1   0.0006714   0.0001457   0.0001366   0.0000648   0.0000526   0.0000513
           19          20          21          22          23          24
    1   0.0000487   0.0000416   0.0000310   0.0000257   0.0000169   0.0000152
           25          26          27
    1   0.0000150   0.0000120   0.0000103
  
*** Unpaired Electrons
 Yamaguchi Nd:         2.26
 Head-Gordon Nu:       2.12
 Head-Gordon Nu_nl:    2.01
  
**************************************************
 RAS-CI total energy for state  10:    -22.630414588613
  Excitation energy (eV) = 20.959097489771
  State symmetry: B2    (C2v      )
  <S^2>      :  0.0000
  Dipole Moment:    0.0000 X     0.0000 Y    -2.1749 Z
  Trans. Moment:    0.0001 X     0.4439 Y     0.0000 Z
  Strength   :  0.101188
  Natural transition orbitals ( 1 -> 10 ):
   e-/hole pair  1:  ampl =  0.983634 ( 96.8%)   [6 : 7]
   e-/hole pair  2:  ampl =  0.008467 (  0.0%)   [5 : 8]
   Sum of square amplitudes: 0.97

 NATURAL OCCUPATION NUMBERS (higher than 1.0E-05)
            1           2           3           4           5           6
    1   1.9879186   1.9775520   1.9764327   0.9983458   0.9895947   0.0231205
            7           8           9          10          11          12
    1   0.0213056   0.0121606   0.0094822   0.0013554   0.0007255   0.0007111
           13          14          15          16          17          18
    1   0.0006743   0.0001062   0.0000934   0.0000931   0.0000650   0.0000503
           19          20          21          22          23          24
    1   0.0000473   0.0000418   0.0000284   0.0000256   0.0000185   0.0000163
           25
    1   0.0000112

 Head-Gordon Nu:    2.12
 Head-Gordon Nu_nl: 2.01

  Amplitudes : 
  
 | HOLE  | ALPHA  | BETA   | PART  |    AMPLITUDE 
--------------------------------------------------
 |       | 111100 | 110110 |       |    -1.2202621282504E-01
 |       | 111100 | 011110 |       |     5.6824257875656E-01
 |       | 110110 | 111100 |       |    -1.2202621282507E-01
 |       | 011110 | 111100 |       |     5.6824257875671E-01
 |       | 011100 | 111100 |  21   |    -1.0829287908129E-01
 |       | 111100 | 011100 |  21   |    -1.0829287908126E-01
 |       | 011010 | 111100 |  20   |     1.0534786212354E-01
 |       | 111100 | 011010 |  20   |     1.0534786212351E-01
 |       | 111000 | 011110 |  20   |    -1.0363573165478E-01
 |       | 011110 | 111000 |  20   |    -1.0363573165481E-01
--------------------------------------------------
*** Contributions RASCI wfn    Active:  72.31
                                 Hole:   0.00
                                 Part:  27.69

      Mulliken population analysis 
 ---------------------------------------------------
   Atom    Charge (a.u.)   Spin (a.u.)  
 ---------------------------------------------------
   1  N   -0.619073       -0.000000 
   2  H    0.618245        0.000000 
 ---------------------------------------------------
   Sum:   -0.000828       -0.000000 
 ---------------------------------------------------
 
  
 NATURAL OCCUPATION NUMBERS (higher than 1.0E-05)
            1           2           3           4           5           6
    1   1.9879186   1.9775520   1.9764327   0.9983458   0.9895947   0.0231205
            7           8           9          10          11          12
    1   0.0213056   0.0121606   0.0094822   0.0013554   0.0007255   0.0007111
           13          14          15          16          17          18
    1   0.0006743   0.0001062   0.0000934   0.0000931   0.0000650   0.0000503
           19          20          21          22          23          24
    1   0.0000473   0.0000418   0.0000284   0.0000256   0.0000185   0.0000163
           25
    1   0.0000112
  
*** Unpaired Electrons
 Yamaguchi Nd:         2.25
 Head-Gordon Nu:       2.12
 Head-Gordon Nu_nl:    2.01
  
**************************************************
 RAS-CI total energy for state  11:    -22.630414588292
  Excitation energy (eV) = 20.959097498488
  State symmetry: B1    (C2v      )
  <S^2>      :  0.0000
  Dipole Moment:    0.0000 X     0.0000 Y    -2.1749 Z
  Trans. Moment:   -0.4439 X     0.0001 Y    -0.0000 Z
  Strength   :  0.101188
  Natural transition orbitals ( 1 -> 11 ):
   e-/hole pair  1:  ampl =  0.983634 ( 96.8%)   [6 : 7]
   e-/hole pair  2:  ampl =  0.008467 (  0.0%)   [5 : 8]
   Sum of square amplitudes: 0.97

 NATURAL OCCUPATION NUMBERS (higher than 1.0E-05)
            1           2           3           4           5           6
    1   1.9879186   1.9775521   1.9764326   0.9983458   0.9895949   0.0231206
            7           8           9          10          11          12
    1   0.0213055   0.0121606   0.0094822   0.0013553   0.0007255   0.0007111
           13          14          15          16          17          18
    1   0.0006743   0.0001062   0.0000934   0.0000932   0.0000650   0.0000503
           19          20          21          22          23          24
    1   0.0000473   0.0000418   0.0000284   0.0000256   0.0000185   0.0000163
           25
    1   0.0000112

 Head-Gordon Nu:    2.12
 Head-Gordon Nu_nl: 2.01

  Amplitudes : 
  
 | HOLE  | ALPHA  | BETA   | PART  |    AMPLITUDE 
--------------------------------------------------
 |       | 111010 | 110110 |       |    -1.2202612315777E-01
 |       | 111010 | 011110 |       |     5.6824257814448E-01
 |       | 110110 | 111010 |       |    -1.2202612315766E-01
 |       | 011110 | 111010 |       |     5.6824257814394E-01
 |       | 011100 | 111010 |  21   |    -1.0534766698053E-01
 |       | 111010 | 011100 |  21   |    -1.0534766698063E-01
 |       | 011010 | 111010 |  20   |     1.0829263831495E-01
 |       | 111010 | 011010 |  20   |     1.0829263831505E-01
 |       | 111000 | 011110 |  21   |    -1.0363574557973E-01
 |       | 011110 | 111000 |  21   |    -1.0363574557963E-01
--------------------------------------------------
*** Contributions RASCI wfn    Active:  72.31
                                 Hole:   0.00
                                 Part:  27.69

      Mulliken population analysis 
 ---------------------------------------------------
   Atom    Charge (a.u.)   Spin (a.u.)  
 ---------------------------------------------------
   1  N   -0.619075        0.000000 
   2  H    0.618247       -0.000000 
 ---------------------------------------------------
   Sum:   -0.000828       -0.000000 
 ---------------------------------------------------
 
  
 NATURAL OCCUPATION NUMBERS (higher than 1.0E-05)
            1           2           3           4           5           6
    1   1.9879186   1.9775521   1.9764326   0.9983458   0.9895949   0.0231206
            7           8           9          10          11          12
    1   0.0213055   0.0121606   0.0094822   0.0013553   0.0007255   0.0007111
           13          14          15          16          17          18
    1   0.0006743   0.0001062   0.0000934   0.0000932   0.0000650   0.0000503
           19          20          21          22          23          24
    1   0.0000473   0.0000418   0.0000284   0.0000256   0.0000185   0.0000163
           25
    1   0.0000112
  
*** Unpaired Electrons
 Yamaguchi Nd:         2.25
 Head-Gordon Nu:       2.12
 Head-Gordon Nu_nl:    2.01
  
**************************************************
 RAS-CI total energy for state  12:    -22.571898107169
  Excitation energy (eV) = 22.551411964288
  State symmetry: A1    (C2v      )
  <S^2>      :  2.0000
  Dipole Moment:    0.0000 X    -0.0000 Y    -2.1306 Z
  Trans. Moment:    0.0000 X     0.0000 Y     0.0000 Z
  Strength   :  0.000000
  Natural transition orbitals ( 1 -> 12 ):
   e-/hole pair  1:  ampl =  0.985701 ( 97.2%)   [6 : 7]
   e-/hole pair  2:  ampl =  0.052631 (  0.3%)   [5 : 8]
   Sum of square amplitudes: 0.98

 NATURAL OCCUPATION NUMBERS (higher than 1.0E-05)
            1           2           3           4           5           6
    1   1.9840794   1.9769725   1.9769724   0.9994347   0.9894894   0.0212798
            7           8           9          10          11          12
    1   0.0212798   0.0148435   0.0088644   0.0031592   0.0008708   0.0008330
           13          14          15          16          17          18
    1   0.0008330   0.0002463   0.0002463   0.0001309   0.0001309   0.0001085
           19          20          21          22          23          24
    1   0.0000524   0.0000524   0.0000412   0.0000186   0.0000146   0.0000146

 Head-Gordon Nu:    2.12
 Head-Gordon Nu_nl: 2.01

  Amplitudes : 
  
 | HOLE  | ALPHA  | BETA   | PART  |    AMPLITUDE 
--------------------------------------------------
 |       | 110110 | 011110 |       |     5.8534778876263E-01
 |       | 011110 | 110110 |       |    -5.8534745640356E-01
 |       | 011100 | 110110 |  21   |     1.0662653691161E-01
 |       | 110110 | 011100 |  21   |    -1.0662677488092E-01
 |       | 011010 | 110110 |  20   |    -1.0662661931695E-01
 |       | 110110 | 011010 |  20   |     1.0662682020623E-01
 |       | 110100 | 011110 |  21   |    -1.0669530467238E-01
 |       | 011110 | 110100 |  21   |     1.0669550016971E-01
 |       | 110010 | 011110 |  20   |     1.0669522968351E-01
 |       | 011110 | 110010 |  20   |    -1.0669546347634E-01
--------------------------------------------------
*** Contributions RASCI wfn    Active:  72.42
                                 Hole:   0.00
                                 Part:  27.58

      Mulliken population analysis 
 ---------------------------------------------------
   Atom    Charge (a.u.)   Spin (a.u.)  
 ---------------------------------------------------
   1  N   -0.760311        0.000001 
   2  H    0.759511       -0.000001 
 ---------------------------------------------------
   Sum:   -0.000801        0.000000 
 ---------------------------------------------------
 
  
 NATURAL OCCUPATION NUMBERS (higher than 1.0E-05)
            1           2           3           4           5           6
    1   1.9840794   1.9769725   1.9769724   0.9994347   0.9894894   0.0212798
            7           8           9          10          11          12
    1   0.0212798   0.0148435   0.0088644   0.0031592   0.0008708   0.0008330
           13          14          15          16          17          18
    1   0.0008330   0.0002463   0.0002463   0.0001309   0.0001309   0.0001085
           19          20          21          22          23          24
    1   0.0000524   0.0000524   0.0000412   0.0000186   0.0000146   0.0000146
  
*** Unpaired Electrons
 Yamaguchi Nd:         2.27
 Head-Gordon Nu:       2.12
 Head-Gordon Nu_nl:    2.01
  
**************************************************
 RAS-CI total energy for state  13:    -22.525821389675
  Excitation energy (eV) = 23.805223239228
  State symmetry: A1    (C2v      )
  <S^2>      :  0.0000
  Dipole Moment:   -0.0000 X    -0.0000 Y    -1.9274 Z
  Trans. Moment:   -0.0000 X     0.0000 Y    -0.3252 Z
  Strength   :  0.061679
  Natural transition orbitals ( 1 -> 13 ):
   e-/hole pair  1:  ampl =  0.981807 ( 96.4%)   [6 : 7]
   e-/hole pair  2:  ampl =  0.024023 (  0.1%)   [5 : 8]
   Sum of square amplitudes: 0.97

 NATURAL OCCUPATION NUMBERS (higher than 1.0E-05)
            1           2           3           4           5           6
    1   1.9869876   1.9773325   1.9773325   1.1417385   0.8483604   0.0209249
            7           8           9          10          11          12
    1   0.0209249   0.0132455   0.0082446   0.0014843   0.0008735   0.0008217
           13          14          15          16          17          18
    1   0.0008217   0.0002016   0.0002016   0.0001008   0.0001008   0.0000991
           19          20          21          22          23          24
    1   0.0000626   0.0000325   0.0000288   0.0000288   0.0000115   0.0000115

 Head-Gordon Nu:    1.83
 Head-Gordon Nu_nl: 1.92

  Amplitudes : 
  
 | HOLE  | ALPHA  | BETA   | PART  |    AMPLITUDE 
--------------------------------------------------
 |       | 110110 | 110110 |       |    -2.4593389760512E-01
 |       | 110110 | 011110 |       |     5.5095748103046E-01
 |       | 011110 | 110110 |       |     5.5095715830690E-01
 |       | 011110 | 011110 |       |     1.4301743267188E-01
 |       | 011100 | 110110 |  21   |    -1.0083059212935E-01
 |       | 110110 | 011100 |  21   |    -1.0083043174574E-01
 |       | 011010 | 110110 |  20   |     1.0083069968050E-01
 |       | 110110 | 011010 |  20   |     1.0083038001801E-01
--------------------------------------------------
*** Contributions RASCI wfn    Active:  73.17
                                 Hole:   0.00
                                 Part:  26.83

      Mulliken population analysis 
 ---------------------------------------------------
   Atom    Charge (a.u.)   Spin (a.u.)  
 ---------------------------------------------------
   1  N   -0.749014        0.000001 
   2  H    0.748201       -0.000001 
 ---------------------------------------------------
   Sum:   -0.000813        0.000000 
 ---------------------------------------------------
 
  
 NATURAL OCCUPATION NUMBERS (higher than 1.0E-05)
            1           2           3           4           5           6
    1   1.9869876   1.9773325   1.9773325   1.1417385   0.8483604   0.0209249
            7           8           9          10          11          12
    1   0.0209249   0.0132455   0.0082446   0.0014843   0.0008735   0.0008217
           13          14          15          16          17          18
    1   0.0008217   0.0002016   0.0002016   0.0001008   0.0001008   0.0000991
           19          20          21          22          23          24
    1   0.0000626   0.0000325   0.0000288   0.0000288   0.0000115   0.0000115
  
*** Unpaired Electrons
 Yamaguchi Nd:         2.21
 Head-Gordon Nu:       1.83
 Head-Gordon Nu_nl:    1.92
  
**************************************************
 RAS-CI total energy for state  14:    -22.317606365242
  Excitation energy (eV) = 29.471042321913
  State symmetry: A1    (C2v      )
  <S^2>      :  2.0000
  Dipole Moment:   -0.0000 X     0.0000 Y     1.5548 Z
  Trans. Moment:   -0.0000 X     0.0000 Y    -0.0000 Z
  Strength   :  0.000000
  Natural transition orbitals ( 1 -> 14 ):
   e-/hole pair  1:  ampl =  0.973252 ( 94.7%)   [6 : 7]
   e-/hole pair  2:  ampl =  0.101830 (  1.0%)   [5 : 8]
   Sum of square amplitudes: 0.96

 NATURAL OCCUPATION NUMBERS (higher than 1.0E-05)
            1           2           3           4           5           6
    1   1.9674581   1.9674581   1.9552032   1.0241287   0.9776097   0.0354152
            7           8           9          10          11          12
    1   0.0236890   0.0236890   0.0095031   0.0038180   0.0022859   0.0020641
           13          14          15          16          17          18
    1   0.0020641   0.0019189   0.0019189   0.0005929   0.0005296   0.0005296
           19          20          21
    1   0.0000558   0.0000164   0.0000164

 Head-Gordon Nu:    2.17
 Head-Gordon Nu_nl: 2.02

  Amplitudes : 
  
 | HOLE  | ALPHA  | BETA   | PART  |    AMPLITUDE 
--------------------------------------------------
 |       | 110110 | 001111 |       |    -1.0808141805378E-01
 |       | 011110 | 001111 |       |     5.4885814236546E-01
 |       | 001111 | 110110 |       |     1.0808136167970E-01
 |       | 001111 | 011110 |       |    -5.4885837620791E-01
 |       | 001110 | 011110 |  10   |    -1.1937480149331E-01
 |       | 011110 | 001110 |  10   |     1.1937566792080E-01
--------------------------------------------------
*** Contributions RASCI wfn    Active:  68.62
                                 Hole:   0.00
                                 Part:  31.38

      Mulliken population analysis 
 ---------------------------------------------------
   Atom    Charge (a.u.)   Spin (a.u.)  
 ---------------------------------------------------
   1  N    0.942169       -0.000001 
   2  H   -0.942629        0.000001 
 ---------------------------------------------------
   Sum:   -0.000460       -0.000000 
 ---------------------------------------------------
 
  
 NATURAL OCCUPATION NUMBERS (higher than 1.0E-05)
            1           2           3           4           5           6
    1   1.9674581   1.9674581   1.9552032   1.0241287   0.9776097   0.0354152
            7           8           9          10          11          12
    1   0.0236890   0.0236890   0.0095031   0.0038180   0.0022859   0.0020641
           13          14          15          16          17          18
    1   0.0020641   0.0019189   0.0019189   0.0005929   0.0005296   0.0005296
           19          20          21
    1   0.0000558   0.0000164   0.0000164
  
*** Unpaired Electrons
 Yamaguchi Nd:         2.43
 Head-Gordon Nu:       2.17
 Head-Gordon Nu_nl:    2.02
  
**************************************************
 RAS-CI total energy for state  15:    -22.285805873895
  Excitation energy (eV) = 30.336377718364
  State symmetry: A1    (C2v      )
  <S^2>      :  0.0000
  Dipole Moment:   -0.0000 X    -0.0000 Y     1.6794 Z
  Trans. Moment:   -0.0000 X    -0.0000 Y    -0.1748 Z
  Strength   :  0.022699
  Natural transition orbitals ( 1 -> 15 ):
   e-/hole pair  1:  ampl =  0.974396 ( 94.9%)   [6 : 7]
   e-/hole pair  2:  ampl =  0.019200 (  0.0%)   [5 : 8]
   Sum of square amplitudes: 0.95

 NATURAL OCCUPATION NUMBERS (higher than 1.0E-05)
            1           2           3           4           5           6
    1   1.9643562   1.9600505   1.9600504   1.0927726   0.9324721   0.0262547
            7           8           9          10          11          12
    1   0.0217405   0.0217405   0.0069537   0.0030706   0.0020394   0.0020394
           13          14          15          16          17          18
    1   0.0019520   0.0019520   0.0019032   0.0002499   0.0001509   0.0001509
           19          20          21          22
    1   0.0000331   0.0000123   0.0000123   0.0000109

 Head-Gordon Nu:    2.05
 Head-Gordon Nu_nl: 2.00

  Amplitudes : 
  
 | HOLE  | ALPHA  | BETA   | PART  |    AMPLITUDE 
--------------------------------------------------
 |       | 110110 | 001111 |       |    -1.0263541334919E-01
 |       | 011110 | 001111 |       |     5.4712494645169E-01
 |       | 001111 | 110110 |       |    -1.0263474757247E-01
 |       | 001111 | 011110 |       |     5.4712530333226E-01
 |       | 001111 | 001111 |       |     1.5613975267101E-01
--------------------------------------------------
*** Contributions RASCI wfn    Active:  70.30
                                 Hole:   0.00
                                 Part:  29.70

      Mulliken population analysis 
 ---------------------------------------------------
   Atom    Charge (a.u.)   Spin (a.u.)  
 ---------------------------------------------------
   1  N    0.920218       -0.000000 
   2  H   -0.920690        0.000000 
 ---------------------------------------------------
   Sum:   -0.000472        0.000000 
 ---------------------------------------------------
 
  
 NATURAL OCCUPATION NUMBERS (higher than 1.0E-05)
            1           2           3           4           5           6
    1   1.9643562   1.9600505   1.9600504   1.0927726   0.9324721   0.0262547
            7           8           9          10          11          12
    1   0.0217405   0.0217405   0.0069537   0.0030706   0.0020394   0.0020394
           13          14          15          16          17          18
    1   0.0019520   0.0019520   0.0019032   0.0002499   0.0001509   0.0001509
           19          20          21          22
    1   0.0000331   0.0000123   0.0000123   0.0000109
  
*** Unpaired Electrons
 Yamaguchi Nd:         2.39
 Head-Gordon Nu:       2.05
 Head-Gordon Nu_nl:    2.00
  
**************************************************
 RAS-CI total energy for state  16:    -22.062369857740
  Excitation energy (eV) = 36.416381058825
  State symmetry: A2    (C2v      )
  <S^2>      :  2.0000
  Dipole Moment:    0.0000 X    -0.0000 Y     2.1391 Z
  Trans. Moment:   -0.0000 X    -0.0000 Y    -0.0000 Z
  Strength   :  0.000000
  Natural transition orbitals ( 1 -> 16 ):
   e-/hole pair  1:  ampl =  0.010854 (  0.0%)   [6 : 7]
   e-/hole pair  2:  ampl =  0.010854 (  0.0%)   [5 : 8]
   Sum of square amplitudes: 0.00

 NATURAL OCCUPATION NUMBERS (higher than 1.0E-05)
            1           2           3           4           5           6
    1   1.9844626   1.9694468   1.9208237   0.9847984   0.9847984   0.0626879
            7           8           9          10          11          12
    1   0.0408509   0.0171520   0.0171520   0.0134331   0.0008205   0.0008205
           13          14          15          16          17          18
    1   0.0007088   0.0006302   0.0006302   0.0001507   0.0001454   0.0001454
           19          20          21          22          23          24
    1   0.0000603   0.0000398   0.0000398   0.0000378   0.0000365   0.0000365
           25          26          27
    1   0.0000266   0.0000266   0.0000246

 Head-Gordon Nu:    2.25
 Head-Gordon Nu_nl: 2.05

  Amplitudes : 
  
 | HOLE  | ALPHA  | BETA   | PART  |    AMPLITUDE 
--------------------------------------------------
 |       | 111100 | 011011 |       |     1.9603280444090E-01
 |       | 111010 | 011101 |       |    -1.9603280668095E-01
 |       | 110101 | 011011 |       |     1.3415389329348E-01
 |       | 110011 | 011101 |       |    -1.3415389430768E-01
 |       | 011101 | 111010 |       |     1.9603280480760E-01
 |       | 011101 | 110011 |       |     1.3415389334124E-01
 |       | 011101 | 011011 |       |    -4.5981420124379E-01
 |       | 011011 | 111100 |       |    -1.9603280631646E-01
 |       | 011011 | 110101 |       |    -1.3415389426026E-01
 |       | 011011 | 011101 |       |     4.5981420417573E-01
--------------------------------------------------
*** Contributions RASCI wfn    Active:  66.56
                                 Hole:   0.00
                                 Part:  33.44

      Mulliken population analysis 
 ---------------------------------------------------
   Atom    Charge (a.u.)   Spin (a.u.)  
 ---------------------------------------------------
   1  N    1.916955       -0.000000 
   2  H   -1.917946        0.000000 
 ---------------------------------------------------
   Sum:   -0.000991       -0.000000 
 ---------------------------------------------------
 
  
 NATURAL OCCUPATION NUMBERS (higher than 1.0E-05)
            1           2           3           4           5           6
    1   1.9844626   1.9694468   1.9208237   0.9847984   0.9847984   0.0626879
            7           8           9          10          11          12
    1   0.0408509   0.0171520   0.0171520   0.0134331   0.0008205   0.0008205
           13          14          15          16          17          18
    1   0.0007088   0.0006302   0.0006302   0.0001507   0.0001454   0.0001454
           19          20          21          22          23          24
    1   0.0000603   0.0000398   0.0000398   0.0000378   0.0000365   0.0000365
           25          26          27
    1   0.0000266   0.0000266   0.0000246
  
*** Unpaired Electrons
 Yamaguchi Nd:         2.55
 Head-Gordon Nu:       2.25
 Head-Gordon Nu_nl:    2.05
  
**************************************************
 RAS-CI total energy for state  17:    -22.041185027635
  Excitation energy (eV) = 36.992849615786
  State symmetry: A1    (C2v      )
  <S^2>      :  2.0000
  Dipole Moment:   -0.0000 X    -0.0000 Y    -2.1332 Z
  Trans. Moment:   -0.0000 X    -0.0000 Y    -0.0000 Z
  Strength   :  0.000000
  Natural transition orbitals ( 1 -> 17 ):
   e-/hole pair  1:  ampl =  0.949889 ( 90.2%)   [6 : 7]
   e-/hole pair  2:  ampl =  0.129771 (  1.7%)   [5 : 8]
   Sum of square amplitudes: 0.95

 NATURAL OCCUPATION NUMBERS (higher than 1.0E-05)
            1           2           3           4           5           6
    1   1.9532174   1.9378743   1.9378690   1.0723494   0.9451273   0.0399781
            7           8           9          10          11          12
    1   0.0399780   0.0363781   0.0161173   0.0073257   0.0024611   0.0024610
           13          14          15          16          17          18
    1   0.0018232   0.0016626   0.0016626   0.0015683   0.0015683   0.0004140
           19          20          21          22
    1   0.0000773   0.0000215   0.0000170   0.0000170

 Head-Gordon Nu:    2.20
 Head-Gordon Nu_nl: 2.04

  Amplitudes : 
  
 | HOLE  | ALPHA  | BETA   | PART  |    AMPLITUDE 
--------------------------------------------------
 |       | 110110 | 101110 |       |    -1.0702613584296E-01
 |       | 101110 | 110110 |       |     1.0702457126452E-01
 |       | 101110 | 011110 |       |    -5.5669278892264E-01
 |       | 011110 | 101110 |       |     5.5669369133743E-01
 |       | 101100 | 011110 |  21   |     1.0166471413204E-01
 |       | 011110 | 101100 |  21   |    -1.0166461674166E-01
 |       | 101010 | 011110 |  20   |    -1.0166515005496E-01
 |       | 011110 | 101010 |  20   |     1.0166487466246E-01
--------------------------------------------------
*** Contributions RASCI wfn    Active:  67.96
                                 Hole:   0.00
                                 Part:  32.04

      Mulliken population analysis 
 ---------------------------------------------------
   Atom    Charge (a.u.)   Spin (a.u.)  
 ---------------------------------------------------
   1  N   -0.624253       -0.000005 
   2  H    0.623821        0.000005 
 ---------------------------------------------------
   Sum:   -0.000432       -0.000000 
 ---------------------------------------------------
 
  
 NATURAL OCCUPATION NUMBERS (higher than 1.0E-05)
            1           2           3           4           5           6
    1   1.9532174   1.9378743   1.9378690   1.0723494   0.9451273   0.0399781
            7           8           9          10          11          12
    1   0.0399780   0.0363781   0.0161173   0.0073257   0.0024611   0.0024610
           13          14          15          16          17          18
    1   0.0018232   0.0016626   0.0016626   0.0015683   0.0015683   0.0004140
           19          20          21          22
    1   0.0000773   0.0000215   0.0000170   0.0000170
  
*** Unpaired Electrons
 Yamaguchi Nd:         2.63
 Head-Gordon Nu:       2.20
 Head-Gordon Nu_nl:    2.04
  
**************************************************
 RAS-CI total energy for state  18:    -22.015822337800
  Excitation energy (eV) = 37.683003520141
  State symmetry: A1    (C2v      )
  <S^2>      :  0.0000
  Dipole Moment:    0.0000 X     0.0000 Y    -2.3405 Z
  Trans. Moment:    0.0000 X    -0.0000 Y     0.1081 Z
  Strength   :  0.010794
  Natural transition orbitals ( 1 -> 18 ):
   e-/hole pair  1:  ampl =  0.960355 ( 92.2%)   [6 : 7]
   e-/hole pair  2:  ampl =  0.048216 (  0.2%)   [5 : 8]
   Sum of square amplitudes: 0.93

 NATURAL OCCUPATION NUMBERS (higher than 1.0E-05)
            1           2           3           4           5           6
    1   1.9452037   1.9414328   1.9414321   1.0798781   0.9570760   0.0554915
            7           8           9          10          11          12
    1   0.0210624   0.0210624   0.0194262   0.0060841   0.0024911   0.0021400
           13          14          15          16          17          18
    1   0.0021400   0.0019278   0.0019278   0.0003273   0.0003121   0.0003121
           19          20          21          22
    1   0.0001461   0.0000310   0.0000310   0.0000208

 Head-Gordon Nu:    2.18
 Head-Gordon Nu_nl: 2.04

  Amplitudes : 
  
 | HOLE  | ALPHA  | BETA   | PART  |    AMPLITUDE 
--------------------------------------------------
 |       | 110110 | 101110 |       |     1.1782133630960E-01
 |       | 101110 | 110110 |       |     1.1782219340321E-01
 |       | 101110 | 011110 |       |    -5.5448392226425E-01
 |       | 011110 | 101110 |       |    -5.5448373178282E-01
 |       | 011100 | 101110 |  21   |     1.0019315764253E-01
 |       | 101110 | 011100 |  21   |     1.0019311033573E-01
 |       | 011010 | 101110 |  20   |    -1.0019314954829E-01
 |       | 101110 | 011010 |  20   |    -1.0019311336652E-01
--------------------------------------------------
*** Contributions RASCI wfn    Active:  71.20
                                 Hole:   0.00
                                 Part:  28.80

      Mulliken population analysis 
 ---------------------------------------------------
   Atom    Charge (a.u.)   Spin (a.u.)  
 ---------------------------------------------------
   1  N   -0.575175        0.000001 
   2  H    0.574720       -0.000001 
 ---------------------------------------------------
   Sum:   -0.000455       -0.000000 
 ---------------------------------------------------
 
  
 NATURAL OCCUPATION NUMBERS (higher than 1.0E-05)
            1           2           3           4           5           6
    1   1.9452037   1.9414328   1.9414321   1.0798781   0.9570760   0.0554915
            7           8           9          10          11          12
    1   0.0210624   0.0210624   0.0194262   0.0060841   0.0024911   0.0021400
           13          14          15          16          17          18
    1   0.0021400   0.0019278   0.0019278   0.0003273   0.0003121   0.0003121
           19          20          21          22
    1   0.0001461   0.0000310   0.0000310   0.0000208
  
*** Unpaired Electrons
 Yamaguchi Nd:         2.59
 Head-Gordon Nu:       2.18
 Head-Gordon Nu_nl:    2.04
  
**************************************************
 RAS-CI total energy for state  19:    -22.015337923902
  Excitation energy (eV) = 37.696185092968
  State symmetry: B2    (C2v      )
  <S^2>      :  2.0000
  Dipole Moment:    0.0000 X     0.0000 Y     2.2211 Z
  Trans. Moment:   -0.0000 X    -0.0000 Y     0.0000 Z
  Strength   :  0.000000
[...]
    15   -6.043227875047e-17
    16   -4.130515641646e-17
    17    7.040029010515e-03
    18   -2.506149105352e-17
    19    2.897346213511e-16
    20    3.281521915527e-16
    21   -1.223278851222e-15
    22   -8.473176144435e-03
    23   -1.565568169734e-16
    24   -4.898700437207e-16
    25    3.934553771308e-17
    26    3.219868850592e-16
    27   -1.338719580983e-03
    28   -3.564805956931e-17
    29    7.209796790402e-18
    30    1.352412047471e-16
    31   -4.355846087699e-13
    32   -1.771347999281e-17
    33   -3.039837467931e-15
    34   -1.448695377099e-16
    35   -7.511175510766e-16
    36    9.058900974990e-03
    37    2.665658191654e-16
Sym=X
Ene= 0.476760
Spin=Alpha
Occup=0
     1    3.842598472039e-03
     2    2.880030285336e-03
     3    3.504942384928e-02
     4   -4.971814911176e-01
     5    2.352539297769e+00
     6    7.834376554934e-15
     7   -5.533217778610e-16
     8    6.247217178769e-02
     9    2.579000144329e-14
    10   -1.460086537462e-15
    11    2.725691261665e-01
    12   -4.351976881429e-14
    13    2.323828784062e-15
    14    1.678888968526e+00
    15   -3.356773459425e-02
    16    2.005396111245e-16
    17   -2.857940103644e-17
    18    1.140848222509e-11
    19   -4.539936430127e-17
    20    1.792129826886e-01
    21    1.194325966301e-16
    22    3.576482934178e-16
    23   -9.794883815989e-11
    24    2.166317463323e-17
    25    3.021589924589e-02
    26   -3.380425621602e-16
    27   -1.679285292995e-16
    28   -3.952397681215e-12
    29   -1.714862797556e-17
    30    1.577573116922e-17
    31    3.968548626151e-17
    32   -8.625592700977e-02
    33   -2.001849340381e+00
    34   -6.540364685875e-01
    35    3.183022048856e-16
    36   -1.350315336787e-16
    37    1.409910928140e-01
Sym=X
Ene= 0.636165
Spin=Alpha
Occup=0
     1    3.331691653810e-02
     2    7.081883305715e-02
     3    1.036208868982e-01
     4   -1.605465921190e+00
     5    2.597070317240e+00
     6    2.266280296004e-16
     7   -5.276197936748e-16
     8   -2.989358858758e-01
     9    7.319369880516e-16
    10   -5.168762457549e-16
    11   -1.029140501726e+00
    12   -9.772633021591e-16
    13    7.288207944828e-16
    14    1.568276459100e+00
    15   -2.864809210137e-03
    16   -1.148207432688e-17
    17    8.511456717017e-17
    18    5.053267586209e-12
    19    5.370822449128e-17
    20   -3.817737473011e-02
    21    3.742880907431e-16
    22    6.052767513526e-16
    23   -3.672202465810e-11
    24   -2.840737939341e-17
    25   -1.562322529217e-02
    26   -3.272829391264e-16
    27   -2.516064089384e-16
    28    1.389999649008e-12
    29   -2.197719271545e-17
    30    5.078846202087e-17
    31    8.557663981789e-17
    32    9.109215946676e-02
    33    1.031134636463e+00
    34   -2.335267462012e+00
    35   -8.499692140228e-16
    36    4.324020231233e-16
    37   -6.285486147088e-02
Sym=X
Ene= 1.144474
Spin=Alpha
Occup=0
     1   -1.110425852473e-17
     2   -1.788568044967e-16
     3   -1.200210757508e-16
     4    4.203000713254e-15
     5    5.738425396663e-19
     6   -5.455574434879e-02
     7   -1.368287551918e-16
     8   -1.247382155676e-15
     9   -2.161680695555e-02
    10    1.330719487276e-15
    11    4.316836740469e-15
    12   -6.151171970699e-02
    13   -2.901046477388e-15
    14    9.855615560037e-16
    15    2.168468734988e-17
    16   -1.443538254006e-02
    17    1.586920108761e-16
    18    2.855885374517e-17
    19   -3.852818979044e-17
    20    3.662390044761e-15
    21    8.597934917697e-01
    22    4.088393135260e-15
    23    5.043606588264e-15
    24   -2.541218394720e-15
    25    5.822659495715e-16
    26    5.512838962454e-03
    27    3.362408321644e-17
    28    2.709038738740e-16
    29   -1.627175396237e-16
    30    8.178925704792e-13
    31   -2.306475991877e-16
    32    1.074314063912e-15
    33   -7.604058410855e-15
    34    8.884894209910e-16
    35    2.500109487893e-01
    36    2.767810414981e-15
    37    2.788581864465e-15
Sym=X
Ene= 1.144474
Spin=Alpha
Occup=0
     1    1.448606712930e-16
     2    5.292821365412e-16
     3   -2.598607806370e-15
     4    1.038288140147e-15
     5    6.331607005994e-15
     6   -5.302047715908e-17
     7    5.455574435438e-02
     8   -6.374896077970e-16
     9   -1.080257520928e-15
    10    2.161680697212e-02
    11    9.239004172594e-16
    12    6.184359408455e-16
    13    6.151171966605e-02
    14    3.436587565805e-15
    15   -9.603202147096e-18
    16   -3.629825889564e-16
    17    1.443538255238e-02
    18   -6.705832617891e-17
    19   -1.536112514361e-16
    20    1.391418899544e-15
    21    3.204731203049e-15
    22   -8.597934917943e-01
    23    6.992147034450e-15
    24    7.458180411052e-15
    25    1.748545188923e-16
    26    8.888380304835e-17
    27   -5.512838963879e-03
    28    4.151885817218e-16
    29   -1.893905596592e-16
    30   -3.865809357308e-16
    31   -8.176869094662e-13
    32    4.925149509859e-16
    33   -3.127392417183e-15
    34   -4.203367952462e-15
    35    1.771365923551e-15
    36   -2.500109487614e-01
    37    1.193449854068e-15
Sym=X
Ene= 1.197721
Spin=Alpha
Occup=0
     1   -3.324090112126e-19
     2   -1.484690473990e-18
     3    2.926075662622e-18
     4    1.546917353475e-17
     5   -7.583164398732e-18
     6    1.516979953282e-16
     7   -1.843714526295e-15
     8   -1.347173498806e-18
     9   -1.423796002519e-17
    10    2.463282382319e-15
    11    1.657665548469e-17
    12    3.141228962561e-16
    13    1.700221454137e-16
    14   -3.583917054713e-19
    15   -5.585691572214e-20
    16    5.943005240368e-17
    17    9.993686432708e-17
    18   -7.103741808226e-16
    19    2.239915288609e-02
    20    1.809414626256e-17
    21   -2.029589486418e-15
    22   -6.563902852106e-15
    23    2.521339374541e-14
    24   -1.011400432344e+00
    25    2.070543947257e-18
    26    6.995350873895e-18
    27    7.758472169181e-17
    28    2.483751311142e-16
    29   -1.194096184616e-02
    30   -3.069747467830e-16
    31   -1.555946337779e-16
    32    4.810236892221e-18
    33   -3.797711987052e-17
    34    1.794892297835e-17
    35   -1.175493080596e-15
    36   -2.416559194989e-15
    37    9.820539549729e-18
Sym=X
Ene= 1.197721
Spin=Alpha
Occup=0
     1   -3.411543488968e-12
     2   -1.567052578471e-11
     3    1.110059486686e-10
     4   -2.733999789939e-10
     5    7.056281082185e-10
     6    1.031601325533e-15
     7   -1.233232972682e-15
     8   -1.471933811130e-11
     9    4.290043825925e-16
    10    9.113283042914e-16
    11    1.128785792325e-10
    12   -7.740767397381e-17
    13   -1.964130559394e-15
    14    3.172051753588e-10
    15   -1.170435047567e-11
    16   -1.937075984839e-16
    17    4.382272526054e-16
    18   -2.239915288609e-02
    19   -5.803081678657e-16
    20    2.432819375108e-10
    21   -3.282568460256e-15
    22    3.854342191312e-15
    23    1.011400432344e+00
    24    2.521788461077e-14
    25    1.442448336216e-11
    26    7.396476057827e-17
    27   -6.460513103427e-16
    28    1.194096184616e-02
    29    4.708020960775e-16
    30   -1.520527127851e-16
    31   -1.378189176909e-16
    32    1.217485468564e-11
    33   -5.013244386322e-10
    34   -1.929593034348e-10
    35   -3.131663288021e-15
    36    5.247286031538e-15
    37    6.140057126505e-11
Sym=X
Ene= 1.471110
Spin=Alpha
Occup=0
     1    9.629284634511e-05
     2   -4.567272533477e-03
     3    2.638075575546e-01
     4   -9.168421239229e-01
     5   -1.025346808712e+00
     6   -1.098669955333e-16
     7   -2.165476065401e-16
     8    7.385651324651e-02
     9    5.454954227241e-16
    10    1.193028100352e-16
    11   -8.997796333022e-01
    12    3.577423976048e-16
    13   -2.199629234741e-16
    14   -9.875016922932e-01
    15    1.320805206162e-02
    16    7.829516319380e-17
    17   -1.597028294962e-17
    18   -4.347532339083e-13
    19   -5.435206947300e-17
    20   -1.597160595492e+00
    21    4.058010361913e-15
    22   -1.078405301717e-15
    23    1.416304113292e-10
    24    1.377822056301e-17
    25   -1.101292591525e-01
    26   -2.018841251181e-16
    27   -2.920530683794e-16
    28    2.351693558257e-12
    29    9.394464024546e-17
    30   -1.600053535792e-17
    31   -3.805680460965e-16
    32   -2.496936622820e-01
    33    3.022031683451e+00
    34   -1.663525252361e-01
    35   -2.610831630125e-15
    36    5.681973418816e-16
    37   -4.742227875477e-01
Sym=X
Ene= 2.104837
Spin=Alpha
Occup=0
     1    6.403810069559e-15
     2    2.187355270989e-14
     3   -1.594070383379e-13
     4    2.699760850242e-13
     5   -1.254694356515e-13
     6   -4.285652243495e-01
     7    1.333047304958e-15
     8   -6.458437835445e-15
     9    3.363202047792e-01
    10    3.207590473396e-15
    11    6.318086895163e-14
    12   -3.747934110465e-01
    13    9.355606128974e-16
    14   -2.148758361120e-14
    15    4.471507767435e-16
    16    2.234672323472e-02
    17   -2.028809240472e-16
    18   -5.742736951611e-16
    19   -3.470287251524e-17
    20    1.103594399122e-14
    21   -7.628342454689e-01
    22    1.204213506219e-14
    23    2.858636440677e-15
    24   -6.479519157732e-16
    25    7.080898641524e-15
    26    2.077718675890e-02
    27   -6.833667747946e-16
    28   -1.123935785902e-15
    29    3.695597557926e-16
    30   -8.071630455726e-13
    31   -1.282396956840e-16
    32    2.453407531315e-14
    33   -1.071907283534e-13
    34    6.571492176636e-14
    35    1.096389149139e+00
    36   -1.693322194851e-14
    37    4.279509304032e-14
Sym=X
Ene= 2.104837
Spin=Alpha
Occup=0
     1   -9.350215865412e-16
     2   -2.784064480701e-15
     3    1.231296729927e-14
     4    1.999362020114e-15
     5   -3.444454313549e-15
     6    8.339992766162e-16
     7    4.285652244254e-01
     8   -1.510251205237e-14
     9    8.397373948967e-16
    10   -3.363202048140e-01
    11    3.071027793031e-14
    12    3.527025676120e-15
    13    3.747934110017e-01
    14   -8.774466172459e-15
    15    5.406053156230e-16
    16    9.989551100232e-16
    17   -2.234672324072e-02
    18   -1.046572998393e-15
    19   -7.213471874376e-17
    20    2.082028246330e-15
    21    1.181326548520e-14
    22    7.628342454414e-01
    23    5.091358530872e-15
    24   -6.225400742868e-16
    25    2.859779668811e-15
    26   -1.762796447280e-15
    27   -2.077718675267e-02
    28   -2.063077983210e-15
    29    8.297687543501e-16
    30    8.293320340103e-16
    31    8.068071411887e-13
    32    8.557540614419e-15
    33   -2.794527565643e-14
    34    1.236674040978e-14
    35   -1.560853137357e-14
    36   -1.096389149121e+00
    37    1.157034051907e-14
Sym=X
Ene= 2.198037
Spin=Alpha
Occup=0
     1    1.069720488514e-01
     2    3.715416577994e-01
     3   -2.772801346984e+00
     4    4.862767976146e+00
     5   -2.488828788749e+00
     6    4.097470427352e-14
     7    4.294104009579e-16
     8   -2.195070215770e-01
     9   -4.225631803783e-14
    10   -6.484117812003e-16
    11    1.217822377255e+00
    12    3.053596913710e-14
    13    3.097581410245e-16
    14   -4.727520306756e-01
    15    1.854288941269e-02
    16   -1.425781163944e-15
    17   -2.605499090901e-16
    18    5.890532642553e-12
    19    1.005529712100e-18
    20    1.892748344845e-01
    21    3.954816706454e-14
    22    7.475179947976e-16
    23    3.743045461073e-11
    24   -2.082607274569e-18
    25    1.422399909406e-01
    26    3.596614723941e-16
    27    2.308243738482e-15
    28    1.623814625990e-12
    29    8.584309735928e-18
    30   -9.829308928576e-16
    31   -4.343943498290e-16
    32    5.723223322238e-01
    33   -2.098957188168e+00
    34    1.431663629503e+00
    35   -5.650354743620e-14
    36    1.419432857934e-15
    37    6.854261670217e-01
Sym=X
Ene= 2.246856
Spin=Alpha
Occup=0
     1   -6.008405234490e-02
     2   -2.090427629036e-01
     3    1.170904659164e+00
     4   -7.584735570922e-01
     5    4.732860977053e-01
     6   -1.981346986697e-15
     7   -1.137609411134e-14
     8   -8.723538576312e-01
     9    1.559350742408e-15
    10    1.168290838152e-14
    11    1.794958059355e+00
    12   -2.717977796615e-15
    13   -8.789240960696e-15
    14   -4.429052222992e-01
    15    1.668113375260e-02
    16    1.285769966540e-16
    17    5.570081369117e-16
    18   -2.453344132932e-12
    19    2.425529901102e-17
    20    1.166527535061e-01
    21   -6.930440979735e-15
    22   -1.176244680945e-14
    23   -8.294118535973e-12
    24   -3.476973182277e-18
    25    1.401079469267e-01
    26   -1.584700587025e-15
    27   -2.848059916612e-16
    28   -4.182818215433e-12
    29   -2.687260871564e-16
    30    5.278755050107e-16
    31    4.242594229285e-16
    32    6.216159068439e-01
    33   -1.751854758871e+00
    34    5.768636984886e-01
    35    6.989071683344e-15
    36    1.647476309220e-14
    37    6.269873230995e-01
Sym=X
Ene= 2.361051
Spin=Alpha
Occup=0
     1   -1.566962704690e-15
     2   -5.655235307106e-15
     3    4.103339772852e-14
     4   -6.859819312108e-14
     5    4.358907233978e-14
     6    1.181138857614e+00
     7    6.565229049281e-15
     8    5.149618998236e-15
     9   -1.643546540207e+00
    10   -8.639534922072e-15
    11   -1.288343764380e-14
    12    6.123677980404e-01
    13    4.365191112289e-15
    14    9.309934267737e-15
    15   -6.122589068647e-16
    16    1.706800787655e-02
    17    2.096611382587e-17
    18   -5.684948362600e-16
    19   -4.176091685922e-16
    20    3.672248528572e-16
    21   -3.008492177320e-01
    22    2.701453159910e-15
    23    4.859179882980e-16
    24    1.447043307322e-17
    25   -1.704017262122e-15
    26    3.034375964259e-02
    27   -6.929292658522e-16
    28    1.586607322332e-16
    29   -5.449078531997e-16
    30    1.481107307135e-11
    31   -9.806826077219e-17
    32   -1.034659084990e-14
    33    2.426992138861e-14
    34   -2.504055923736e-14
    35    4.964474264734e-01
    36   -2.008763588907e-15
    37   -2.093526041882e-15
Sym=X
Ene= 2.361051
Spin=Alpha
Occup=0
     1   -2.552317811004e-16
     2   -1.121736325606e-15
     3    7.614865538247e-15
     4   -9.580734148316e-15
     5    9.189641898825e-15
     6   -7.038246735501e-15
     7    1.181138857619e+00
     8   -3.031753208315e-15
     9    8.714289699930e-15
    10   -1.643546540127e+00
    11    6.680322087865e-15
    12   -4.167423925529e-15
    13    6.123677979433e-01
    14    1.824091327955e-16
    15   -1.026955022094e-16
    16   -2.599017319108e-15
    17    1.706800788131e-02
    18   -4.171216867266e-16
    19   -8.693302753616e-16
    20    1.011853995682e-15
    21   -1.316015929827e-15
    22   -3.008492177653e-01
    23    9.074382066692e-17
    24   -1.598391197864e-15
    25    2.402706924785e-16
    26   -1.199944957608e-15
    27    3.034375964839e-02
    28   -1.135436564356e-16
    29   -1.640285327361e-15
    30    4.118412146082e-16
    31    1.481213014495e-11
    32    1.788291448484e-15
    33   -6.443377402728e-15
    34   -1.636971049784e-15
    35    3.183804588602e-15
    36    4.964474265297e-01
    37    2.883151102900e-15
Sym=X
Ene= 2.705760
Spin=Alpha
Occup=0
     1    3.905665367986e-02
     2    1.328116482025e-01
     3   -6.191296224933e-01
     4   -4.807945564397e-02
     5   -9.988525424410e-01
     6    2.472594671206e-15
     7    7.350115479444e-17
     8   -8.822961308382e-01
     9   -4.190192363996e-15
    10   -2.547107027116e-16
    11    1.423986866853e-01
    12    9.617423665602e-16
    13   -1.426455508017e-16
    14   -8.535560017132e-01
    15   -5.886085667886e-03
    16    5.331512446804e-16
    17   -4.771063503210e-16
    18    1.504062710297e-13
    19   -5.198304396832e-17
    20   -3.528391087050e-01
    21   -2.472349942544e-15
    22   -3.457572476078e-16
    23    7.598217644946e-14
    24    1.657483207883e-17
    25   -2.453442901260e-01
    26    1.079120420033e-15
    27    4.329912145040e-17
    28   -1.366175731610e-11
    29    3.946096991733e-16
    30    4.912905466785e-16
    31   -5.173115336621e-16
    32   -5.715333733691e-01
    33    1.882346228124e+00
    34    2.558131685391e-01
    35    4.373440087165e-15
    36    1.052977913754e-15
    37   -1.173028324506e+00
Sym=X
Ene= 3.192220
Spin=Alpha
Occup=0
     1   -3.630052835688e-04
     2    2.436766699658e-02
     3   -1.018401804490e+00
     4    3.365359909473e+00
     5   -4.532381636188e-01
     6   -1.900432375023e-15
     7   -1.114155507792e-15
     8   -3.123286150657e-01
     9    4.128563117433e-15
    10    1.586790269559e-15
    11    2.766177925964e+00
    12   -4.312257627944e-17
    13   -6.405302779782e-16
    14   -1.214592271787e-01
    15   -1.702078616535e-01
    16   -8.233783594410e-16
    17   -1.050209516498e-15
    18   -5.122582495374e-12
    19    5.332062274774e-16
    20    1.558591581843e+00
    21    5.154762041948e-15
    22    9.402488592984e-16
    23   -1.082536259552e-12
    24   -2.654880080747e-16
    25   -1.347662015097e-01
    26   -2.497976218306e-16
    27    7.483743307678e-16
    28   -2.764554266049e-11
    29   -1.864324489050e-16
    30   -2.161769679875e-15
    31   -9.140804139442e-16
    32   -8.575007563143e-01
    33   -2.770336545637e+00
    34    5.597358448500e-01
    35   -8.419104334424e-15
    36    6.547073891068e-17
    37    1.977209417307e+00
Sym=X
Ene= 4.201300
Spin=Alpha
Occup=0
     1    9.301847872084e-17
     2    1.456314907639e-16
     3   -8.636307753788e-16
     4    2.837049330191e-16
     5   -2.400503584297e-15
     6   -1.407813003612e-15
     7   -2.657433114325e-15
     8   -5.740007047365e-17
     9    1.069298659849e-15
    10    4.160172832363e-15
    11   -1.346806998924e-15
    12    2.261713355058e-16
    13   -1.721186981144e-15
    14   -1.080408692424e-15
    15    6.708176231329e-17
    16   -4.901172906860e-16
    17   -3.871368429094e-16
    18    3.000378795513e-16
    19   -3.761226194361e-02
    20   -9.271267847341e-16
    21   -4.141115474373e-16
    22    2.738278780174e-15
    23    5.205541421377e-16
    24    3.089288915640e-02
    25   -9.944085589433e-17
    26   -5.678910538491e-16
    27    2.873701975623e-16
    28   -9.468293350528e-15
    29   -9.994198906244e-01
    30    1.029465064557e-12
    31    2.937569028703e-12
    32   -6.539370898820e-16
    33    3.286031701646e-15
    34    7.032708545341e-16
    35    5.014538424800e-16
    36   -2.272046598392e-15
    37   -1.425489360119e-15
Sym=X
Ene= 4.201300
Spin=Alpha
Occup=0
     1   -2.221008171706e-13
     2   -1.572767640037e-12
     3    3.842738762016e-11
     4   -1.118010340910e-10
     5    2.021606798759e-11
     6    1.554848113680e-15
     7   -2.610337625233e-15
     8    2.409808734521e-11
     9   -3.812866042369e-15
    10    2.759694745403e-15
    11   -1.119790074956e-10
    12    1.597185603469e-15
    13   -1.122345469191e-15
    14    1.083508334008e-11
    15    8.127934486158e-12
    16    7.186534863019e-15
    17   -5.908079368366e-15
    18   -3.761226194361e-02
    19   -2.945172042795e-16
    20   -5.615771609277e-11
    21   -4.121850106606e-15
    22    7.306194396491e-16
    23    3.089288915640e-02
    24    2.016564691184e-16
    25   -5.364833587300e-12
    26   -9.468320354075e-15
    27    6.301532636569e-15
    28   -9.994198906244e-01
    29    1.049062461869e-14
    30   -1.192275750675e-13
    31   -5.359687319200e-13
    32    4.172936302173e-11
    33    8.396635041452e-11
    34   -2.294643500878e-11
    35    3.390141855282e-15
    36    4.192814701457e-16
    37   -5.439499070422e-11
[5D7F]

======= END OF MOLDEN-FORMATTED INPUT FILE =======


        *************************************************************
        *                                                           *
        *  Thank you very much for using Q-Chem.  Have a nice day.  *
        *                                                           *
        *************************************************************


