                  Welcome to Q-Chem
     A Quantum Leap Into The Future Of Chemistry


 Q-Chem 6.0 (devel), Q-Chem, Inc., Pleasanton, CA (2022)

 E. Epifanovsky,  A. T. B. Gilbert,  Xintian Feng,  Joonho Lee,  Yuezhi Mao,  
 N. Mardirossian,  P. Pokhilko,  A. White,  M. Wormit,  M. P. Coons,  
 A. L. Dempwolff,  Zhengting Gan,  D. Hait,  P. R. Horn,  L. D. Jacobson,  
 I. Kaliman,  J. Kussmann,  A. W. Lange,  Ka Un Lao,  D. S. Levine,  Jie Liu,  
 S. C. McKenzie,  A. F. Morrison,  K. Nanda,  F. Plasser,  D. R. Rehn,  
 M. L. Vidal,  Zhi-Qiang You,  Ying Zhu,  B. Alam,  B. Albrecht,  
 A. Aldossary,  E. Alguire,  J. H. Andersen,  V. Athavale,  D. Barton,  
 K. Begam,  A. Behn,  N. Bellonzi,  Y. A. Bernard,  E. J. Berquist,  
 H. Burton,  A. Carreras,  K. Carter-Fenk,  Romit Chakraborty,  
 Chandrima Chakravarty,  Junhan Chen,  A. D. Chien,  K. D. Closser,  
 V. Cofer-Shabica,  L. Cunha,  S. Dasgupta,  Jia Deng,  M. de Wergifosse,  
 M. Diedenhofen,  Hainam Do,  S. Ehlert,  Po-Tung Fang,  S. Fatehi,  
 Qingguo Feng,  T. Friedhoff,  B. Ganoe,  J. Gayvert,  Qinghui Ge,  
 G. Gidofalvi,  M. Goldey,  J. Gomes,  C. Gonzalez-Espinoza,  S. Gulania,  
 A. Gunina,  J. A. Gyamfi,  M. W. D. Hanson-Heine,  P. H. P. Harbach,  
 A. W. Hauser,  M. F. Herbst,  M. Hernandez Vera,  M. Hodecker,  
 Z. C. Holden,  S. Houck,  Xunkun Huang,  Kerwin Hui,  B. C. Huynh,  
 K. Ikeda,  M. Ivanov,  Hyunjun Ji,  Zuxin Jin,  Hanjie Jiang,  B. Kaduk,  
 S. Kaehler,  R. Kang,  K. Khistyaev,  Jaehoon Kim,  Yongbin Kim,  
 P. Klunzinger,  Z. Koczor-Benda,  Joong Hoon Koh,  D. Kosenkov,  
 Saikiran Kotaru,  L. Koulias,  T. Kowalczyk,  C. M. Krauter,  K. Kue,  
 A. Kunitsa,  T. Kus,  A. Landau,  K. V. Lawler,  D. Lefrancois,  S. Lehtola,  
 Rain Li,  Shaozhi Li,  Yi-Pei Li,  Jiashu Liang,  M. Liebenthal,  
 Hung-Hsuan Lin,  You-Sheng Lin,  Fenglai Liu,  Kuan-Yu Liu,  
 M. Loipersberger,  A. Luenser,  C. Malbon,  A. Manjanath,  P. Manohar,  
 E. Mansoor,  S. F. Manzer,  Shan-Ping Mao,  A. V. Marenich,  T. Markovich,  
 S. Mason,  F. Matz,  S. A. Maurer,  P. F. McLaughlin,  M. F. S. J. Menger,  
 J.-M. Mewes,  S. A. Mewes,  P. Morgante,  Mohammad Mostafanejad,  
 J. W. Mullinax,  K. J. Oosterbaan,  G. Paran,  V. Parravicini,  
 Alexander C. Paul,  Suranjan K. Paul,  F. Pavosevic,  Zheng Pei,  S. Prager,  
 E. I. Proynov,  E. Ramos,  B. Rana,  A. E. Rask,  A. Rettig,  R. M. Richard,  
 F. Rob,  E. Rossomme,  T. Scheele,  M. Scheurer,  M. Schneider,  
 P. E. Schneider,  N. Sergueev,  S. M. Sharada,  Hengyuan Shen,  
 W. Skomorowski,  D. W. Small,  C. J. Stein,  Yingli Su,  Yu-Chuan Su,  
 E. J. Sundstrom,  Zhen Tao,  J. Thirman,  Hung-Yi Tsai,  T. Tsuchimochi,  
 N. M. Tubman,  C. Utku,  S. P. Veccham,  O. Vydrov,  J. Wenzel,  
 Jonathan Wong,  J. Witte,  A. Yamada,  Chou-Hsun Yang,  Kun Yao,  
 S. Yeganeh,  S. R. Yost,  A. Zech,  F. Zeller,  Igor Ying Zhang,  
 Xing Zhang,  Yu Zhang,  D. Zuev,  A. Aspuru-Guzik,  A. T. Bell,  
 N. A. Besley,  K. B. Bravaya,  B. R. Brooks,  D. Casanova,  Jeng-Da Chai,  
 Hsing-Ta Chen,  S. Coriani,  C. J. Cramer,  A. E. DePrince, III,  
 R. A. DiStasio Jr.,  A. Dreuw,  B. D. Dunietz,  T. R. Furlani,  
 W. A. Goddard III,  S. Grimme,  S. Hammes-Schiffer,  T. Head-Gordon,  
 W. J. Hehre,  Chao-Ping Hsu,  T.-C. Jagau,  Yousung Jung,  A. Klamt,  
 Jing Kong,  D. S. Lambrecht,  Xiangyuan Li,  WanZhen Liang,  N. J. Mayhall,  
 C. W. McCurdy,  J. B. Neaton,  T. Neudecker,  C. Ochsenfeld,  
 J. A. Parkhill,  R. Peverati,  V. A. Rassolov,  Haisheng Ren,  Yihan Shao,  
 L. V. Slipchenko,  R. P. Steele,  J. E. Subotnik,  A. J. W. Thom,  
 A. Tkatchenko,  D. G. Truhlar,  T. Van Voorhis,  Fan Wang,  
 T. A. Wesolowski,  K. B. Whaley,  H. L. Woodcock III,  P. M. Zimmerman,  
 S. Faraji,  P. M. W. Gill,  M. Head-Gordon,  J. M. Herbert,  A. I. Krylov

 Contributors to earlier versions of Q-Chem not listed above: 
 R. D. Adamson,  B. Austin,  R. Baer,  J. Baker,  G. J. O. Beran,  
 K. Brandhorst,  S. T. Brown,  E. F. C. Byrd,  Arup K. Chakraborty,  
 G. K. L. Chan,  Chun-Min Chang,  Yunqing Chen,  C.-L. Cheng,  
 Siu Hung Chien,  D. M. Chipman,  D. L. Crittenden,  H. Dachsel,  
 R. J. Doerksen,  A. D. Dutoi,  R. G. Edgar,  J. Fosso-Tande,  
 L. Fusti-Molnar,  D. Ghosh,  A. Ghysels,  A. Golubeva-Zadorozhnaya,  
 J. Gonthier,  M. S. Gordon,  S. R. Gwaltney,  G. Hawkins,  J. E. Herr,  
 A. Heyden,  S. Hirata,  E. G. Hohenstein,  G. Kedziora,  F. J. Keil,  
 C. Kelley,  Jihan Kim,  R. A. King,  R. Z. Khaliullin,  P. P. Korambath,  
 W. Kurlancheek,  A. Laurent,  A. M. Lee,  M. S. Lee,  S. V. Levchenko,  
 Ching Yeh Lin,  D. Liotard,  E. Livshits,  R. C. Lochan,  I. Lotan,  
 L. A. Martinez-Martinez,  P. E. Maslen,  N. Nair,  D. P. O'Neill,  
 D. Neuhauser,  E. Neuscamman,  C. M. Oana,  R. Olivares-Amaya,  R. Olson,  
 T. M. Perrine,  B. Peters,  P. A. Pieniazek,  A. Prociuk,  Y. M. Rhee,  
 J. Ritchie,  M. A. Rohrdanz,  E. Rosta,  N. J. Russ,  H. F. Schaefer III,  
 M. W. Schmidt,  N. E. Schultz,  S. Sharma,  N. Shenvi,  C. D. Sherrill,  
 A. C. Simmonett,  A. Sodt,  T. Stein,  D. Stuck,  K. S. Thanthiriwatte,  
 V. Vanovschi,  L. Vogt,  Tao Wang,  A. Warshel,  M. A. Watson,  
 C. F. Williams,  Q. Wu,  X. Xu,  Jun Yang,  W. Zhang,  Yan Zhao

   Please cite Q-Chem as follows:
  "Software for the frontiers of quantum chemistry:
   An overview of developments in the Q-Chem 5 package"
   J. Chem. Phys. 155, 084801 (2021)
   https://doi.org/10.1063/5.0055522 (open access)

 Q-Chem 6.0.1 for Intel X86 EM64T Linux

 Parts of Q-Chem use Armadillo 9.900.5 (Nocturnal Misbehaviour).
 http://arma.sourceforge.net/

 Q-Chem begins on Thu Oct 19 17:03:38 2023  

 Host: atlas-006
0

     Scratch files written to ./qchem20006//
 Processing $rem in /scratch/abel/SOFTWARE/qchem/config/preferences:
 Processing $rem in /dipc/acebg/.qchemrc:

 Checking the input file for inconsistencies... 	...done.

--------------------------------------------------------------
User input:
--------------------------------------------------------------
$comment
 RAS-SF CALCULATION
$end

$molecule
 READ nh.molecule
$end

$rem
!**CALCULATION TYPE***     
JOBTYPE            sp    
EXCHANGE           HF
CORRELATION        RASCI    !RASCI=Casanova; RASCI2=Zimmerman
BASIS              def2-TZVP

!***SCF REFERENCE***
!SKIP_SCFMAN        FALSE
UNRESTRICTED       FALSE
!SCF_GUESS          core
!SCF_GUESS_MIX      FALSE
!SCF_GUESS_ALWAYS   FALSE
MAX_SCF_CYCLES     500
!SCF_CONVERGENCE    8
SCF_ALGORITHM      DIIS_GDM !DIIS,DM,DIIS_DM,GDM,DIIS_GDM,GD

!SYMMETRY           TRUE !use of symmetry for calculating integrals
!SYM_IGNORE         FALSE !turn off using symmetry
!SYM_TOL            5 !tolerance for determining point group

!THRESH             14
SCF_FINAL_PRINT     1 !0,1,2,3

!****RAS-SF****
RAS_ROOTS          20       !number of RAS-CI roots to be computed
SET_ITER           150     !number of iterations in RASCI
RAS_ELEC           8       !number of electrons in RAS2
RAS_ELEC_ALPHA     5       !spin-α electrons in RAS2 
RAS_ELEC_BETA      3      !spin-β electrons in RAS2

RAS_ACT            6       !number of orbitals in RAS2 
RAS_ACT_ORB   [1, 2, 3, 4, 5, 6]  !user-selected RAS2 orbitals
RAS_OCC            0       !number of orbitals in RAS1
!N_FROZEN_CORE      0     !Number of frozen core orbitals
!N_FROZEN_VIRTUAL   0      !Number of frozen virtual orbitals

RAS_DO_HOLE        TRUE   !presence of hole excitations in RAS-CI wave function
RAS_DO_PART        TRUE   !presence of particle excitations
!RAS_AMPL_PRINT     10     !threshold (×10 2 ) for the CI amplitudes

!RAS_GUESS_CS       0      !number of closed shell guess conﬁgurations
!RAS_SPIN_MULT      0      !spin multiplicity: 0=any, 2n+1=defined 
!RAS_SRDFT          FALSE  !short-range density functional RAS-CI
!RAS_NFRAG          0     !fragments of excitation analysis in RASCI

RAS_PRINT          2      !level of information
RAS_NATORB         TRUE   !computation of the natural orbital occupancies
!RAS_NATORB_STATE  0      !Saves NO of i RAS computed state in .fchk ﬁle
!RAS_FOD            TRUE

!****RAS-SOC****
CALC_SOC           TRUE   !calculate SOC for EOM-CC, RAS-CI, ADC, TDDFT/TDA and TDDFT
!RAS_SOC_2E        TRUE   !two-electron mean-ﬁeld contribution, default=true
RAS_SOC_SYM_DENS   TRUE   !averaging of α and β densities

!****MEMORY****
MEM_TOTAL          60000 !Default 2000 MB
MEM_STATIC         16000  !Default 64 MB

!**Molecular Properties and Analysis **                                                                                          
!GUI                2
STATE_ANALYSIS     TRUE
MOLDEN_FORMAT      TRUE
PRINT_ORBITALS     20
$end                                           

--------------------------------------------------------------
 ----------------------------------------------------------------
             Standard Nuclear Orientation (Angstroms)
    I     Atom           X                Y                Z
 ----------------------------------------------------------------
    1      N       0.0000000000     0.0000000000    -0.1295250000
    2      H       0.0000000000     0.0000000000     0.9066750000
 ----------------------------------------------------------------
 Molecular Point Group                 C2v   NOp =  4
 Largest Abelian Subgroup              C2v   NOp =  4
 Nuclear Repulsion Energy =           3.57483157 hartrees
 There are        5 alpha and        3 beta electrons
 Requested basis set is def2-TZVP
 There are 15 shells and 37 basis functions

 Q-Chem warning in module libmdc/get_mega.C, line 167:

 Allowed MEM_STATIC has been capped at MEM_STATIC=8191.
 Reduce the value of MEM_STATIC to silence this warning.


 Total QAlloc Memory Limit  60000 MB
 Mega-Array Size      8007 MB
 MEM_STATIC part      8191 MB


                       Distance Matrix (Angstroms)
             N (  1)
   H (  2)  1.036200
 
 A cutoff of  1.0D-09 yielded    120 shell pairs
 There are       756 function pairs (       990 Cartesian)
 Smallest overlap matrix eigenvalue = 7.92E-03

 Scale SEOQF with 1.000000e+00/1.000000e+00/1.000000e+00

 Standard Electronic Orientation quadrupole field applied
 Nucleus-field energy     =    -0.0000000010 hartrees
 Guess from superposition of atomic densities
 Warning:  Energy on first SCF cycle will be non-variational
 SAD guess density has 8.000000 electrons

 -----------------------------------------------------------------------
  General SCF calculation program by
  Eric Jon Sundstrom, Paul Horn, Yuezhi Mao, Dmitri Zuev, Alec White,
  David Stuck, Shaama M.S., Shane Yost, Joonho Lee, David Small,
  Daniel Levine, Susi Lehtola, Hugh Burton, Evgeny Epifanovsky,
  Bang C. Huynh
 -----------------------------------------------------------------------
 Hartree-Fock
 Orthonormalizing orbitals
 A restricted open-shell SCF calculation will be
 performed using DIIS, GDM
 SCF converges when RMS gradient is below 1.0e-05
 ---------------------------------------
  Cycle       Energy         DIIS error
 ---------------------------------------
    1     -54.8699534210      6.45e-02  
    2     -54.9131240494      6.02e-02  
    3     -54.9744575084      3.70e-03  Done DIIS. Switching to GDM
 ---------------------------------------
  Cycle       Energy        RMS Gradient
 ---------------------------------------
    1     -54.9744575084      1.67e-02   Normal BFGS step
    2     -54.9749884804      6.25e-03   Normal BFGS step
    3     -54.9750576435      8.62e-04   Normal BFGS step
    4     -54.9750599612      1.88e-04   Normal BFGS step
    5     -54.9750600510      3.41e-05   Normal BFGS step
    6     -54.9750600567      4.03e-06  Convergence criterion met
The disked orbital energies are calculated using alpha and beta Focks
 ---------------------------------------
 Alpha HF Exchange    Energy =  -4.00407548233493
 Beta HF Exchange     Energy =  -2.91824887140464
 Nuclear Attraction   Energy =   0.00000000000000
 One-Electron (alpha) Energy = -46.02190963520362
 One-Electron (beta)  Energy = -35.60131364711695
 Total Coulomb        Energy =  29.99565600770182
 Final Alpha MO Eigenvalues
            1           2           3           4           5           6
    1 -15.6370037  -1.1538935  -0.5926888  -0.5374482  -0.5374482   0.1438755
            7           8           9          10          11          12
    1   0.4341771   0.4563990   0.4563990   0.4767601   0.6361648   1.1444744
           13          14          15          16          17          18
    1   1.1444744   1.1977206   1.1977206   1.4711100   2.1048373   2.1048373
           19          20          21          22          23          24
    1   2.1980371   2.2468563   2.3610515   2.3610515   2.7057602   3.1922195
           25          26          27          28          29          30
    1   4.2013001   4.2013001   4.1947021   4.1947021   4.5391586   4.5391586
           31          32          33          34          35          36
    1   4.7772057   4.7772057   4.9115023   4.9115023   5.1102655   5.7963180
           37
    1  32.4905268
 Final Beta MO Eigenvalues
            1           2           3           4           5           6
    1 -15.5822332  -0.9289305  -0.5069138   0.1828699   0.1828699   0.1567546
            7           8           9          10          11          12
    1   0.4629833   0.5347379   0.5347379   0.5058088   0.6681776   1.2199019
           13          14          15          16          17          18
    1   1.2199019   1.3364972   1.3364972   1.5160048   2.1427876   2.1427876
           19          20          21          22          23          24
    1   2.2508999   2.2792154   2.4846000   2.4846000   2.7363294   3.2206018
           25          26          27          28          29          30
    1   4.2738926   4.2738926   4.2957215   4.2957215   4.5995386   4.5995386
           31          32          33          34          35          36
    1   4.9324798   4.9324798   4.9897645   4.9897645   5.1715901   5.8267965
           37
    1  32.5228099
 SCF time:   CPU 1.01s  wall 3.00s 
<S^2> =          2.000000000
 SCF   energy in the final basis set =      -54.9750600567
 Total energy in the final basis set =      -54.9750600567
  
     ##========================================##
     ||                                        ||
     ||              R A S M A N 2             ||
     ||________________________________________||
     ||                                        ||
     ||  Author:                               ||
     ||                                        ||
     ||        David Casanova (2010)           ||
     ||                                        ||
     ##========================================##
  
Setting single-point xc-functionals (if necessary)

  ***************************************************
  *  RAS-CI Dimensions:                             *
  *                                                 *
  *  Active Elec.:   8 ( 5, 3)   Active Orb.:   6   *
  *  Doubly Occ. :   0           Doubly Vir.:  31   *
  *  Frozen Occ. :   0           Frozen Vir.:   0   *
  *                                                 *
  *  Total CI configurations:     12210             * 
  *    Active configurations:       120             * 
  *      Hole configurations:         0             * 
  *  Particle configurations:     12090             * 
  *                                                 *
  *   Requested states:       20                    *
  *  Spin multiplicity: Any multiplicity            *
  *                                                 *
  ***************************************************
-----------------------------------------
    Memory requirements of RASCI

 Each CI-vector requires      0.09 MiB 
 Max. subspace vectors           3000      

 Reduced Lists                0.00 MiB 
 Excitation Lists             0.00 MiB 
 Excitation Lists Sign        0.00 MiB 
 CI-space (Max)             350.02 MiB 
 Integrals                    0.89 MiB 
 Memory required (Max)      350.02 MiB 
 Memory available          7811.55 MiB 

    Disk requirements of RASCI

 Fock matrix                  0.02 MiB 
 2-electron integrals         1.18 MiB 
 CI-space                   558.93 MiB 
 Disk required              560.13 MiB 
-----------------------------------------
  
RAS1 HF-like energy:              3.5748315717
 Computing integrals
 Computing J and K matrices
 Computing addressing
 Making amplitude guesses
 
Direct CI diagonalization
 ---------------------------------------------------
 Iter    Rts Conv    Rts Left    Ttl Dev     Max Dev
 ---------------------------------------------------
   1         0          20      0.451186    0.043967
   2         0          20      0.484880    0.061923
   3         0          20      0.968031    0.103897
   4         0          20      0.391934    0.082168
   5         0          20      0.149798    0.017637
   6         0          20      0.160640    0.018979
   7         0          20      0.111893    0.013417
   8         0          20      0.139967    0.015138
   9         0          20      0.080566    0.013219
  10         0          20      0.080692    0.012665
  11         0          20      0.061842    0.008358
  12         0          20      0.056842    0.012225
  13         0          20      0.041102    0.005669
  14         0          20      0.040438    0.005587
  15         0          20      0.032247    0.004383
  16         0          20      0.035303    0.004850
  17         0          20      0.043926    0.010449
  18         0          20      0.033765    0.004715
  19         0          20      0.026489    0.004521
  20         0          20      0.019059    0.003704
  21         0          20      0.024402    0.005398
  22         0          20      0.021714    0.007152
  23         0          20      0.020473    0.005573
  24         0          20      0.015963    0.002668
  25         0          20      0.025250    0.006751
  26         2          18      0.014076    0.004134
  27         4          16      0.014115    0.004549
  28         4          16      0.009176    0.001646
  29         6          14      0.006589    0.001220
  30         8          12      0.004866    0.001085
  31         9          11      0.005048    0.001666
  32         9          11      0.003326    0.001731
  33        10          10      0.001382    0.000522
  34        10          10      0.002114    0.001245
  35        12           8      0.002065    0.001473
  36        14           6      0.001119    0.000790
  37        15           5      0.001286    0.000990
  38        16           4      0.000675    0.000482
  39        17           3      0.001441    0.001163
  40        17           3      0.000423    0.000343
  41        17           3      0.000463    0.000361
  42        17           3      0.000268    0.000212
  43        17           3      0.000186    0.000148
  44        17           3      0.000220    0.000166
  45        17           3      0.000068    0.000051
  46        17           3      0.000118    0.000091
  47        18           2      0.000040    0.000029
  48        18           2      0.000041    0.000030
  49        18           2      0.000079    0.000062
  50        19           1      0.000038    0.000028
  51        18           2      0.000080    0.000065
  52        19           1      0.000023    0.000016
  53        19           1      0.000018    0.000011
  54        19           1      0.000022    0.000016
  55        19           1      0.000007    0.000003
  56        19           1      0.000007    0.000002
  57        19           1      0.000006    0.000002
  58        20           0      0.000005    0.000001    Roots Converged
 ---------------------------------------------------
   
**************************************************
 RAS-CI total energy for state   1:    -42.047235349652
  Excitation energy (eV) =  0.000000000000
  State symmetry: B1    (C2v      )
  <S^2>      :  2.0000
  Dipole Moment:   -0.0000 X     0.0000 Y     4.3292 Z
 NATURAL OCCUPATION NUMBERS (higher than 1.0E-05)
            1           2           3           4           5           6
    1   1.9985024   1.9889634   1.3054922   1.0000171   0.9999004   0.6939421
            7           8           9          10          11          12
    1   0.0130817   0.0000355   0.0000156   0.0000111   0.0000111   0.0000101
 Created directory ./qchem20006/plots

  Amplitudes : 
  
 | HOLE  | ALPHA  | BETA   | PART  |    AMPLITUDE 
--------------------------------------------------
 |       | 011110 | 110010 |  37   |     1.8934534364634E-01
 |       | 011110 | 101010 |  37   |    -1.5644392439557E-01
 |       | 011110 | 011010 |  37   |     3.7105793477451E-01
 |       | 010111 | 011010 |  37   |     1.2551515397524E-01
 |       | 001111 | 011010 |  37   |    -1.6741107282263E-01
 |       | 011011 | 010110 |  37   |    -2.0744669494387E-01
 |       | 011110 | 010011 |  37   |    -4.8625947549085E-01
 |       | 011011 | 001110 |  37   |     2.2223674162651E-01
 |       | 011110 | 001011 |  37   |     5.6732959269591E-01
 |       | 011111 | 010010 |  37   |    -1.5329762661754E-01
 |       | 011111 | 001010 |  37   |     1.7768177829284E-01
--------------------------------------------------
*** Contributions RASCI wfn    Active:   0.04
                                 Hole:   0.00
                                 Part:  99.96

      Mulliken population analysis 
 ---------------------------------------------------
   Atom    Charge (a.u.)   Spin (a.u.)  
 ---------------------------------------------------
   1  N   -0.886531        4.288887 
   2  H   -2.409676        0.582640 
 ---------------------------------------------------
   Sum:   -3.296206        4.871527 
 ---------------------------------------------------
 
  
 NATURAL OCCUPATION NUMBERS (higher than 1.0E-05)
            1           2           3           4           5           6
    1   1.9985024   1.9889634   1.3054922   1.0000171   0.9999004   0.6939421
            7           8           9          10          11          12
    1   0.0130817   0.0000355   0.0000156   0.0000111   0.0000111   0.0000101
  
*** Unpaired Electrons
 Yamaguchi Nd:         3.86
 Head-Gordon Nu:       3.41
 Head-Gordon Nu_nl:    3.64
  
**************************************************
 RAS-CI total energy for state   2:    -42.047235349598
  Excitation energy (eV) =  0.000000001476
  State symmetry: B2    (C2v      )
  <S^2>      :  2.0000
  Dipole Moment:   -0.0000 X     0.0000 Y     4.3292 Z
  Trans. Moment:    0.0000 X    -0.0000 Y    -0.0000 Z
  Strength   :  0.000000
  Natural transition orbitals ( 1 -> 2 ):
   e-/hole pair  1 alpha:  ampl =  0.100792 (  1.0%)   [6 : 7]
   e-/hole pair  2 alpha:  ampl =  0.002772 (  0.0%)   [5 : 8]
   e-/hole pair  1 beta :  ampl =  0.898404 ( 80.7%)   [6 : 7]
   e-/hole pair  2 beta :  ampl =  0.000312 (  0.0%)   [5 : 8]
   Sum of square amplitudes: 0.82

 NATURAL OCCUPATION NUMBERS (higher than 1.0E-05)
            1           2           3           4           5           6
    1   1.9985025   1.9889634   1.3054923   1.0000171   0.9999004   0.6939420
            7           8           9          10          11          12
    1   0.0130817   0.0000355   0.0000156   0.0000111   0.0000111   0.0000101

  Amplitudes : 
  
 | HOLE  | ALPHA  | BETA   | PART  |    AMPLITUDE 
--------------------------------------------------
 |       | 011110 | 110100 |  37   |     1.8934541917869E-01
 |       | 011110 | 101100 |  37   |    -1.5644383582911E-01
 |       | 011110 | 011100 |  37   |     3.7105793473268E-01
 |       | 010111 | 011100 |  37   |     1.2551520906023E-01
 |       | 001111 | 011100 |  37   |    -1.6741110113969E-01
 |       | 011101 | 010110 |  37   |    -2.0744685287956E-01
 |       | 011110 | 010101 |  37   |    -4.8625957036579E-01
 |       | 011101 | 001110 |  37   |     2.2223658759642E-01
 |       | 011110 | 001101 |  37   |     5.6732953644859E-01
 |       | 011111 | 010100 |  37   |    -1.5329750842603E-01
 |       | 011111 | 001100 |  37   |     1.7768184771249E-01
--------------------------------------------------
*** Contributions RASCI wfn    Active:   0.04
                                 Hole:   0.00
                                 Part:  99.96

      Mulliken population analysis 
 ---------------------------------------------------
   Atom    Charge (a.u.)   Spin (a.u.)  
 ---------------------------------------------------
   1  N   -0.886531        4.288887 
   2  H   -2.409676        0.582640 
 ---------------------------------------------------
   Sum:   -3.296206        4.871527 
 ---------------------------------------------------
 
  
 NATURAL OCCUPATION NUMBERS (higher than 1.0E-05)
            1           2           3           4           5           6
    1   1.9985025   1.9889634   1.3054923   1.0000171   0.9999004   0.6939420
            7           8           9          10          11          12
    1   0.0130817   0.0000355   0.0000156   0.0000111   0.0000111   0.0000101
  
*** Unpaired Electrons
 Yamaguchi Nd:         3.86
 Head-Gordon Nu:       3.41
 Head-Gordon Nu_nl:    3.64
  
**************************************************
 RAS-CI total energy for state   3:    -42.034009548750
  Excitation energy (eV) =  0.359892353299
  State symmetry: A2    (C2v      )
  <S^2>      :  2.0000
  Dipole Moment:    0.0000 X    -0.0000 Y     2.9237 Z
  Trans. Moment:   -0.0001 X     0.2829 Y    -0.0000 Z
  Strength   :  0.000706
  Natural transition orbitals ( 1 -> 3 ):
   e-/hole pair  1 alpha:  ampl =  0.274174 (  7.5%)   [6 : 7]
   e-/hole pair  2 alpha:  ampl =  0.021233 (  0.0%)   [5 : 8]
   e-/hole pair  1 beta :  ampl =  0.832309 ( 69.3%)   [6 : 7]
   e-/hole pair  2 beta :  ampl =  0.007485 (  0.0%)   [5 : 8]
   Sum of square amplitudes: 0.77

 NATURAL OCCUPATION NUMBERS (higher than 1.0E-05)
            1           2           3           4           5           6
    1   1.9997977   1.3045926   1.0155673   1.0000141   1.0000141   0.9842263
            7           8           9          10
    1   0.6957233   0.0000160   0.0000158   0.0000158

  Amplitudes : 
  
 | HOLE  | ALPHA  | BETA   | PART  |    AMPLITUDE 
--------------------------------------------------
 |       | 011110 | 111000 |  37   |    -2.7051629120034E-01
 |       | 001111 | 111000 |  37   |     1.0148049779420E-01
 |       | 011011 | 110100 |  37   |     1.3961951739632E-01
 |       | 011101 | 110010 |  37   |    -1.3961951739391E-01
 |       | 011110 | 110001 |  37   |    -4.6740191703212E-01
 |       | 011011 | 101100 |  37   |    -1.5006902400566E-01
 |       | 011101 | 101010 |  37   |     1.5006902402172E-01
 |       | 011110 | 101001 |  37   |     5.1648865772364E-01
 |       | 110110 | 011001 |  37   |    -1.1444319710367E-01
 |       | 101110 | 011001 |  37   |     1.4607701347214E-01
 |       | 011110 | 011001 |  37   |    -2.0152383536467E-01
 |       | 111010 | 010101 |  37   |     1.1210619155325E-01
 |       | 111100 | 010011 |  37   |    -1.1210619154605E-01
 |       | 111010 | 001101 |  37   |    -1.1873337638528E-01
 |       | 111100 | 001011 |  37   |     1.1873337638372E-01
 |       | 111110 | 010001 |  37   |    -1.2874633688869E-01
 |       | 111110 | 001001 |  37   |     1.3294489154535E-01
 |       | 011111 | 110000 |  37   |    -1.0054237739070E-01
 |       | 011111 | 101000 |  37   |     1.1487011194908E-01
--------------------------------------------------
*** Contributions RASCI wfn    Active:   0.04
                                 Hole:   0.00
                                 Part:  99.96

      Mulliken population analysis 
 ---------------------------------------------------
   Atom    Charge (a.u.)   Spin (a.u.)  
 ---------------------------------------------------
   1  N   -0.908311        4.122836 
   2  H   -2.387658        0.454119 
 ---------------------------------------------------
   Sum:   -3.295968        4.576955 
 ---------------------------------------------------
 
  
 NATURAL OCCUPATION NUMBERS (higher than 1.0E-05)
            1           2           3           4           5           6
    1   1.9997977   1.3045926   1.0155673   1.0000141   1.0000141   0.9842263
            7           8           9          10
    1   0.6957233   0.0000160   0.0000158   0.0000158
  
*** Unpaired Electrons
 Yamaguchi Nd:         5.81
 Head-Gordon Nu:       5.36
 Head-Gordon Nu_nl:    5.65
  
**************************************************
 RAS-CI total energy for state   4:    -41.817593864370
  Excitation energy (eV) =  6.248862746713
  State symmetry: B2    (C2v      )
  <S^2>      :  2.0000
  Dipole Moment:   -0.0000 X    -0.0000 Y    -0.3303 Z
  Trans. Moment:   -0.0000 X    -0.0000 Y     0.0001 Z
  Strength   :  0.000000
  Natural transition orbitals ( 1 -> 4 ):
   e-/hole pair  1 alpha:  ampl =  0.029809 (  0.1%)   [6 : 7]
   e-/hole pair  2 alpha:  ampl =  0.000181 (  0.0%)   [5 : 8]
   e-/hole pair  1 beta :  ampl =  0.029697 (  0.1%)   [6 : 7]
   e-/hole pair  2 beta :  ampl =  0.000175 (  0.0%)   [5 : 8]
   Sum of square amplitudes: 0.00

 NATURAL OCCUPATION NUMBERS (higher than 1.0E-05)
            1           2           3           4           5           6
    1   1.9996463   1.9896593   1.0894521   1.0000242   0.9998921   0.9050559
            7           8           9          10          11
    1   0.0161697   0.0000335   0.0000180   0.0000165   0.0000105

  Amplitudes : 
  
 | HOLE  | ALPHA  | BETA   | PART  |    AMPLITUDE 
--------------------------------------------------
 |       | 011110 | 110100 |  37   |     5.8471959235447E-01
 |       | 011110 | 101100 |  37   |    -5.2883930831077E-01
 |       | 011110 | 100101 |  37   |    -1.1077880348267E-01
 |       | 110110 | 011100 |  37   |     1.9614624635499E-01
 |       | 101110 | 011100 |  37   |    -1.8050991700497E-01
 |       | 111100 | 010110 |  37   |    -1.9373126689606E-01
 |       | 011101 | 010110 |  37   |     1.2488584514725E-01
 |       | 011110 | 010101 |  37   |     2.3506668364827E-01
 |       | 111100 | 001110 |  37   |     1.7235869111567E-01
 |       | 011101 | 001110 |  37   |    -1.1133738950586E-01
 |       | 011110 | 001101 |  37   |    -1.9922559470460E-01
 |       | 111110 | 010100 |  37   |     1.9484207910340E-01
 |       | 111110 | 001100 |  37   |    -1.7597070019012E-01
--------------------------------------------------
*** Contributions RASCI wfn    Active:   0.03
                                 Hole:   0.00
                                 Part:  99.97

      Mulliken population analysis 
 ---------------------------------------------------
   Atom    Charge (a.u.)   Spin (a.u.)  
 ---------------------------------------------------
   1  N   -2.438434        3.375039 
   2  H   -0.861449        1.415298 
 ---------------------------------------------------
   Sum:   -3.299883        4.790337 
 ---------------------------------------------------
 
  
 NATURAL OCCUPATION NUMBERS (higher than 1.0E-05)
            1           2           3           4           5           6
    1   1.9996463   1.9896593   1.0894521   1.0000242   0.9998921   0.9050559
            7           8           9          10          11
    1   0.0161697   0.0000335   0.0000180   0.0000165   0.0000105
  
*** Unpaired Electrons
 Yamaguchi Nd:         4.04
 Head-Gordon Nu:       3.84
 Head-Gordon Nu_nl:    3.97
  
**************************************************
 RAS-CI total energy for state   5:    -41.817593863548
  Excitation energy (eV) =  6.248862769103
  State symmetry: B1    (C2v      )
  <S^2>      :  2.0000
  Dipole Moment:   -0.0000 X     0.0000 Y    -0.3303 Z
  Trans. Moment:    0.0000 X    -0.0000 Y    -0.3754 Z
  Strength   :  0.021572
  Natural transition orbitals ( 1 -> 5 ):
   e-/hole pair  1 alpha:  ampl =  0.251121 (  6.3%)   [6 : 7]
   e-/hole pair  2 alpha:  ampl =  0.029795 (  0.1%)   [5 : 8]
   e-/hole pair  1 beta :  ampl =  0.760985 ( 57.9%)   [6 : 7]
   e-/hole pair  2 beta :  ampl =  0.029797 (  0.1%)   [5 : 8]
   Sum of square amplitudes: 0.64

 NATURAL OCCUPATION NUMBERS (higher than 1.0E-05)
            1           2           3           4           5           6
    1   1.9996461   1.9896592   1.0894548   1.0000242   0.9998921   0.9050533
            7           8           9          10          11
    1   0.0161699   0.0000335   0.0000180   0.0000165   0.0000105

  Amplitudes : 
  
 | HOLE  | ALPHA  | BETA   | PART  |    AMPLITUDE 
--------------------------------------------------
 |       | 011110 | 110010 |  37   |     5.8471828833622E-01
 |       | 011110 | 101010 |  37   |    -5.2884083696035E-01
 |       | 011110 | 100011 |  37   |    -1.1077857203137E-01
 |       | 110110 | 011010 |  37   |     1.9614617890737E-01
 |       | 101110 | 011010 |  37   |    -1.8050968181601E-01
 |       | 111010 | 010110 |  37   |    -1.9373013042347E-01
 |       | 011011 | 010110 |  37   |     1.2488695277174E-01
 |       | 011110 | 010011 |  37   |     2.3506790345960E-01
 |       | 111010 | 001110 |  37   |     1.7236075326483E-01
 |       | 011011 | 001110 |  37   |    -1.1133721816656E-01
 |       | 011110 | 001011 |  37   |    -1.9922489743288E-01
 |       | 111110 | 010010 |  37   |     1.9484197905358E-01
 |       | 111110 | 001010 |  37   |    -1.7597040192301E-01
--------------------------------------------------
*** Contributions RASCI wfn    Active:   0.03
                                 Hole:   0.00
                                 Part:  99.97

      Mulliken population analysis 
 ---------------------------------------------------
   Atom    Charge (a.u.)   Spin (a.u.)  
 ---------------------------------------------------
   1  N   -2.438435        3.375039 
   2  H   -0.861449        1.415300 
 ---------------------------------------------------
   Sum:   -3.299883        4.790338 
 ---------------------------------------------------
 
  
 NATURAL OCCUPATION NUMBERS (higher than 1.0E-05)
            1           2           3           4           5           6
    1   1.9996461   1.9896592   1.0894548   1.0000242   0.9998921   0.9050533
            7           8           9          10          11
    1   0.0161699   0.0000335   0.0000180   0.0000165   0.0000105
  
*** Unpaired Electrons
 Yamaguchi Nd:         4.04
 Head-Gordon Nu:       3.84
 Head-Gordon Nu_nl:    3.97
  
**************************************************
 RAS-CI total energy for state   6:    -41.727024253615
  Excitation energy (eV) =  8.713387246452
  State symmetry: A1    (C2v      )
  <S^2>      :  2.0000
  Dipole Moment:    0.0000 X     0.0000 Y     0.9403 Z
  Trans. Moment:   -0.0629 X    -0.0000 Y    -0.0000 Z
  Strength   :  0.000844
  Natural transition orbitals ( 1 -> 6 ):
   e-/hole pair  1 alpha:  ampl =  0.304857 (  9.3%)   [6 : 7]
   e-/hole pair  2 alpha:  ampl =  0.040019 (  0.2%)   [5 : 8]
   e-/hole pair  1 beta :  ampl =  0.856795 ( 73.4%)   [6 : 7]
   e-/hole pair  2 beta :  ampl =  0.025660 (  0.1%)   [5 : 8]
   Sum of square amplitudes: 0.83

 NATURAL OCCUPATION NUMBERS (higher than 1.0E-05)
            1           2           3           4           5           6
    1   1.9739667   1.9739667   1.9648119   0.9998515   0.9993117   0.0790903
            7           8           9          10          11          12
    1   0.0088403   0.0000477   0.0000477   0.0000194   0.0000174   0.0000174

  Amplitudes : 
  
 | HOLE  | ALPHA  | BETA   | PART  |    AMPLITUDE 
--------------------------------------------------
 |       | 011110 | 100110 |  37   |     1.5614268914188E-01
 |       | 011110 | 010110 |  37   |     6.8881682730017E-01
 |       | 011110 | 001110 |  37   |    -6.3115118254696E-01
 |       | 011110 | 000111 |  37   |     2.0763981365967E-01
--------------------------------------------------
*** Contributions RASCI wfn    Active:   0.02
                                 Hole:   0.00
                                 Part:  99.98

      Mulliken population analysis 
 ---------------------------------------------------
   Atom    Charge (a.u.)   Spin (a.u.)  
 ---------------------------------------------------
   1  N   -2.344629        3.627397 
   2  H   -0.956134        1.623406 
 ---------------------------------------------------
   Sum:   -3.300762        5.250803 
 ---------------------------------------------------
 
  
 NATURAL OCCUPATION NUMBERS (higher than 1.0E-05)
            1           2           3           4           5           6
    1   1.9739667   1.9739667   1.9648119   0.9998515   0.9993117   0.0790903
            7           8           9          10          11          12
    1   0.0088403   0.0000477   0.0000477   0.0000194   0.0000174   0.0000174
  
*** Unpaired Electrons
 Yamaguchi Nd:         2.34
 Head-Gordon Nu:       2.17
 Head-Gordon Nu_nl:    2.03
  
**************************************************
 RAS-CI total energy for state   7:    -41.688804667550
  Excitation energy (eV) =  9.753395097219
  Warning: not all configurations have same symmetry
  State symmetry: *A1    (C2v      )
  <S^2>      :  2.0000
  Dipole Moment:    0.0000 X    -0.0000 Y     3.7321 Z
  Trans. Moment:    0.1800 X     0.1162 Y    -0.0000 Z
  Strength   :  0.010970
  Natural transition orbitals ( 1 -> 7 ):
   e-/hole pair  1 alpha:  ampl =  0.378338 ( 14.3%)   [6 : 7]
   e-/hole pair  2 alpha:  ampl =  0.004399 (  0.0%)   [5 : 8]
   e-/hole pair  1 beta :  ampl =  0.179571 (  3.2%)   [6 : 7]
   e-/hole pair  2 beta :  ampl =  0.013558 (  0.0%)   [5 : 8]
   Sum of square amplitudes: 0.18

 NATURAL OCCUPATION NUMBERS (higher than 1.0E-05)
            1           2           3           4           5           6
    1   1.9994801   1.7573871   1.0064101   1.0000169   1.0000169   0.9997011
            7           8           9          10          11          12
    1   0.2367248   0.0001486   0.0000272   0.0000272   0.0000177   0.0000152
           13
    1   0.0000152

  Amplitudes : 
  
 | HOLE  | ALPHA  | BETA   | PART  |    AMPLITUDE 
--------------------------------------------------
 |       | 011101 | 110100 |  37   |     2.2754668213243E-01
 |       | 011011 | 110100 |  37   |     1.4689040655441E-01
 |       | 011101 | 110010 |  37   |     1.4689040633194E-01
 |       | 011011 | 110010 |  37   |    -2.2754661300005E-01
 |       | 011101 | 101100 |  37   |    -2.0736657081939E-01
 |       | 011011 | 101100 |  37   |    -1.3386340533179E-01
 |       | 011101 | 101010 |  37   |    -1.3386340542620E-01
 |       | 011011 | 101010 |  37   |     2.0736669635296E-01
 |       | 111100 | 010101 |  37   |    -1.5826741810499E-01
 |       | 111010 | 010101 |  37   |    -1.0216789327711E-01
 |       | 011101 | 010101 |  37   |     3.0403806332014E-01
 |       | 011011 | 010101 |  37   |     1.9626870449452E-01
 |       | 111100 | 010011 |  37   |    -1.0216789386500E-01
 |       | 111010 | 010011 |  37   |     1.5826736745180E-01
 |       | 011101 | 010011 |  37   |     1.9626870356332E-01
 |       | 011011 | 010011 |  37   |    -3.0403821183482E-01
 |       | 111100 | 001101 |  37   |     1.5560919797109E-01
 |       | 111010 | 001101 |  37   |     1.0045194996699E-01
 |       | 011101 | 001101 |  37   |    -3.0053194677561E-01
 |       | 011011 | 001101 |  37   |    -1.9400528804795E-01
 |       | 111100 | 001011 |  37   |     1.0045194966685E-01
 |       | 111010 | 001011 |  37   |    -1.5560927940089E-01
 |       | 011101 | 001011 |  37   |    -1.9400528907290E-01
 |       | 011011 | 001011 |  37   |     3.0053185418531E-01
--------------------------------------------------
*** Contributions RASCI wfn    Active:   0.00
                                 Hole:   0.00
                                 Part: 100.00

      Mulliken population analysis 
 ---------------------------------------------------
   Atom    Charge (a.u.)   Spin (a.u.)  
 ---------------------------------------------------
   1  N   -0.364685        3.400011 
   2  H   -2.940769        1.875961 
 ---------------------------------------------------
   Sum:   -3.305454        5.275972 
 ---------------------------------------------------
 
  
 NATURAL OCCUPATION NUMBERS (higher than 1.0E-05)
            1           2           3           4           5           6
    1   1.9994801   1.7573871   1.0064101   1.0000169   1.0000169   0.9997011
            7           8           9          10          11          12
    1   0.2367248   0.0001486   0.0000272   0.0000272   0.0000177   0.0000152
           13
    1   0.0000152
  
*** Unpaired Electrons
 Yamaguchi Nd:         4.85
 Head-Gordon Nu:       4.47
 Head-Gordon Nu_nl:    4.36
  
**************************************************
 RAS-CI total energy for state   8:    -41.688804667548
  Excitation energy (eV) =  9.753395097288
  Warning: not all configurations have same symmetry
  State symmetry: *A1    (C2v      )
  <S^2>      :  2.0000
  Dipole Moment:   -0.0000 X     0.0000 Y     3.7321 Z
  Trans. Moment:    0.1162 X    -0.1800 Y    -0.0000 Z
  Strength   :  0.010970
  Natural transition orbitals ( 1 -> 8 ):
   e-/hole pair  1 alpha:  ampl =  0.378338 ( 14.3%)   [6 : 7]
   e-/hole pair  2 alpha:  ampl =  0.004399 (  0.0%)   [5 : 8]
   e-/hole pair  1 beta :  ampl =  0.179571 (  3.2%)   [6 : 7]
   e-/hole pair  2 beta :  ampl =  0.013558 (  0.0%)   [5 : 8]
   Sum of square amplitudes: 0.18

 NATURAL OCCUPATION NUMBERS (higher than 1.0E-05)
            1           2           3           4           5           6
    1   1.9994801   1.7573871   1.0064101   1.0000169   1.0000169   0.9997011
            7           8           9          10          11          12
    1   0.2367248   0.0001486   0.0000272   0.0000272   0.0000177   0.0000152
           13
    1   0.0000152

  Amplitudes : 
  
 | HOLE  | ALPHA  | BETA   | PART  |    AMPLITUDE 
--------------------------------------------------
 |       | 011101 | 110100 |  37   |     1.4689040600211E-01
 |       | 011011 | 110100 |  37   |    -2.2754664941434E-01
 |       | 011101 | 110010 |  37   |    -2.2754664945573E-01
 |       | 011011 | 110010 |  37   |    -1.4689040999115E-01
 |       | 011101 | 101100 |  37   |    -1.3386340913129E-01
 |       | 011011 | 101100 |  37   |     2.0736663357402E-01
 |       | 011101 | 101010 |  37   |     2.0736663360605E-01
 |       | 011011 | 101010 |  37   |     1.3386340164062E-01
 |       | 111100 | 010101 |  37   |    -1.0216789245930E-01
 |       | 111010 | 010101 |  37   |     1.5826739316861E-01
 |       | 011101 | 010101 |  37   |     1.9626870976055E-01
 |       | 011011 | 010101 |  37   |    -3.0403813910647E-01
 |       | 111100 | 010011 |  37   |     1.5826739322401E-01
 |       | 111010 | 010011 |  37   |     1.0216789537559E-01
 |       | 011101 | 010011 |  37   |    -3.0403813912603E-01
 |       | 011011 | 010011 |  37   |    -1.9626870084497E-01
 |       | 111100 | 001101 |  37   |     1.0045194915678E-01
 |       | 111010 | 001101 |  37   |    -1.5560923494182E-01
 |       | 011101 | 001101 |  37   |    -1.9400528755170E-01
 |       | 011011 | 001101 |  37   |     3.0053190241660E-01
 |       | 111100 | 001011 |  37   |    -1.5560923495776E-01
 |       | 111010 | 001011 |  37   |    -1.0045194427884E-01
 |       | 011101 | 001011 |  37   |     3.0053190251782E-01
 |       | 011011 | 001011 |  37   |     1.9400529286031E-01
--------------------------------------------------
*** Contributions RASCI wfn    Active:   0.00
                                 Hole:   0.00
                                 Part: 100.00

      Mulliken population analysis 
 ---------------------------------------------------
   Atom    Charge (a.u.)   Spin (a.u.)  
 ---------------------------------------------------
   1  N   -0.364685        3.400011 
   2  H   -2.940769        1.875961 
 ---------------------------------------------------
   Sum:   -3.305454        5.275972 
 ---------------------------------------------------
 
  
 NATURAL OCCUPATION NUMBERS (higher than 1.0E-05)
            1           2           3           4           5           6
    1   1.9994801   1.7573871   1.0064101   1.0000169   1.0000169   0.9997011
            7           8           9          10          11          12
    1   0.2367248   0.0001486   0.0000272   0.0000272   0.0000177   0.0000152
           13
    1   0.0000152
  
*** Unpaired Electrons
 Yamaguchi Nd:         4.85
 Head-Gordon Nu:       4.47
 Head-Gordon Nu_nl:    4.36
  
**************************************************
 RAS-CI total energy for state   9:    -41.656375818227
  Excitation energy (eV) = 10.635828984140
  State symmetry: A1    (C2v      )
  <S^2>      :  2.0000
  Dipole Moment:    0.0000 X     0.0000 Y     4.4837 Z
  Trans. Moment:   -0.1449 X     0.0459 Y    -0.0000 Z
  Strength   :  0.006021
  Natural transition orbitals ( 1 -> 9 ):
   e-/hole pair  1 alpha:  ampl =  0.519253 ( 27.0%)   [6 : 7]
   e-/hole pair  2 alpha:  ampl =  0.001880 (  0.0%)   [5 : 8]
   e-/hole pair  1 beta :  ampl =  0.175921 (  3.1%)   [6 : 7]
   e-/hole pair  2 beta :  ampl =  0.014377 (  0.0%)   [5 : 8]
   Sum of square amplitudes: 0.30

 NATURAL OCCUPATION NUMBERS (higher than 1.0E-05)
            1           2           3           4           5           6
    1   1.9983715   1.4822694   1.0000126   1.0000126   0.9999353   0.9800281
            7           8           9          10          11          12
    1   0.5391110   0.0001479   0.0000277   0.0000277   0.0000125   0.0000114
           13          14
    1   0.0000114   0.0000101

  Amplitudes : 
  
 | HOLE  | ALPHA  | BETA   | PART  |    AMPLITUDE 
--------------------------------------------------
 |       | 011101 | 110100 |  37   |     2.9328784740436E-01
 |       | 011011 | 110010 |  37   |    -2.9328781576461E-01
 |       | 011101 | 101100 |  37   |    -2.9746782245368E-01
 |       | 011011 | 101010 |  37   |     2.9746788017475E-01
 |       | 110101 | 011100 |  37   |     1.5075380813349E-01
 |       | 101101 | 011100 |  37   |    -1.7458088995721E-01
 |       | 011101 | 011100 |  37   |     2.5926905509733E-01
 |       | 110011 | 011010 |  37   |    -1.5075384243327E-01
 |       | 101011 | 011010 |  37   |     1.7458088253877E-01
 |       | 011011 | 011010 |  37   |    -2.5926904766047E-01
 |       | 011101 | 010101 |  37   |    -1.7534703803080E-01
 |       | 011011 | 010011 |  37   |     1.7534696924227E-01
 |       | 011101 | 001101 |  37   |     2.1286024125628E-01
 |       | 011011 | 001011 |  37   |    -2.1286028332646E-01
 |       | 111101 | 010100 |  37   |     1.7841575385628E-01
 |       | 111101 | 001100 |  37   |    -1.6801590803584E-01
 |       | 111011 | 010010 |  37   |    -1.7841571098330E-01
 |       | 111011 | 001010 |  37   |     1.6801593547253E-01
--------------------------------------------------
*** Contributions RASCI wfn    Active:   0.01
                                 Hole:   0.00
                                 Part:  99.99

      Mulliken population analysis 
 ---------------------------------------------------
   Atom    Charge (a.u.)   Spin (a.u.)  
 ---------------------------------------------------
   1  N   -0.402465        2.287664 
   2  H   -2.902390        2.132535 
 ---------------------------------------------------
   Sum:   -3.304855        4.420199 
 ---------------------------------------------------
 
  
 NATURAL OCCUPATION NUMBERS (higher than 1.0E-05)
            1           2           3           4           5           6
    1   1.9983715   1.4822694   1.0000126   1.0000126   0.9999353   0.9800281
            7           8           9          10          11          12
    1   0.5391110   0.0001479   0.0000277   0.0000277   0.0000125   0.0000114
           13          14
    1   0.0000114   0.0000101
  
*** Unpaired Electrons
 Yamaguchi Nd:         5.56
 Head-Gordon Nu:       5.04
 Head-Gordon Nu_nl:    5.21
  
**************************************************
 RAS-CI total energy for state  10:    -41.656375818227
  Excitation energy (eV) = 10.635828984146
  State symmetry: A2    (C2v      )
  <S^2>      :  2.0000
  Dipole Moment:   -0.0000 X     0.0000 Y     4.4837 Z
  Trans. Moment:    0.0459 X     0.1449 Y     0.0000 Z
  Strength   :  0.006021
  Natural transition orbitals ( 1 -> 10 ):
   e-/hole pair  1 alpha:  ampl =  0.519253 ( 27.0%)   [6 : 7]
   e-/hole pair  2 alpha:  ampl =  0.001880 (  0.0%)   [5 : 8]
   e-/hole pair  1 beta :  ampl =  0.175921 (  3.1%)   [6 : 7]
   e-/hole pair  2 beta :  ampl =  0.014377 (  0.0%)   [5 : 8]
   Sum of square amplitudes: 0.30

 NATURAL OCCUPATION NUMBERS (higher than 1.0E-05)
            1           2           3           4           5           6
    1   1.9983715   1.4822694   1.0000126   1.0000126   0.9999353   0.9800281
            7           8           9          10          11          12
    1   0.5391110   0.0001479   0.0000277   0.0000277   0.0000125   0.0000114
           13          14
    1   0.0000114   0.0000101

  Amplitudes : 
  
 | HOLE  | ALPHA  | BETA   | PART  |    AMPLITUDE 
--------------------------------------------------
 |       | 011011 | 110100 |  37   |    -2.9328783161116E-01
 |       | 011101 | 110010 |  37   |    -2.9328783153417E-01
 |       | 011011 | 101100 |  37   |     2.9746785129961E-01
 |       | 011101 | 101010 |  37   |     2.9746785136777E-01
 |       | 110011 | 011100 |  37   |    -1.5075382544756E-01
 |       | 101011 | 011100 |  37   |     1.7458088619658E-01
 |       | 011011 | 011100 |  37   |    -2.5926905127491E-01
 |       | 110101 | 011010 |  37   |    -1.5075382510016E-01
 |       | 101101 | 011010 |  37   |     1.7458088633991E-01
 |       | 011101 | 011010 |  37   |    -2.5926905147895E-01
 |       | 011011 | 010101 |  37   |     1.7534700332642E-01
 |       | 011101 | 010011 |  37   |     1.7534700396111E-01
 |       | 011011 | 001101 |  37   |    -2.1286026256402E-01
 |       | 011101 | 001011 |  37   |    -2.1286026199052E-01
 |       | 111101 | 010010 |  37   |    -1.7841573259514E-01
 |       | 111101 | 001010 |  37   |     1.6801592170598E-01
 |       | 111011 | 010100 |  37   |    -1.7841573223742E-01
 |       | 111011 | 001100 |  37   |     1.6801592179343E-01
--------------------------------------------------
*** Contributions RASCI wfn    Active:   0.01
                                 Hole:   0.00
                                 Part:  99.99

      Mulliken population analysis 
 ---------------------------------------------------
   Atom    Charge (a.u.)   Spin (a.u.)  
 ---------------------------------------------------
   1  N   -0.402465        2.287664 
   2  H   -2.902390        2.132535 
 ---------------------------------------------------
   Sum:   -3.304855        4.420199 
 ---------------------------------------------------
 
  
 NATURAL OCCUPATION NUMBERS (higher than 1.0E-05)
            1           2           3           4           5           6
    1   1.9983715   1.4822694   1.0000126   1.0000126   0.9999353   0.9800281
            7           8           9          10          11          12
    1   0.5391110   0.0001479   0.0000277   0.0000277   0.0000125   0.0000114
           13          14
    1   0.0000114   0.0000101
  
*** Unpaired Electrons
 Yamaguchi Nd:         5.56
 Head-Gordon Nu:       5.04
 Head-Gordon Nu_nl:    5.21
  
**************************************************
 RAS-CI total energy for state  11:    -41.637839791247
  Excitation energy (eV) = 11.140219940873
  State symmetry: A1    (C2v      )
  <S^2>      :  2.0000
  Dipole Moment:   -0.0000 X    -0.0000 Y     3.6537 Z
  Trans. Moment:    0.2835 X     0.0001 Y    -0.0000 Z
  Strength   :  0.021941
  Natural transition orbitals ( 1 -> 11 ):
   e-/hole pair  1 alpha:  ampl =  0.351732 ( 12.4%)   [6 : 7]
   e-/hole pair  2 alpha:  ampl =  0.060532 (  0.4%)   [5 : 8]
   e-/hole pair  1 beta :  ampl =  0.175216 (  3.1%)   [6 : 7]
   e-/hole pair  2 beta :  ampl =  0.130601 (  1.7%)   [5 : 8]
   Sum of square amplitudes: 0.18

 NATURAL OCCUPATION NUMBERS (higher than 1.0E-05)
            1           2           3           4           5           6
    1   1.9536548   1.6734435   1.0563892   1.0563892   1.0000975   0.9987306
            7           8           9          10          11          12
    1   0.2611729   0.0000240   0.0000240   0.0000213   0.0000184   0.0000184

  Amplitudes : 
  
 | HOLE  | ALPHA  | BETA   | PART  |    AMPLITUDE 
--------------------------------------------------
 |       | 011101 | 110100 |  37   |    -2.7252882037194E-01
 |       | 011011 | 110010 |  37   |    -2.7252882747651E-01
 |       | 011101 | 101100 |  37   |     2.4792427042284E-01
 |       | 011011 | 101010 |  37   |     2.4792426036285E-01
 |       | 011110 | 010110 |  37   |    -1.0526069372328E-01
 |       | 111100 | 010101 |  37   |     1.8117396185770E-01
 |       | 011101 | 010101 |  37   |    -3.4680591861607E-01
 |       | 111010 | 010011 |  37   |     1.8117396203662E-01
 |       | 011011 | 010011 |  37   |    -3.4680592587071E-01
 |       | 011110 | 001110 |  37   |     1.2061228386919E-01
 |       | 111100 | 001101 |  37   |    -1.7624239760877E-01
 |       | 011101 | 001101 |  37   |     3.3875221398193E-01
 |       | 111010 | 001011 |  37   |    -1.7624239833277E-01
 |       | 011011 | 001011 |  37   |     3.3875220474829E-01
--------------------------------------------------
*** Contributions RASCI wfn    Active:   0.01
                                 Hole:   0.00
                                 Part:  99.99

      Mulliken population analysis 
 ---------------------------------------------------
   Atom    Charge (a.u.)   Spin (a.u.)  
 ---------------------------------------------------
   1  N   -0.468514        3.323446 
   2  H   -2.836503        1.936855 
 ---------------------------------------------------
   Sum:   -3.305017        5.260301 
 ---------------------------------------------------
 
  
 NATURAL OCCUPATION NUMBERS (higher than 1.0E-05)
            1           2           3           4           5           6
    1   1.9536548   1.6734435   1.0563892   1.0563892   1.0000975   0.9987306
            7           8           9          10          11          12
    1   0.2611729   0.0000240   0.0000240   0.0000213   0.0000184   0.0000184
  
*** Unpaired Electrons
 Yamaguchi Nd:         5.09
 Head-Gordon Nu:       4.52
 Head-Gordon Nu_nl:    4.50
  
**************************************************
 RAS-CI total energy for state  12:    -41.605306108912
  Excitation energy (eV) = 12.025506479185
  State symmetry: A1    (C2v      )
  <S^2>      :  2.0000
  Dipole Moment:   -0.0000 X     0.0000 Y     4.5461 Z
  Trans. Moment:    0.2073 X     0.0000 Y    -0.0000 Z
  Strength   :  0.012656
  Natural transition orbitals ( 1 -> 12 ):
   e-/hole pair  1 alpha:  ampl =  0.527013 ( 27.8%)   [6 : 7]
   e-/hole pair  2 alpha:  ampl =  0.022916 (  0.1%)   [5 : 8]
   e-/hole pair  1 beta :  ampl =  0.171108 (  2.9%)   [6 : 7]
   e-/hole pair  2 beta :  ampl =  0.077671 (  0.6%)   [5 : 8]
   Sum of square amplitudes: 0.31

 NATURAL OCCUPATION NUMBERS (higher than 1.0E-05)
            1           2           3           4           5           6
    1   1.9630818   1.4819710   1.0246952   1.0246952   1.0000261   0.9764515
            7           8           9          10          11          12
    1   0.5289586   0.0000233   0.0000233   0.0000184   0.0000184   0.0000131
           13
    1   0.0000107

  Amplitudes : 
  
 | HOLE  | ALPHA  | BETA   | PART  |    AMPLITUDE 
--------------------------------------------------
 |       | 011101 | 110100 |  37   |     2.9108792010755E-01
 |       | 011011 | 110010 |  37   |     2.9108792908107E-01
 |       | 011101 | 101100 |  37   |    -2.9591798933044E-01
 |       | 011011 | 101010 |  37   |    -2.9591797751159E-01
 |       | 111100 | 011100 |  37   |    -1.0980471471079E-01
 |       | 110101 | 011100 |  37   |     1.5602163894491E-01
 |       | 101101 | 011100 |  37   |    -1.8084198325324E-01
 |       | 011101 | 011100 |  37   |     2.7108609680089E-01
 |       | 111010 | 011010 |  37   |    -1.0980471598432E-01
 |       | 110011 | 011010 |  37   |     1.5602164791570E-01
 |       | 101011 | 011010 |  37   |    -1.8084197518621E-01
 |       | 011011 | 011010 |  37   |     2.7108609555587E-01
 |       | 011101 | 010101 |  37   |    -1.9432291553742E-01
 |       | 011011 | 010011 |  37   |    -1.9432290722323E-01
 |       | 011101 | 001101 |  37   |     2.2940946718199E-01
 |       | 011011 | 001011 |  37   |     2.2940947916055E-01
 |       | 111101 | 010100 |  37   |     1.8586551120191E-01
 |       | 111101 | 001100 |  37   |    -1.7410226778167E-01
 |       | 111011 | 010010 |  37   |     1.8586551125615E-01
 |       | 111011 | 001010 |  37   |    -1.7410226336759E-01
--------------------------------------------------
*** Contributions RASCI wfn    Active:   0.01
                                 Hole:   0.00
                                 Part:  99.99

      Mulliken population analysis 
 ---------------------------------------------------
   Atom    Charge (a.u.)   Spin (a.u.)  
 ---------------------------------------------------
   1  N   -0.381958        2.346085 
   2  H   -2.922785        2.061908 
 ---------------------------------------------------
   Sum:   -3.304743        4.407994 
 ---------------------------------------------------
 
  
 NATURAL OCCUPATION NUMBERS (higher than 1.0E-05)
            1           2           3           4           5           6
    1   1.9630818   1.4819710   1.0246952   1.0246952   1.0000261   0.9764515
            7           8           9          10          11          12
    1   0.5289586   0.0000233   0.0000233   0.0000184   0.0000184   0.0000131
           13
    1   0.0000107
  
*** Unpaired Electrons
 Yamaguchi Nd:         5.62
 Head-Gordon Nu:       5.01
 Head-Gordon Nu_nl:    5.20
  
**************************************************
 RAS-CI total energy for state  13:    -41.572421508437
  Excitation energy (eV) = 12.920341985905
  State symmetry: A2    (C2v      )
  <S^2>      :  2.0000
  Dipole Moment:    0.0000 X    -0.0000 Y     5.1843 Z
  Trans. Moment:    0.0001 X    -0.3403 Y    -0.0000 Z
  Strength   :  0.036663
  Natural transition orbitals ( 1 -> 13 ):
   e-/hole pair  1 alpha:  ampl =  0.173415 (  3.0%)   [6 : 7]
   e-/hole pair  2 alpha:  ampl =  0.007633 (  0.0%)   [5 : 8]
   e-/hole pair  1 beta :  ampl =  0.887061 ( 78.7%)   [6 : 7]
   e-/hole pair  2 beta :  ampl =  0.002785 (  0.0%)   [5 : 8]
   Sum of square amplitudes: 0.82

 NATURAL OCCUPATION NUMBERS (higher than 1.0E-05)
            1           2           3           4           5           6
    1   1.9911830   1.9596480   1.0200421   1.0000339   1.0000339   0.9868823
            7           8           9          10          11
    1   0.0420230   0.0000404   0.0000323   0.0000323   0.0000230

  Amplitudes : 
  
 | HOLE  | ALPHA  | BETA   | PART  |    AMPLITUDE 
--------------------------------------------------
 |       | 011110 | 111000 |  37   |     3.9083947945146E-01
 |       | 011110 | 101001 |  37   |    -1.0158269834699E-01
 |       | 111010 | 011100 |  37   |     1.4004104140654E-01
 |       | 011011 | 011100 |  37   |     2.7693583997559E-01
 |       | 111100 | 011010 |  37   |    -1.4004104147136E-01
 |       | 011101 | 011010 |  37   |    -2.7693583995131E-01
 |       | 011110 | 011001 |  37   |    -7.3773950054269E-01
 |       | 111110 | 011000 |  37   |     1.1075739764426E-01
 |       | 011111 | 011000 |  37   |    -1.8386781898597E-01
--------------------------------------------------
*** Contributions RASCI wfn    Active:   0.03
                                 Hole:   0.00
                                 Part:  99.97

      Mulliken population analysis 
 ---------------------------------------------------
   Atom    Charge (a.u.)   Spin (a.u.)  
 ---------------------------------------------------
   1  N   -0.854230        4.365873 
   2  H   -2.437571        0.542943 
 ---------------------------------------------------
   Sum:   -3.291801        4.908816 
 ---------------------------------------------------
 
  
 NATURAL OCCUPATION NUMBERS (higher than 1.0E-05)
            1           2           3           4           5           6
    1   1.9911830   1.9596480   1.0200421   1.0000339   1.0000339   0.9868823
            7           8           9          10          11
    1   0.0420230   0.0000404   0.0000323   0.0000323   0.0000230
  
*** Unpaired Electrons
 Yamaguchi Nd:         4.18
 Head-Gordon Nu:       4.06
 Head-Gordon Nu_nl:    4.01
  
**************************************************
 RAS-CI total energy for state  14:    -41.565907158730
  Excitation energy (eV) = 13.097606460386
  State symmetry: B1    (C2v      )
  <S^2>      :  2.0000
  Dipole Moment:    0.0000 X    -0.0000 Y     4.2743 Z
  Trans. Moment:   -0.0000 X     0.0000 Y     0.1287 Z
  Strength   :  0.005317
  Natural transition orbitals ( 1 -> 14 ):
   e-/hole pair  1 alpha:  ampl =  0.282141 (  8.0%)   [6 : 7]
   e-/hole pair  2 alpha:  ampl =  0.236003 (  5.6%)   [5 : 8]
   e-/hole pair  1 beta :  ampl =  0.236006 (  5.6%)   [6 : 7]
   e-/hole pair  2 beta :  ampl =  0.234591 (  5.5%)   [5 : 8]
   Sum of square amplitudes: 0.26

 NATURAL OCCUPATION NUMBERS (higher than 1.0E-05)
            1           2           3           4           5           6
    1   1.9981421   1.9615235   1.1345561   1.0000762   0.9996417   0.8700316
            7           8           9          10          11          12
    1   0.0356816   0.0001358   0.0000786   0.0000395   0.0000370   0.0000172
           13
    1   0.0000163

  Amplitudes : 
  
 | HOLE  | ALPHA  | BETA   | PART  |    AMPLITUDE 
--------------------------------------------------
 |       | 011110 | 011010 |  37   |     2.2778349322032E-01
 |       | 010111 | 011010 |  37   |     4.0916377724028E-01
 |       | 001111 | 011010 |  37   |    -2.5431584181315E-01
 |       | 011011 | 010110 |  37   |     5.6576170721814E-01
 |       | 011011 | 001110 |  37   |    -4.9146873331485E-01
 |       | 011011 | 000111 |  37   |     1.0560884135609E-01
 |       | 011111 | 010010 |  37   |    -1.5884837385494E-01
 |       | 011111 | 001010 |  37   |     2.6242231171466E-01
--------------------------------------------------
*** Contributions RASCI wfn    Active:   0.03
                                 Hole:   0.00
                                 Part:  99.97

      Mulliken population analysis 
 ---------------------------------------------------
   Atom    Charge (a.u.)   Spin (a.u.)  
 ---------------------------------------------------
   1  N   -0.872429        1.972604 
   2  H   -2.434407        2.705923 
 ---------------------------------------------------
   Sum:   -3.306837        4.678527 
 ---------------------------------------------------
 
  
 NATURAL OCCUPATION NUMBERS (higher than 1.0E-05)
            1           2           3           4           5           6
    1   1.9981421   1.9615235   1.1345561   1.0000762   0.9996417   0.8700316
            7           8           9          10          11          12
    1   0.0356816   0.0001358   0.0000786   0.0000395   0.0000370   0.0000172
           13
    1   0.0000163
  
*** Unpaired Electrons
 Yamaguchi Nd:         4.11
 Head-Gordon Nu:       3.81
 Head-Gordon Nu_nl:    3.94
  
**************************************************
 RAS-CI total energy for state  15:    -41.565907156920
  Excitation energy (eV) = 13.097606509620
  State symmetry: B2    (C2v      )
  <S^2>      :  2.0000
  Dipole Moment:    0.0000 X     0.0000 Y     4.2743 Z
  Trans. Moment:    0.0000 X    -0.0000 Y     0.0000 Z
  Strength   :  0.000000
  Natural transition orbitals ( 1 -> 15 ):
   e-/hole pair  1 alpha:  ampl =  0.235851 (  5.6%)   [6 : 7]
   e-/hole pair  2 alpha:  ampl =  0.002191 (  0.0%)   [5 : 8]
   e-/hole pair  1 beta :  ampl =  0.236283 (  5.6%)   [6 : 7]
   e-/hole pair  2 beta :  ampl =  0.001646 (  0.0%)   [5 : 8]
   Sum of square amplitudes: 0.11

 NATURAL OCCUPATION NUMBERS (higher than 1.0E-05)
            1           2           3           4           5           6
    1   1.9981390   1.9615244   1.1345574   1.0000762   0.9996417   0.8700310
            7           8           9          10          11          12
    1   0.0356830   0.0001358   0.0000786   0.0000395   0.0000370   0.0000172
           13
    1   0.0000163

  Amplitudes : 
  
 | HOLE  | ALPHA  | BETA   | PART  |    AMPLITUDE 
--------------------------------------------------
 |       | 011110 | 011100 |  37   |    -2.2778352190218E-01
 |       | 010111 | 011100 |  37   |    -4.0916410407788E-01
 |       | 001111 | 011100 |  37   |     2.5431561766519E-01
 |       | 011101 | 010110 |  37   |    -5.6576221742075E-01
 |       | 011101 | 001110 |  37   |     4.9146880738011E-01
 |       | 011101 | 000111 |  37   |    -1.0560241252673E-01
 |       | 011111 | 010100 |  37   |     1.5884901538530E-01
 |       | 011111 | 001100 |  37   |    -2.6242200116516E-01
--------------------------------------------------
*** Contributions RASCI wfn    Active:   0.03
                                 Hole:   0.00
                                 Part:  99.97

      Mulliken population analysis 
 ---------------------------------------------------
   Atom    Charge (a.u.)   Spin (a.u.)  
 ---------------------------------------------------
   1  N   -0.872431        1.972601 
   2  H   -2.434406        2.705925 
 ---------------------------------------------------
   Sum:   -3.306837        4.678527 
 ---------------------------------------------------
 
  
 NATURAL OCCUPATION NUMBERS (higher than 1.0E-05)
            1           2           3           4           5           6
    1   1.9981390   1.9615244   1.1345574   1.0000762   0.9996417   0.8700310
            7           8           9          10          11          12
    1   0.0356830   0.0001358   0.0000786   0.0000395   0.0000370   0.0000172
           13
    1   0.0000163
  
*** Unpaired Electrons
 Yamaguchi Nd:         4.11
 Head-Gordon Nu:       3.81
 Head-Gordon Nu_nl:    3.94
  
**************************************************
 RAS-CI total energy for state  16:    -41.532896658105
  Excitation energy (eV) = 13.995867884492
  Warning: not all configurations have same symmetry
  State symmetry: *A2    (C2v      )
  <S^2>      :  2.0000
  Dipole Moment:   -0.0000 X     0.0000 Y     5.3816 Z
  Trans. Moment:    0.0744 X    -0.1030 Y     0.0000 Z
  Strength   :  0.005536
  Natural transition orbitals ( 1 -> 16 ):
   e-/hole pair  1 alpha:  ampl =  0.620992 ( 38.6%)   [6 : 7]
   e-/hole pair  2 alpha:  ampl =  0.001344 (  0.0%)   [5 : 8]
   e-/hole pair  1 beta :  ampl =  0.149206 (  2.2%)   [6 : 7]
   e-/hole pair  2 beta :  ampl =  0.006847 (  0.0%)   [5 : 8]
   Sum of square amplitudes: 0.41

 NATURAL OCCUPATION NUMBERS (higher than 1.0E-05)
            1           2           3           4           5           6
    1   1.9992075   1.6652025   1.0000069   1.0000069   0.9997688   0.9908791
            7           8           9          10          11          12
    1   0.3446598   0.0001483   0.0000268   0.0000268   0.0000176   0.0000136
           13
    1   0.0000136

  Amplitudes : 
  
 | HOLE  | ALPHA  | BETA   | PART  |    AMPLITUDE 
--------------------------------------------------
 |       | 111100 | 011100 |  37   |     1.5036606345253E-01
 |       | 111010 | 011100 |  37   |    -2.0788461287284E-01
 |       | 110011 | 011100 |  37   |     1.0551981621810E-01
 |       | 101011 | 011100 |  37   |    -1.0310510343288E-01
 |       | 111100 | 011010 |  37   |    -2.0788461286778E-01
 |       | 111010 | 011010 |  37   |    -1.5036606336863E-01
 |       | 110101 | 011010 |  37   |     1.0551981621430E-01
 |       | 101101 | 011010 |  37   |    -1.0310510342140E-01
 |       | 111100 | 010101 |  37   |    -1.8953213078819E-01
 |       | 111010 | 010101 |  37   |     2.6203262074376E-01
 |       | 011101 | 010101 |  37   |    -1.3559208803109E-01
 |       | 011011 | 010101 |  37   |     1.8745924608646E-01
 |       | 111100 | 010011 |  37   |     2.6203262080505E-01
 |       | 111010 | 010011 |  37   |     1.8953213105881E-01
 |       | 011101 | 010011 |  37   |     1.8745924612644E-01
 |       | 011011 | 010011 |  37   |     1.3559208923508E-01
 |       | 111100 | 001101 |  37   |     1.9491839369911E-01
 |       | 111010 | 001101 |  37   |    -2.6947925479972E-01
 |       | 011101 | 001101 |  37   |     1.4261074996776E-01
 |       | 011011 | 001101 |  37   |    -1.9716270930372E-01
 |       | 111100 | 001011 |  37   |    -2.6947925485804E-01
 |       | 111010 | 001011 |  37   |    -1.9491839276535E-01
 |       | 011101 | 001011 |  37   |    -1.9716270934600E-01
 |       | 011011 | 001011 |  37   |    -1.4261074911284E-01
 |       | 111101 | 010010 |  37   |     1.0494856567189E-01
 |       | 111101 | 001010 |  37   |    -1.1232951666101E-01
 |       | 111011 | 010100 |  37   |     1.0494856567421E-01
 |       | 111011 | 001100 |  37   |    -1.1232951666647E-01
--------------------------------------------------
*** Contributions RASCI wfn    Active:   0.03
                                 Hole:   0.00
                                 Part:  99.97

      Mulliken population analysis 
 ---------------------------------------------------
   Atom    Charge (a.u.)   Spin (a.u.)  
 ---------------------------------------------------
   1  N   -0.399860        4.012237 
   2  H   -2.896160        0.819846 
 ---------------------------------------------------
   Sum:   -3.296020        4.832084 
 ---------------------------------------------------
 
  
 NATURAL OCCUPATION NUMBERS (higher than 1.0E-05)
            1           2           3           4           5           6
    1   1.9992075   1.6652025   1.0000069   1.0000069   0.9997688   0.9908791
            7           8           9          10          11          12
    1   0.3446598   0.0001483   0.0000268   0.0000268   0.0000176   0.0000136
           13
    1   0.0000136
  
*** Unpaired Electrons
 Yamaguchi Nd:         5.13
 Head-Gordon Nu:       4.67
 Head-Gordon Nu_nl:    4.64
  
**************************************************
 RAS-CI total energy for state  17:    -41.532896658089
  Excitation energy (eV) = 13.995867884940
  Warning: not all configurations have same symmetry
  State symmetry: *A1    (C2v      )
  <S^2>      :  2.0000
  Dipole Moment:   -0.0000 X     0.0000 Y     5.3816 Z
  Trans. Moment:    0.1030 X     0.0744 Y    -0.0000 Z
  Strength   :  0.005536
  Natural transition orbitals ( 1 -> 17 ):
   e-/hole pair  1 alpha:  ampl =  0.620992 ( 38.6%)   [6 : 7]
   e-/hole pair  2 alpha:  ampl =  0.001344 (  0.0%)   [5 : 8]
   e-/hole pair  1 beta :  ampl =  0.149206 (  2.2%)   [6 : 7]
   e-/hole pair  2 beta :  ampl =  0.006847 (  0.0%)   [5 : 8]
   Sum of square amplitudes: 0.41

 NATURAL OCCUPATION NUMBERS (higher than 1.0E-05)
            1           2           3           4           5           6
    1   1.9992075   1.6652025   1.0000069   1.0000069   0.9997688   0.9908791
            7           8           9          10          11          12
    1   0.3446598   0.0001483   0.0000268   0.0000268   0.0000176   0.0000136
           13
    1   0.0000136

  Amplitudes : 
  
 | HOLE  | ALPHA  | BETA   | PART  |    AMPLITUDE 
--------------------------------------------------
 |       | 111100 | 011100 |  37   |     2.0788461689463E-01
 |       | 111010 | 011100 |  37   |     1.5036606249612E-01
 |       | 110101 | 011100 |  37   |    -1.0551985955887E-01
 |       | 101101 | 011100 |  37   |     1.0310507660435E-01
 |       | 111100 | 011010 |  37   |     1.5036606287797E-01
 |       | 111010 | 011010 |  37   |    -2.0788460690440E-01
 |       | 110011 | 011010 |  37   |     1.0551976410045E-01
 |       | 101011 | 011010 |  37   |    -1.0310509648461E-01
 |       | 111100 | 010101 |  37   |    -2.6203265452494E-01
 |       | 111010 | 010101 |  37   |    -1.8953213214508E-01
 |       | 011101 | 010101 |  37   |    -1.8745935357212E-01
 |       | 011011 | 010101 |  37   |    -1.3559209889181E-01
 |       | 111100 | 010011 |  37   |    -1.8953213292954E-01
 |       | 111010 | 010011 |  37   |     2.6203259135896E-01
 |       | 011101 | 010011 |  37   |    -1.3559210016526E-01
 |       | 011011 | 010011 |  37   |     1.8745916793815E-01
 |       | 111100 | 001101 |  37   |     2.6947920271329E-01
 |       | 111010 | 001101 |  37   |     1.9491839274648E-01
 |       | 011101 | 001101 |  37   |     1.9716264819119E-01
 |       | 011011 | 001101 |  37   |     1.4261074707364E-01
 |       | 111100 | 001011 |  37   |     1.9491839242521E-01
 |       | 111010 | 001011 |  37   |    -2.6947930520485E-01
 |       | 011101 | 001011 |  37   |     1.4261074584545E-01
 |       | 011011 | 001011 |  37   |    -1.9716276217818E-01
 |       | 111101 | 010100 |  37   |    -1.0494851845895E-01
 |       | 111101 | 001100 |  37   |     1.1232956272199E-01
 |       | 111011 | 010010 |  37   |     1.0494863571093E-01
 |       | 111011 | 001010 |  37   |    -1.1232948796611E-01
--------------------------------------------------
*** Contributions RASCI wfn    Active:   0.03
                                 Hole:   0.00
                                 Part:  99.97

      Mulliken population analysis 
 ---------------------------------------------------
   Atom    Charge (a.u.)   Spin (a.u.)  
 ---------------------------------------------------
   1  N   -0.399859        4.012238 
   2  H   -2.896161        0.819846 
 ---------------------------------------------------
   Sum:   -3.296020        4.832084 
 ---------------------------------------------------
 
  
 NATURAL OCCUPATION NUMBERS (higher than 1.0E-05)
            1           2           3           4           5           6
    1   1.9992075   1.6652025   1.0000069   1.0000069   0.9997688   0.9908791
            7           8           9          10          11          12
    1   0.3446598   0.0001483   0.0000268   0.0000268   0.0000176   0.0000136
           13
    1   0.0000136
  
*** Unpaired Electrons
 Yamaguchi Nd:         5.13
 Head-Gordon Nu:       4.67
 Head-Gordon Nu_nl:    4.64
  
**************************************************
 RAS-CI total energy for state  18:    -41.480659232827
  Excitation energy (eV) = 15.417320547561
  State symmetry: A1    (C2v      )
  <S^2>      :  2.0000
  Dipole Moment:    0.0000 X     0.0000 Y     5.4936 Z
  Trans. Moment:   -0.1644 X    -0.0000 Y     0.0000 Z
  Strength   :  0.010212
  Natural transition orbitals ( 1 -> 18 ):
   e-/hole pair  1 alpha:  ampl =  0.613335 ( 37.6%)   [6 : 7]
   e-/hole pair  2 alpha:  ampl =  0.026080 (  0.1%)   [5 : 8]
   e-/hole pair  1 beta :  ampl =  0.150399 (  2.3%)   [6 : 7]
   e-/hole pair  2 beta :  ampl =  0.068078 (  0.5%)   [5 : 8]
   Sum of square amplitudes: 0.40

 NATURAL OCCUPATION NUMBERS (higher than 1.0E-05)
            1           2           3           4           5           6
    1   1.9637244   1.6769664   1.0251730   1.0251730   0.9998880   0.9875570
            7           8           9          10          11          12
    1   0.3213883   0.0000246   0.0000246   0.0000189   0.0000189   0.0000174

  Amplitudes : 
  
 | HOLE  | ALPHA  | BETA   | PART  |    AMPLITUDE 
--------------------------------------------------
 |       | 111100 | 101100 |  37   |    -1.0025213020207E-01
 |       | 111010 | 101010 |  37   |    -1.0025212840492E-01
 |       | 111100 | 011100 |  37   |     2.5008485595886E-01
 |       | 110101 | 011100 |  37   |    -1.2417343322374E-01
 |       | 101101 | 011100 |  37   |     1.1940881358394E-01
 |       | 111010 | 011010 |  37   |     2.5008485809132E-01
 |       | 110011 | 011010 |  37   |    -1.2417344542910E-01
 |       | 101011 | 011010 |  37   |     1.1940880246186E-01
 |       | 111100 | 010101 |  37   |    -3.2072936426743E-01
 |       | 011101 | 010101 |  37   |    -2.3248330880729E-01
 |       | 111010 | 010011 |  37   |    -3.2072936467937E-01
 |       | 011011 | 010011 |  37   |    -2.3248332088620E-01
 |       | 111100 | 001101 |  37   |     3.2613470206600E-01
 |       | 011101 | 001101 |  37   |     2.4440748086133E-01
 |       | 111010 | 001011 |  37   |     3.2613470164622E-01
 |       | 011011 | 001011 |  37   |     2.4440746505186E-01
 |       | 111101 | 010100 |  37   |    -1.2297642648508E-01
 |       | 111101 | 001100 |  37   |     1.3075169210597E-01
 |       | 111011 | 010010 |  37   |    -1.2297642684556E-01
 |       | 111011 | 001010 |  37   |     1.3075168590708E-01
--------------------------------------------------
*** Contributions RASCI wfn    Active:   0.03
                                 Hole:   0.00
                                 Part:  99.97

      Mulliken population analysis 
 ---------------------------------------------------
   Atom    Charge (a.u.)   Spin (a.u.)  
 ---------------------------------------------------
   1  N   -0.385725        4.023082 
   2  H   -2.910307        0.839447 
 ---------------------------------------------------
   Sum:   -3.296032        4.862529 
 ---------------------------------------------------
 
  
 NATURAL OCCUPATION NUMBERS (higher than 1.0E-05)
            1           2           3           4           5           6
    1   1.9637244   1.6769664   1.0251730   1.0251730   0.9998880   0.9875570
            7           8           9          10          11          12
    1   0.3213883   0.0000246   0.0000246   0.0000189   0.0000189   0.0000174
  
*** Unpaired Electrons
 Yamaguchi Nd:         5.15
 Head-Gordon Nu:       4.62
 Head-Gordon Nu_nl:    4.59
  
**************************************************
 RAS-CI total energy for state  19:    -41.478017433029
  Excitation energy (eV) = 15.489207577559
  State symmetry: A2    (C2v      )
  <S^2>      :  2.0000
  Dipole Moment:   -0.0000 X    -0.0000 Y     3.1628 Z
  Trans. Moment:    0.0000 X    -0.0468 Y    -0.0000 Z
  Strength   :  0.000832
  Natural transition orbitals ( 1 -> 19 ):
   e-/hole pair  1 alpha:  ampl =  0.172059 (  3.0%)   [6 : 7]
   e-/hole pair  2 alpha:  ampl =  0.007587 (  0.0%)   [5 : 8]
   e-/hole pair  1 beta :  ampl =  0.156767 (  2.5%)   [6 : 7]
   e-/hole pair  2 beta :  ampl =  0.006227 (  0.0%)   [5 : 8]
   Sum of square amplitudes: 0.05

 NATURAL OCCUPATION NUMBERS (higher than 1.0E-05)
            1           2           3           4           5           6
    1   1.9781823   1.6063780   1.1164565   1.0000248   1.0000248   0.9972005
            7           8           9          10          11          12
    1   0.3013687   0.0001656   0.0000462   0.0000462   0.0000274   0.0000184
           13          14          15
    1   0.0000184   0.0000155   0.0000155

  Amplitudes : 
  
 | HOLE  | ALPHA  | BETA   | PART  |    AMPLITUDE 
--------------------------------------------------
 |       | 011110 | 111000 |  37   |     3.9255873226394E-01
 |       | 010111 | 111000 |  37   |     2.2870958845119E-01
 |       | 001111 | 111000 |  37   |    -1.1245081774512E-01
 |       | 011011 | 110100 |  37   |     2.1420617049404E-01
 |       | 011101 | 110010 |  37   |    -2.1420617037054E-01
 |       | 011110 | 110001 |  37   |    -1.3796299012778E-01
 |       | 011011 | 101100 |  37   |    -1.6223520696341E-01
 |       | 011101 | 101010 |  37   |     1.6223520694833E-01
 |       | 111010 | 011100 |  37   |     1.4840768727300E-01
 |       | 011011 | 011100 |  37   |    -1.1639296448706E-01
 |       | 111100 | 011010 |  37   |    -1.4840768727465E-01
 |       | 011101 | 011010 |  37   |     1.1639296450303E-01
 |       | 110110 | 011001 |  37   |    -2.0324369190887E-01
 |       | 011110 | 011001 |  37   |     2.9281461608626E-01
 |       | 010111 | 011001 |  37   |     2.7500813277940E-01
 |       | 001111 | 011001 |  37   |    -1.6779398901297E-01
 |       | 011011 | 010101 |  37   |     1.9243429770413E-01
 |       | 011101 | 010011 |  37   |    -1.9243429755720E-01
 |       | 011011 | 001101 |  37   |    -1.7140659885046E-01
 |       | 011101 | 001011 |  37   |     1.7140659879068E-01
[...]
    15    2.448492145368e-15
    16   -3.378055736540e-17
    17    7.040029010515e-03
    18    4.554556592356e-17
    19   -1.499675112127e-16
    20   -1.290786851670e-14
    21    7.510138614538e-16
    22   -8.473176144435e-03
    23    2.249222446636e-17
    24    2.417743791409e-16
    25   -2.187547580647e-15
    26   -6.783296433038e-17
    27   -1.338719580983e-03
    28   -1.667186000854e-17
    29    9.632393454897e-17
    30   -4.872420467371e-17
    31   -4.356955665794e-13
    32    6.033767421773e-15
    33    1.432612855785e-13
    34    4.964664992177e-14
    35   -2.357730237666e-16
    36    9.058900974990e-03
    37   -9.850747210030e-15
Sym=X
Ene= 0.476760
Spin=Alpha
Occup=0
     1    3.842598472034e-03
     2    2.880030285322e-03
     3    3.504942384930e-02
     4   -4.971814911175e-01
     5    2.352539297768e+00
     6    7.086844102617e-15
     7    1.732010867943e-14
     8    6.247217178770e-02
     9    2.348975482753e-14
    10    5.672513325141e-14
    11    2.725691261665e-01
    12   -3.908737651903e-14
    13   -9.523714823203e-14
    14    1.678888968526e+00
    15   -3.356773459425e-02
    16   -3.309894658896e-17
    17    3.476778455669e-16
    18    1.140828411569e-11
    19   -2.751263068152e-18
    20    1.792129826886e-01
    21   -4.601380117188e-18
    22   -6.104259556438e-16
    23   -9.794668040434e-11
    24   -6.425756104031e-19
    25    3.021589924588e-02
    26    3.485683073086e-18
    27   -9.257924484034e-17
    28   -3.951846729924e-12
    29   -4.560536163648e-17
    30   -4.797013292976e-17
    31   -7.009094299513e-17
    32   -8.625592700978e-02
    33   -2.001849340381e+00
    34   -6.540364685874e-01
    35    3.031924195214e-16
    36    8.078688481310e-16
    37    1.409910928139e-01
Sym=X
Ene= 0.636165
Spin=Alpha
Occup=0
     1    3.331691653810e-02
     2    7.081883305715e-02
     3    1.036208868982e-01
     4   -1.605465921190e+00
     5    2.597070317240e+00
     6   -9.620769243150e-17
     7    6.614171323765e-16
     8   -2.989358858757e-01
     9   -1.160822231003e-16
    10    1.549845982042e-15
    11   -1.029140501726e+00
    12   -4.702421198139e-17
    13   -2.839785189208e-15
    14    1.568276459100e+00
    15   -2.864809210135e-03
    16    4.052182368418e-17
    17   -2.409105190108e-16
    18    5.053304686454e-12
    19    7.624281896759e-17
    20   -3.817737473010e-02
    21   -3.639013819829e-16
    22    3.252427920403e-16
    23   -3.671982427398e-11
    24   -4.162463626220e-17
    25   -1.562322529217e-02
    26   -1.555738805660e-16
    27    6.694005871672e-17
    28    1.391061265773e-12
    29   -5.390383393366e-17
    30   -4.405360058430e-17
    31   -6.032939888361e-17
    32    9.109215946677e-02
    33    1.031134636462e+00
    34   -2.335267462012e+00
    35    1.176011844695e-15
    36    1.969301410452e-16
    37   -6.285486147085e-02
Sym=X
Ene= 1.144474
Spin=Alpha
Occup=0
     1   -1.264868188528e-16
     2   -4.019737214662e-16
     3    2.430052291771e-15
     4   -2.837272610831e-15
     5   -2.434301115553e-15
     6   -5.455574434879e-02
     7   -4.176115951936e-16
     8    6.561144762258e-16
     9   -2.161680695555e-02
    10   -1.129715952659e-15
    11   -1.982054976121e-15
    12   -6.151171970699e-02
    13    1.165336705646e-15
    14   -1.349307924253e-15
    15    4.772200878957e-18
    16   -1.443538254006e-02
    17   -4.663926461425e-16
    18    2.312145327940e-16
    19   -3.214941847825e-16
    20   -1.184273399204e-15
    21    8.597934917697e-01
    22    2.188252020991e-15
    23   -3.259117133390e-15
    24    1.826102231832e-14
    25   -2.255426244197e-16
    26    5.512838962454e-03
    27    1.316606043295e-16
    28    3.358761910337e-17
    29    5.182823672690e-16
    30    8.177458231621e-13
    31    1.788737807395e-16
    32    4.833276289919e-17
    33    2.965278433594e-15
    34    1.568286257745e-15
    35    2.500109487893e-01
    36    5.245243055543e-16
    37   -1.331052476717e-15
Sym=X
Ene= 1.144474
Spin=Alpha
Occup=0
     1    2.575840854651e-17
     2    4.926165499791e-17
     3    5.666095415233e-16
     4   -3.479997298776e-15
     5    1.458049898255e-15
     6    4.724832365497e-16
     7    5.455574435438e-02
     8    1.450706353964e-17
     9   -3.256617218462e-16
    10    2.161680697212e-02
    11   -2.506591667485e-15
    12   -9.986336336045e-16
    13    6.151171966605e-02
    14    1.170438007891e-16
    15    1.055501807415e-16
    16    4.447597423069e-16
    17    1.443538255238e-02
    18    9.363322505839e-17
    19    7.198634560447e-16
    20   -2.271817432675e-15
    21    3.463246670780e-16
    22   -8.597934917943e-01
    23   -2.868025177430e-15
    24   -2.069677084988e-14
    25   -2.304777858584e-16
    26   -1.552689478167e-16
    27   -5.512838963880e-03
    28   -3.994724959827e-17
    29   -1.870260309741e-16
    30   -2.667732742738e-16
    31   -8.177465696667e-13
    32   -3.686863671371e-17
    33    5.235152390841e-15
    34   -2.743488120113e-15
    35    9.983316663588e-16
    36   -2.500109487614e-01
    37   -1.514520526124e-15
Sym=X
Ene= 1.197721
Spin=Alpha
Occup=0
     1   -3.742708051161e-19
     2   -1.299336815527e-18
     3    3.613978840811e-20
     4    2.856196204924e-17
     5   -1.634759502550e-17
     6   -7.382357618123e-16
     7   -1.392416339343e-15
     8    8.109789404675e-19
     9   -9.394233085504e-16
    10   -5.452967718534e-16
    11    2.655207225073e-17
    12   -1.258211372341e-15
    13   -2.150122517522e-15
    14   -3.802054894360e-18
    15   -4.880659930002e-19
    16   -2.120922208198e-16
    17    1.487661177735e-16
    18   -1.651146384760e-15
    19    2.239915288609e-02
    20    3.129838420148e-17
    21    1.631506424478e-14
    22    1.683303168569e-14
    23    7.587677850841e-14
    24   -1.011400432344e+00
    25    2.910721459754e-18
    26   -1.611190155628e-16
    27    6.514894786588e-17
    28    9.418926203123e-16
    29   -1.194096184616e-02
    30   -8.911217870084e-18
    31    4.562334579413e-16
    32    8.031642067511e-18
    33   -6.187835611747e-17
    34    3.355304251425e-17
    35    5.055350072840e-15
    36    8.612166040588e-15
    37    1.338868799689e-17
Sym=X
Ene= 1.197721
Spin=Alpha
Occup=0
     1   -3.412762040470e-12
     2   -1.567391390645e-11
     3    1.110179098805e-10
     4   -2.733920799243e-10
     5    7.055901447496e-10
     6   -1.994740241486e-15
     7   -1.179350443969e-16
     8   -1.472162693929e-11
     9    9.762891302066e-16
    10    1.023587965497e-16
    11    1.128817593805e-10
    12    3.685677053933e-16
    13    2.004684296386e-16
    14    3.171918886457e-10
    15   -1.170367138174e-11
    16    1.815752782016e-16
    17   -5.295307821184e-17
    18   -2.239915288609e-02
    19   -1.808332614297e-15
    20    2.432797893516e-10
    21    2.805318468268e-15
    22   -2.516217448659e-15
    23    1.011400432344e+00
    24    7.614998765213e-14
    25    1.442492085006e-11
    26    2.272284601618e-16
    27    3.709182930712e-17
    28    1.194096184616e-02
    29    1.008066134344e-15
    30   -1.363376973118e-17
    31    7.773807867145e-17
    32    1.217559579216e-11
    33   -5.013225289860e-10
    34   -1.929350088735e-10
    35    6.513238552540e-16
    36   -8.018732637921e-16
    37    6.140004669291e-11
Sym=X
Ene= 1.471110
Spin=Alpha
Occup=0
     1    9.629284634936e-05
     2   -4.567272533460e-03
     3    2.638075575545e-01
     4   -9.168421239226e-01
     5   -1.025346808712e+00
     6    7.388116304587e-17
     7    6.661527016175e-17
     8    7.385651324651e-02
     9   -8.720895400495e-16
    10   -1.158191305764e-16
    11   -8.997796333021e-01
    12   -7.726648706324e-17
    13    6.735712012827e-16
    14   -9.875016922933e-01
    15    1.320805206162e-02
    16    2.821841822977e-16
    17   -1.361259004530e-17
    18   -4.346026812392e-13
    19   -9.973103759406e-17
    20   -1.597160595492e+00
    21   -2.170447425181e-15
    22    2.517021577384e-15
    23    1.416292467085e-10
    24    2.555137658524e-17
    25   -1.101292591525e-01
    26   -9.192820658586e-17
    27    5.085736127804e-17
    28    2.352436269188e-12
    29    1.564708802841e-16
    30   -2.332836017649e-16
    31   -1.865036549371e-16
    32   -2.496936622820e-01
    33    3.022031683451e+00
    34   -1.663525252360e-01
    35    2.595691987007e-15
    36   -1.831840484954e-15
    37   -4.742227875476e-01
Sym=X
Ene= 2.104837
Spin=Alpha
Occup=0
     1   -5.851889915347e-15
     2   -2.103353537964e-14
     3    1.603097202383e-13
     4   -2.899277511944e-13
     5    1.328434004532e-13
     6   -4.285652243495e-01
     7    9.545185165851e-15
     8    1.300072005800e-14
     9    3.363202047792e-01
    10   -1.458125925842e-15
    11   -8.509542539357e-14
    12   -3.747934110465e-01
    13    1.133005495107e-14
    14    2.349442224433e-14
    15   -2.804555888400e-16
    16    2.234672323472e-02
    17   -4.474485292840e-16
    18   -6.524933404582e-16
    19   -1.821110389618e-16
    20   -1.907102450931e-14
    21   -7.628342454689e-01
    22    3.688567853255e-14
    23   -3.874427971566e-16
    24    9.599576682945e-17
    25   -9.410330316983e-15
    26    2.077718675890e-02
    27   -2.049540366993e-15
    28   -2.680740863785e-16
    29   -5.217239676590e-17
    30   -8.083219971093e-13
    31   -6.253375953063e-16
    32   -2.614149476001e-14
    33    1.339031955207e-13
    34   -7.573575157376e-14
    35    1.096389149139e+00
    36   -5.296251358451e-14
    37   -5.557388392739e-14
Sym=X
Ene= 2.104837
Spin=Alpha
Occup=0
     1   -5.082003397949e-16
     2   -1.452945613316e-15
     3    1.460363593941e-14
     4   -3.588899585333e-14
     5    2.200071404704e-14
     6    3.015559720250e-14
     7    4.285652244254e-01
     8    1.060431576267e-14
     9   -2.841322904242e-14
    10   -3.363202048140e-01
    11   -2.772990390861e-14
    12    2.037495090629e-14
    13    3.747934110017e-01
    14    1.285526070708e-14
    15   -8.413026447369e-17
    16   -4.876347203734e-16
    17   -2.234672324073e-02
    18    1.098964763209e-16
    19    1.620790551263e-15
    20   -1.184361370859e-15
    21    3.190802059658e-14
    22    7.628342454414e-01
    23    1.837797777615e-17
    24   -3.659740694379e-15
    25   -2.381277416734e-15
    26   -1.231232269052e-16
    27   -2.077718675267e-02
    28    1.793020734992e-16
    29   -2.556217967073e-16
    30    2.141999599661e-17
    31    8.071729575803e-13
    32   -5.390246737694e-15
    33    2.408289671784e-14
    34   -1.816225555054e-14
    35   -4.536178222869e-14
    36   -1.096389149121e+00
    37   -1.098571977812e-14
Sym=X
Ene= 2.198037
Spin=Alpha
Occup=0
     1    1.069720488513e-01
     2    3.715416577992e-01
     3   -2.772801346983e+00
     4    4.862767976145e+00
     5   -2.488828788748e+00
     6   -4.340596167816e-14
     7    1.712174233326e-15
     8   -2.195070215779e-01
     9    4.634986915099e-14
    10    7.255029997850e-18
    11    1.217822377257e+00
    12   -3.264947544426e-14
    13    2.068422030443e-15
    14   -4.727520306761e-01
    15    1.854288941273e-02
    16    4.428895317594e-16
    17   -8.890665829872e-16
    18    5.888133204011e-12
    19   -4.046878477452e-17
    20    1.892748344844e-01
    21   -3.805034315158e-14
    22    7.033826047678e-15
    23    3.743759114629e-11
    24    1.883554343908e-17
    25    1.422399909407e-01
    26    3.024190822127e-15
    27    3.362623483582e-16
    28    1.617144504919e-12
    29    2.004145510289e-17
    30    3.792051093852e-16
    31    1.364375191133e-16
    32    5.723223322246e-01
    33   -2.098957188170e+00
    34    1.431663629503e+00
    35    5.582770593456e-14
    36   -9.840580712192e-15
    37    6.854261670221e-01
Sym=X
Ene= 2.246856
Spin=Alpha
Occup=0
     1   -6.008405234502e-02
     2   -2.090427629040e-01
     3    1.170904659167e+00
     4   -7.584735570975e-01
     5    4.732860977081e-01
     6   -5.620427729438e-15
     7    1.117344332597e-15
     8   -8.723538576310e-01
     9    8.055604680551e-15
    10    1.119258045737e-15
    11    1.794958059354e+00
    12   -3.194950736070e-15
    13    1.333605563249e-15
    14   -4.429052222987e-01
    15    1.668113375257e-02
    16   -6.067654413542e-17
    17   -3.417737851997e-16
    18   -2.452069627740e-12
    19   -6.720397510338e-17
    20    1.166527535060e-01
    21    1.276777765525e-15
    22    7.014847188338e-15
    23   -8.301193718459e-12
    24    4.016496498890e-17
    25    1.401079469265e-01
    26    4.864579214454e-16
    27   -3.542694048591e-16
    28   -4.181238722914e-12
    29   -1.235353275116e-16
    30   -9.009662487036e-17
    31   -7.387547220504e-16
    32    6.216159068432e-01
    33   -1.751854758869e+00
    34    5.768636984870e-01
    35   -2.060266886956e-15
    36   -1.037197809394e-14
    37    6.269873230989e-01
Sym=X
Ene= 2.361051
Spin=Alpha
Occup=0
     1    1.474775976619e-15
     2    4.840310325384e-15
     3   -3.612258464611e-14
     4    6.680244820416e-14
     5   -3.776577773779e-14
     6    1.181138857614e+00
     7    4.845440455120e-14
     8   -5.560073257245e-15
     9   -1.643546540207e+00
    10   -6.945339485823e-14
    11    1.944148334692e-14
    12    6.123677980404e-01
    13    2.290023707230e-14
    14   -8.269282591305e-15
    15    9.479326522460e-16
    16    1.706800787655e-02
    17    2.128526774968e-15
    18   -9.581073259525e-16
    19   -3.732991452724e-16
    20   -2.146890848875e-16
    21   -3.008492177320e-01
    22   -2.079092174573e-14
    23    2.582060828189e-15
    24    4.080146778537e-16
    25    2.891124535781e-15
    26    3.034375964258e-02
    27    1.058704363191e-15
    28    4.734026540270e-16
    29   -9.452572255559e-17
    30    1.481426578986e-11
    31    3.809664086187e-16
    32    1.772097059055e-14
    33   -4.017164377285e-14
    34    2.740903392936e-14
    35    4.964474264734e-01
    36    3.316432821724e-14
    37    8.634504346984e-15
Sym=X
Ene= 2.361051
Spin=Alpha
Occup=0
     1   -1.226697181724e-16
     2   -2.933263507544e-16
     3   -2.103700079821e-15
     4    1.491778551691e-14
     5   -4.925391320475e-15
     6   -5.914034859706e-14
     7    1.181138857619e+00
     8   -2.296318553479e-16
     9    7.892242360943e-14
    10   -1.643546540127e+00
    11    1.183230671842e-14
    12   -3.176440298400e-14
    13    6.123677979433e-01
    14   -1.550488014470e-15
    15   -1.946134244297e-16
    16   -1.664817846840e-16
    17    1.706800788131e-02
    18    3.892760221606e-16
    19   -7.387438444502e-16
    20    4.196712422040e-15
    21    6.006690099741e-15
    22   -3.008492177653e-01
    23    2.156723293092e-17
    24    3.464432393553e-16
    25    1.508902290185e-15
    26   -2.404644586817e-15
    27    3.034375964839e-02
    28    5.531097886772e-16
    29   -1.318176501560e-15
    30    3.488484189118e-16
    31    1.481076139908e-11
    32    1.882986518918e-15
    33   -1.808098998827e-14
    34    7.012549607443e-15
    35   -1.208592010108e-14
    36    4.964474265297e-01
    37    1.058293492223e-14
Sym=X
Ene= 2.705760
Spin=Alpha
Occup=0
     1    3.905665367986e-02
     2    1.328116482025e-01
     3   -6.191296224932e-01
     4   -4.807945564419e-02
     5   -9.988525424410e-01
     6    3.407014132741e-15
     7    5.549041444571e-15
     8   -8.822961308382e-01
     9   -2.384506827171e-15
    10   -5.796891109523e-15
    11    1.423986866851e-01
    12    1.063801799920e-15
    13    1.989590961323e-15
    14   -8.535560017132e-01
    15   -5.886085667887e-03
    16   -9.946694428276e-16
    17   -5.102997074764e-16
    18    1.499383347591e-13
    19    1.572139925963e-17
    20   -3.528391087051e-01
    21    3.635513534267e-15
    22    1.622080848995e-15
    23    7.610923033253e-14
    24   -2.133853176353e-17
    25   -2.453442901260e-01
    26    1.119522148816e-15
    27    1.230408719633e-15
    28   -1.366049373856e-11
    29    5.696476253412e-16
    30   -5.555671124758e-16
    31    1.914095130484e-16
    32   -5.715333733691e-01
    33    1.882346228124e+00
    34    2.558131685391e-01
    35   -4.064402655210e-15
    36   -1.133580316730e-15
    37   -1.173028324506e+00
Sym=X
Ene= 3.192220
Spin=Alpha
Occup=0
     1   -3.630052835527e-04
     2    2.436766699662e-02
     3   -1.018401804490e+00
     4    3.365359909474e+00
     5   -4.532381636191e-01
     6    8.808167052621e-16
     7   -2.234851778034e-15
     8   -3.123286150657e-01
     9   -4.090543749934e-15
    10    2.480069022273e-15
    11    2.766177925964e+00
    12   -1.028586743617e-16
    13    1.003854158903e-16
    14   -1.214592271788e-01
    15   -1.702078616535e-01
    16    9.387254704687e-17
    17    2.316553459412e-16
    18   -5.124211335900e-12
    19    2.731232765622e-16
    20    1.558591581843e+00
    21   -6.936547976622e-15
    22    8.961645415893e-16
    23   -1.079277674546e-12
    24   -1.367881624484e-16
    25   -1.347662015097e-01
    26    3.388013345475e-15
    27   -2.381954974804e-15
    28   -2.765342394808e-11
    29   -4.780451463457e-17
    30    1.348923331355e-15
    31    1.005894424288e-15
    32   -8.575007563143e-01
    33   -2.770336545637e+00
    34    5.597358448502e-01
    35    1.131239519561e-14
    36   -2.538960782403e-15
    37    1.977209417307e+00
Sym=X
Ene= 4.201300
Spin=Alpha
Occup=0
     1    7.303686031001e-17
     2    1.634201311254e-16
     3   -6.737666986684e-16
     4   -1.478460118613e-16
     5   -3.444770993269e-15
     6    3.066927796816e-16
     7   -2.754423223223e-15
     8   -4.405062314337e-16
     9   -1.134327808567e-15
    10    5.800975090238e-15
    11   -1.016978031071e-15
    12   -1.505625443299e-16
    13   -1.920983015872e-15
    14   -2.246048247438e-15
    15   -6.185370250709e-16
    16   -3.012892794704e-15
    17    6.384674635024e-15
    18   -1.430575901300e-15
    19   -3.761226194361e-02
    20   -1.022268569868e-15
    21    4.317978468107e-16
    22    2.078379934464e-16
    23    7.132704836057e-16
    24    3.089288915640e-02
    25   -3.868159939573e-16
    26   -8.082178805288e-15
    27    1.085940250257e-14
    28    2.731961283987e-14
    29   -9.994198906244e-01
    30    4.854988547098e-13
    31   -1.696613979227e-12
    32   -5.049332608471e-16
    33    4.141666900324e-15
    34    1.505608984976e-15
    35    3.891731095542e-15
    36   -6.126409277553e-15
    37   -1.914074341710e-15
Sym=X
Ene= 4.201300
Spin=Alpha
Occup=0
     1   -2.232709338275e-13
     2   -1.576604992981e-12
     3    3.847832857409e-11
     4   -1.119284827920e-10
     5    2.029939619983e-11
     6    1.455303213389e-15
     7    1.362226691454e-15
     8    2.409970992831e-11
     9   -3.613590039552e-15
    10   -2.184065557548e-15
    11   -1.120211504375e-10
    12    1.219336721687e-15
    13    8.587341225593e-16
    14    1.085407877696e-11
    15    8.127958217240e-12
    16   -6.313666779587e-15
    17    1.900649285807e-15
    18   -3.761226194361e-02
    19   -2.341435123705e-15
    20   -5.617815580510e-11
    21    1.464194862794e-15
    22   -1.439517687606e-15
    23    3.089288915640e-02
    24    1.353893730652e-15
    25   -5.365331664050e-12
    26   -9.600379197256e-15
    27   -1.440102991001e-15
    28   -9.994198906244e-01
    29   -2.783467494038e-14
    30    4.508988106449e-13
    31    3.834737313663e-13
    32    4.173254046980e-11
    33    8.402300860178e-11
    34   -2.299842485668e-11
    35    4.139259203863e-15
    36    1.051024083415e-15
    37   -5.442506377860e-11
[5D7F]

======= END OF MOLDEN-FORMATTED INPUT FILE =======


        *************************************************************
        *                                                           *
        *  Thank you very much for using Q-Chem.  Have a nice day.  *
        *                                                           *
        *************************************************************


