                  Welcome to Q-Chem
     A Quantum Leap Into The Future Of Chemistry


 Q-Chem 6.0 (devel), Q-Chem, Inc., Pleasanton, CA (2022)

 E. Epifanovsky,  A. T. B. Gilbert,  Xintian Feng,  Joonho Lee,  Yuezhi Mao,  
 N. Mardirossian,  P. Pokhilko,  A. White,  M. Wormit,  M. P. Coons,  
 A. L. Dempwolff,  Zhengting Gan,  D. Hait,  P. R. Horn,  L. D. Jacobson,  
 I. Kaliman,  J. Kussmann,  A. W. Lange,  Ka Un Lao,  D. S. Levine,  Jie Liu,  
 S. C. McKenzie,  A. F. Morrison,  K. Nanda,  F. Plasser,  D. R. Rehn,  
 M. L. Vidal,  Zhi-Qiang You,  Ying Zhu,  B. Alam,  B. Albrecht,  
 A. Aldossary,  E. Alguire,  J. H. Andersen,  V. Athavale,  D. Barton,  
 K. Begam,  A. Behn,  N. Bellonzi,  Y. A. Bernard,  E. J. Berquist,  
 H. Burton,  A. Carreras,  K. Carter-Fenk,  Romit Chakraborty,  
 Chandrima Chakravarty,  Junhan Chen,  A. D. Chien,  K. D. Closser,  
 V. Cofer-Shabica,  L. Cunha,  S. Dasgupta,  Jia Deng,  M. de Wergifosse,  
 M. Diedenhofen,  Hainam Do,  S. Ehlert,  Po-Tung Fang,  S. Fatehi,  
 Qingguo Feng,  T. Friedhoff,  B. Ganoe,  J. Gayvert,  Qinghui Ge,  
 G. Gidofalvi,  M. Goldey,  J. Gomes,  C. Gonzalez-Espinoza,  S. Gulania,  
 A. Gunina,  J. A. Gyamfi,  M. W. D. Hanson-Heine,  P. H. P. Harbach,  
 A. W. Hauser,  M. F. Herbst,  M. Hernandez Vera,  M. Hodecker,  
 Z. C. Holden,  S. Houck,  Xunkun Huang,  Kerwin Hui,  B. C. Huynh,  
 K. Ikeda,  M. Ivanov,  Hyunjun Ji,  Zuxin Jin,  Hanjie Jiang,  B. Kaduk,  
 S. Kaehler,  R. Kang,  K. Khistyaev,  Jaehoon Kim,  Yongbin Kim,  
 P. Klunzinger,  Z. Koczor-Benda,  Joong Hoon Koh,  D. Kosenkov,  
 Saikiran Kotaru,  L. Koulias,  T. Kowalczyk,  C. M. Krauter,  K. Kue,  
 A. Kunitsa,  T. Kus,  A. Landau,  K. V. Lawler,  D. Lefrancois,  S. Lehtola,  
 Rain Li,  Shaozhi Li,  Yi-Pei Li,  Jiashu Liang,  M. Liebenthal,  
 Hung-Hsuan Lin,  You-Sheng Lin,  Fenglai Liu,  Kuan-Yu Liu,  
 M. Loipersberger,  A. Luenser,  C. Malbon,  A. Manjanath,  P. Manohar,  
 E. Mansoor,  S. F. Manzer,  Shan-Ping Mao,  A. V. Marenich,  T. Markovich,  
 S. Mason,  F. Matz,  S. A. Maurer,  P. F. McLaughlin,  M. F. S. J. Menger,  
 J.-M. Mewes,  S. A. Mewes,  P. Morgante,  Mohammad Mostafanejad,  
 J. W. Mullinax,  K. J. Oosterbaan,  G. Paran,  V. Parravicini,  
 Alexander C. Paul,  Suranjan K. Paul,  F. Pavosevic,  Zheng Pei,  S. Prager,  
 E. I. Proynov,  E. Ramos,  B. Rana,  A. E. Rask,  A. Rettig,  R. M. Richard,  
 F. Rob,  E. Rossomme,  T. Scheele,  M. Scheurer,  M. Schneider,  
 P. E. Schneider,  N. Sergueev,  S. M. Sharada,  Hengyuan Shen,  
 W. Skomorowski,  D. W. Small,  C. J. Stein,  Yingli Su,  Yu-Chuan Su,  
 E. J. Sundstrom,  Zhen Tao,  J. Thirman,  Hung-Yi Tsai,  T. Tsuchimochi,  
 N. M. Tubman,  C. Utku,  S. P. Veccham,  O. Vydrov,  J. Wenzel,  
 Jonathan Wong,  J. Witte,  A. Yamada,  Chou-Hsun Yang,  Kun Yao,  
 S. Yeganeh,  S. R. Yost,  A. Zech,  F. Zeller,  Igor Ying Zhang,  
 Xing Zhang,  Yu Zhang,  D. Zuev,  A. Aspuru-Guzik,  A. T. Bell,  
 N. A. Besley,  K. B. Bravaya,  B. R. Brooks,  D. Casanova,  Jeng-Da Chai,  
 Hsing-Ta Chen,  S. Coriani,  C. J. Cramer,  A. E. DePrince, III,  
 R. A. DiStasio Jr.,  A. Dreuw,  B. D. Dunietz,  T. R. Furlani,  
 W. A. Goddard III,  S. Grimme,  S. Hammes-Schiffer,  T. Head-Gordon,  
 W. J. Hehre,  Chao-Ping Hsu,  T.-C. Jagau,  Yousung Jung,  A. Klamt,  
 Jing Kong,  D. S. Lambrecht,  Xiangyuan Li,  WanZhen Liang,  N. J. Mayhall,  
 C. W. McCurdy,  J. B. Neaton,  T. Neudecker,  C. Ochsenfeld,  
 J. A. Parkhill,  R. Peverati,  V. A. Rassolov,  Haisheng Ren,  Yihan Shao,  
 L. V. Slipchenko,  R. P. Steele,  J. E. Subotnik,  A. J. W. Thom,  
 A. Tkatchenko,  D. G. Truhlar,  T. Van Voorhis,  Fan Wang,  
 T. A. Wesolowski,  K. B. Whaley,  H. L. Woodcock III,  P. M. Zimmerman,  
 S. Faraji,  P. M. W. Gill,  M. Head-Gordon,  J. M. Herbert,  A. I. Krylov

 Contributors to earlier versions of Q-Chem not listed above: 
 R. D. Adamson,  B. Austin,  R. Baer,  J. Baker,  G. J. O. Beran,  
 K. Brandhorst,  S. T. Brown,  E. F. C. Byrd,  Arup K. Chakraborty,  
 G. K. L. Chan,  Chun-Min Chang,  Yunqing Chen,  C.-L. Cheng,  
 Siu Hung Chien,  D. M. Chipman,  D. L. Crittenden,  H. Dachsel,  
 R. J. Doerksen,  A. D. Dutoi,  R. G. Edgar,  J. Fosso-Tande,  
 L. Fusti-Molnar,  D. Ghosh,  A. Ghysels,  A. Golubeva-Zadorozhnaya,  
 J. Gonthier,  M. S. Gordon,  S. R. Gwaltney,  G. Hawkins,  J. E. Herr,  
 A. Heyden,  S. Hirata,  E. G. Hohenstein,  G. Kedziora,  F. J. Keil,  
 C. Kelley,  Jihan Kim,  R. A. King,  R. Z. Khaliullin,  P. P. Korambath,  
 W. Kurlancheek,  A. Laurent,  A. M. Lee,  M. S. Lee,  S. V. Levchenko,  
 Ching Yeh Lin,  D. Liotard,  E. Livshits,  R. C. Lochan,  I. Lotan,  
 L. A. Martinez-Martinez,  P. E. Maslen,  N. Nair,  D. P. O'Neill,  
 D. Neuhauser,  E. Neuscamman,  C. M. Oana,  R. Olivares-Amaya,  R. Olson,  
 T. M. Perrine,  B. Peters,  P. A. Pieniazek,  A. Prociuk,  Y. M. Rhee,  
 J. Ritchie,  M. A. Rohrdanz,  E. Rosta,  N. J. Russ,  H. F. Schaefer III,  
 M. W. Schmidt,  N. E. Schultz,  S. Sharma,  N. Shenvi,  C. D. Sherrill,  
 A. C. Simmonett,  A. Sodt,  T. Stein,  D. Stuck,  K. S. Thanthiriwatte,  
 V. Vanovschi,  L. Vogt,  Tao Wang,  A. Warshel,  M. A. Watson,  
 C. F. Williams,  Q. Wu,  X. Xu,  Jun Yang,  W. Zhang,  Yan Zhao

   Please cite Q-Chem as follows:
  "Software for the frontiers of quantum chemistry:
   An overview of developments in the Q-Chem 5 package"
   J. Chem. Phys. 155, 084801 (2021)
   https://doi.org/10.1063/5.0055522 (open access)

 Q-Chem 6.0.1 for Mac (Intel) OS X

 Parts of Q-Chem use Armadillo 9.900.5 (Nocturnal Misbehaviour).
 http://arma.sourceforge.net/

 Q-Chem begins on Fri Nov  3 15:21:54 2023  

 Host: u031625.sw.ehu.es
0

     Scratch files written to /Users/david/qcscratch/qchem1085//
 Processing $rem in /Users/david/Software/QChem/config/preferences:
 Processing $rem in /Users/david/.qchemrc:

 Checking the input file for inconsistencies... 	...done.

--------------------------------------------------------------
User input:
--------------------------------------------------------------
$molecule
0 3
N       0.0000000000     0.0000000000    -0.1295250000
H       0.0000000000     0.0000000000     0.9066750000
$end

$rem
!**CALCULATION TYPE***     
  JOBTYPE            sp    
  EXCHANGE           HF
  CORRELATION        RASCI    !RASCI=Casanova; RASCI2=Zimmerman
  BASIS              def2-TZVP
!***SCF REFERENCE***
  UNRESTRICTED       FALSE
  MAX_SCF_CYCLES     500
!****RAS-SF****
  RAS_ROOTS          20      !number of RAS-CI roots to be computed
  SET_ITER           150     !number of iterations in RASCI
  RAS_ELEC           8       !number of electrons in RAS2
  RAS_ELEC_ALPHA     5       !spin-α electrons in RAS2 
  RAS_ELEC_BETA      3      !spin-β electrons in RAS2
  RAS_ACT            7       !number of orbitals in RAS2 
! RAS_ACT_ORB   [1, 2, 3, 4, 5, 6, 7]  !user-selected RAS2 orbitals
  RAS_OCC            0       !number of orbitals in RAS1
  N_FROZEN_CORE      0     !Number of frozen core orbitals
  N_FROZEN_VIRTUAL   0      !Number of frozen virtual orbitals
  RAS_SPIN_MULT      3      !spin multiplicity: 0=any, 2n+1=defined 
  RAS_PRINT          2      !level of information
!****RAS-SOC****
  CALC_SOC           TRUE   !calculate SOC for EOM-CC, RAS-CI, ADC, TDDFT/TDA and TDDFT
! RAS_SOC_2E         TRUE   !two-electron mean-ﬁeld contribution, default=true
  RAS_SOC_SYM_DENS   TRUE   !averaging of α and β densities
!****MEMORY****
  MEM_TOTAL          4000 !Default 2000 MB
  MEM_STATIC          900 !Default 64 MB
$end                                           

--------------------------------------------------------------
 ----------------------------------------------------------------
             Standard Nuclear Orientation (Angstroms)
    I     Atom           X                Y                Z
 ----------------------------------------------------------------
    1      N       0.0000000000     0.0000000000    -0.1295250000
    2      H       0.0000000000     0.0000000000     0.9066750000
 ----------------------------------------------------------------
 Molecular Point Group                 C2v   NOp =  4
 Largest Abelian Subgroup              C2v   NOp =  4
 Nuclear Repulsion Energy =           3.57483157 hartrees
 There are        5 alpha and        3 beta electrons
 Requested basis set is def2-TZVP
 There are 15 shells and 37 basis functions

 Total QAlloc Memory Limit   4000 MB
 Mega-Array Size       880 MB
 MEM_STATIC part       900 MB


                       Distance Matrix (Angstroms)
             N (  1)
   H (  2)  1.036200

 A cutoff of  1.0D-09 yielded    120 shell pairs
 There are       756 function pairs (       990 Cartesian)
 Smallest overlap matrix eigenvalue = 7.92E-03

 Scale SEOQF with 1.000000e+00/1.000000e+00/1.000000e+00

 Standard Electronic Orientation quadrupole field applied
 Nucleus-field energy     =    -0.0000000010 hartrees
 Guess from superposition of atomic densities
 Warning:  Energy on first SCF cycle will be non-variational
 SAD guess density has 8.000000 electrons

 -----------------------------------------------------------------------
  General SCF calculation program by
  Eric Jon Sundstrom, Paul Horn, Yuezhi Mao, Dmitri Zuev, Alec White,
  David Stuck, Shaama M.S., Shane Yost, Joonho Lee, David Small,
  Daniel Levine, Susi Lehtola, Hugh Burton, Evgeny Epifanovsky,
  Bang C. Huynh
 -----------------------------------------------------------------------
 Hartree-Fock
 Orthonormalizing orbitals
 A restricted open-shell SCF calculation will be
 performed using GDM
 SCF converges when RMS gradient is below 1.0e-05
 ---------------------------------------
  Cycle       Energy        RMS Gradient
 ---------------------------------------
    1     -54.8699534210      2.12e-01   Descent step
    2     -54.9645825002      7.24e-02   Normal BFGS step
    3     -54.9749076107      7.32e-03   Normal BFGS step
    4     -54.9750500706      2.21e-03   Normal BFGS step
    5     -54.9750598361      3.02e-04   Normal BFGS step
    6     -54.9750600368      6.25e-05   Normal BFGS step
    7     -54.9750600525      2.84e-05   Normal BFGS step
    8     -54.9750600548      7.66e-06  Convergence criterion met
The disked orbital energies are calculated using alpha and beta Focks
 ---------------------------------------
 SCF time:   CPU 0.25s  wall 0.00s 
<S^2> =          2.000000000
 SCF   energy in the final basis set =      -54.9750600548
 Total energy in the final basis set =      -54.9750600548
  
     ##========================================##
     ||                                        ||
     ||              R A S M A N 2             ||
     ||________________________________________||
     ||                                        ||
     ||  Author:                               ||
     ||                                        ||
     ||        David Casanova (2010)           ||
     ||                                        ||
     ##========================================##
  
Setting single-point xc-functionals (if necessary)

  ***************************************************
  *  RAS-CI Dimensions:                             *
  *                                                 *
  *  Active Elec.:   8 ( 5, 3)   Active Orb.:   7   *
  *  Doubly Occ. :   0           Doubly Vir.:  30   *
  *  Frozen Occ. :   0           Frozen Vir.:   0   *
  *                                                 *
  *  Total CI configurations:     50715             * 
  *    Active configurations:       735             * 
  *      Hole configurations:         0             * 
  *  Particle configurations:     49980             * 
  *                                                 *
  *   Requested states:       20                    *
  *  Spin multiplicity: Any multiplicity            *
  *                                                 *
  ***************************************************
-----------------------------------------
    Memory requirements of RASCI

 Each CI-vector requires      0.39 MiB 
 Max. subspace vectors           3000      

 Reduced Lists                0.00 MiB 
 Excitation Lists             0.00 MiB 
 Excitation Lists Sign        0.00 MiB 
 CI-space (Max)            1237.20 MiB 
 Integrals                    1.19 MiB 
 Memory required (Max)     1237.20 MiB 
 Memory available           858.31 MiB 

 Q-Chem warning in module rasman2/ras_mem_check.C, line 162:

 Static memory may be insufficient to store the subspace vectors


    Disk requirements of RASCI

 Fock matrix                  0.02 MiB 
 2-electron integrals         1.54 MiB 
 CI-space                  2321.55 MiB 
 Disk required             2323.11 MiB 
-----------------------------------------
  
RAS1 HF-like energy:              3.5748315717
 Computing integrals
 Computing J and K matrices
 Computing addressing
 Making amplitude guesses

Direct CI diagonalization
 ---------------------------------------------------
 Iter    Rts Conv    Rts Left    Ttl Dev     Max Dev
 ---------------------------------------------------
   1         0          20      0.045255    0.002574
   2         0          20      0.064238    0.003730
   3         0          20      0.029895    0.001729
   4         0          20      0.023322    0.001468
   5         0          20      0.017358    0.001133
   6         0          20      0.012126    0.001244
   7         0          20      0.009407    0.000750
   8         0          20      0.008463    0.000911
   9         0          20      0.008908    0.000930
  10         0          20      0.005310    0.000616
  11         0          20      0.006282    0.000854
  12         0          20      0.003483    0.000673
  13         0          20      0.003532    0.000789
  14         0          20      0.004281    0.001463
  15         0          20      0.003283    0.001033
  16         0          20      0.004276    0.001787
  17         0          20      0.002885    0.001016
  18         0          20      0.003197    0.001220
  19         0          20      0.002077    0.000698
  20         0          20      0.002069    0.000611
  21         1          19      0.001421    0.000433
  22         1          19      0.001423    0.000393
  23         3          17      0.001320    0.000473
  24         3          17      0.001090    0.000349
  25         3          17      0.000981    0.000307
  26         5          15      0.000680    0.000217
  27         5          15      0.000677    0.000215
  28         7          13      0.000485    0.000154
  29         7          13      0.000437    0.000147
  30         9          11      0.000292    0.000093
  31         9          11      0.000268    0.000090
  32        10          10      0.000173    0.000052
  33        10          10      0.000171    0.000051
  34        12           8      0.000142    0.000048
  35        14           6      0.000119    0.000036
  36        12           8      0.000118    0.000049
  37        15           5      0.000104    0.000044
  38        15           5      0.000128    0.000079
  39        15           5      0.000150    0.000109
  40        17           3      0.000437    0.000398
  41        17           3      0.001715    0.001689
  42        17           3      0.002011    0.001985
  43        17           3      0.001458    0.001438
  44        17           3      0.001623    0.001604
  45        17           3      0.001029    0.001014
  46        17           3      0.000982    0.000967
  47        17           3      0.000638    0.000626
  48        17           3      0.000485    0.000473
  49        17           3      0.000389    0.000378
  50        18           2      0.000296    0.000285
  51        18           2      0.000241    0.000230
  52        19           1      0.000148    0.000138
  53        19           1      0.000161    0.000151
  54        19           1      0.000093    0.000083
  55        19           1      0.000096    0.000086
  56        19           1      0.000057    0.000047
  57        19           1      0.000048    0.000038
  58        19           1      0.000035    0.000025
  59        19           1      0.000023    0.000014
  60        19           1      0.000021    0.000011
  61        19           1      0.000016    0.000006
  62        19           1      0.000016    0.000006
  63        19           1      0.000013    0.000003
  64        19           1      0.000013    0.000003
  65        19           1      0.000011    0.000002
  66        19           1      0.000011    0.000001
  67        20           0      0.000011    0.000001    Roots Converged
 ---------------------------------------------------
   
**************************************************
 RAS-CI total energy for state   1:    -55.045509397939
  Excitation energy (eV) =  0.000000000000
  State symmetry: A2    (C2v      )
  <S^2>      :  2.0000
  Dipole Moment:   -0.0000 X    -0.0000 Y    -0.6235 Z
  Amplitudes : 
  
 | HOLE  | ALPHA   | BETA    | PART  |    AMPLITUDE 
--------------------------------------------------
 |       | 1111100 | 1110000 |       |     9.8129628216873E-01
--------------------------------------------------
*** Contributions RASCI wfn    Active:  97.22
                                 Hole:   0.00
                                 Part:   2.78

      Mulliken population analysis 
 ---------------------------------------------------
   Atom    Charge (a.u.)   Spin (a.u.)  
 ---------------------------------------------------
   1  N   -0.186193        2.076918 
   2  H    0.186193       -0.076918 
 ---------------------------------------------------
   Sum:    0.000000        2.000000 
 ---------------------------------------------------
 
*** Unpaired Electrons
 Yamaguchi Nd:         2.20
  
**************************************************
 RAS-CI total energy for state   2:    -54.897797995717
  Excitation energy (eV) =  4.019431756766
  State symmetry: B1    (C2v      )
  <S^2>      :  2.0000
  Dipole Moment:   -0.0000 X     0.0000 Y    -0.5719 Z
  Trans. Moment:   -0.0009 X     0.2335 Y    -0.0000 Z
  Strength   :  0.005368
  Amplitudes : 
  
 | HOLE  | ALPHA   | BETA    | PART  |    AMPLITUDE 
--------------------------------------------------
 |       | 1111100 | 1100100 |       |     9.7654535646829E-01
--------------------------------------------------
*** Contributions RASCI wfn    Active:  96.06
                                 Hole:   0.00
                                 Part:   3.94

      Mulliken population analysis 
 ---------------------------------------------------
   Atom    Charge (a.u.)   Spin (a.u.)  
 ---------------------------------------------------
   1  N   -0.360957        1.770438 
   2  H    0.360957        0.229562 
 ---------------------------------------------------
   Sum:    0.000000        2.000000 
 ---------------------------------------------------
 
*** Unpaired Electrons
 Yamaguchi Nd:         2.17
  
**************************************************
 RAS-CI total energy for state   3:    -54.897797995714
  Excitation energy (eV) =  4.019431756826
  State symmetry: B2    (C2v      )
  <S^2>      :  2.0000
  Dipole Moment:    0.0000 X     0.0000 Y    -0.5719 Z
  Trans. Moment:    0.2335 X     0.0009 Y     0.0000 Z
  Strength   :  0.005368
  Amplitudes : 
  
 | HOLE  | ALPHA   | BETA    | PART  |    AMPLITUDE 
--------------------------------------------------
 |       | 1111100 | 1101000 |       |     9.7654535644512E-01
--------------------------------------------------
*** Contributions RASCI wfn    Active:  96.06
                                 Hole:   0.00
                                 Part:   3.94

      Mulliken population analysis 
 ---------------------------------------------------
   Atom    Charge (a.u.)   Spin (a.u.)  
 ---------------------------------------------------
   1  N   -0.360957        1.770438 
   2  H    0.360957        0.229562 
 ---------------------------------------------------
   Sum:    0.000000        2.000000 
 ---------------------------------------------------
 
*** Unpaired Electrons
 Yamaguchi Nd:         2.17
  
**************************************************
 RAS-CI total energy for state   4:    -54.746792652710
  Excitation energy (eV) =  8.128496202632
  State symmetry: A2    (C2v      )
  <S^2>      :  6.0000
  Dipole Moment:   -0.0000 X    -0.0000 Y     1.5656 Z
  Trans. Moment:   -0.0000 X    -0.0000 Y     0.0000 Z
  Strength   :  0.000000
  Amplitudes : 
  
 | HOLE  | ALPHA   | BETA    | PART  |    AMPLITUDE 
--------------------------------------------------
 |       | 1111100 | 1100010 |       |     4.6934351544452E-01
 |       | 1111010 | 1100100 |       |    -4.6934351544411E-01
 |       | 1110110 | 1101000 |       |     4.6934351544419E-01
 |       | 1101110 | 1110000 |       |    -4.6934351544417E-01
 |       | 1101100 | 1110000 |  11   |    -1.1063364894654E-01
 |       | 1110100 | 1101000 |  11   |     1.1063364894653E-01
 |       | 1111000 | 1100100 |  11   |    -1.1063364894652E-01
 |       | 1111100 | 1100000 |  11   |     1.1063364894656E-01
--------------------------------------------------
*** Contributions RASCI wfn    Active:  89.20
                                 Hole:   0.00
                                 Part:  10.80

      Mulliken population analysis 
 ---------------------------------------------------
   Atom    Charge (a.u.)   Spin (a.u.)  
 ---------------------------------------------------
   1  N    0.785784        1.251882 
   2  H   -0.785784        0.748118 
 ---------------------------------------------------
   Sum:    0.000000        2.000000 
 ---------------------------------------------------
 
*** Unpaired Electrons
 Yamaguchi Nd:         4.11
  
**************************************************
 RAS-CI total energy for state   5:    -54.726448429663
  Excitation energy (eV) =  8.682090677762
  State symmetry: B2    (C2v      )
  <S^2>      :  2.0000
  Dipole Moment:   -0.0000 X     0.0000 Y     1.4715 Z
  Trans. Moment:    0.2768 X    -0.0003 Y     0.0000 Z
  Strength   :  0.016293
  Amplitudes : 
  
 | HOLE  | ALPHA   | BETA    | PART  |    AMPLITUDE 
--------------------------------------------------
 |       | 1110110 | 1110000 |       |     9.2847983954651E-01
 |       | 1101110 | 1101000 |       |    -1.2624529604565E-01
 |       | 1110100 | 1110000 |  11   |     1.9424748153375E-01
--------------------------------------------------
*** Contributions RASCI wfn    Active:  91.01
                                 Hole:   0.00
                                 Part:   8.99

      Mulliken population analysis 
 ---------------------------------------------------
   Atom    Charge (a.u.)   Spin (a.u.)  
 ---------------------------------------------------
   1  N    0.891415        0.643925 
   2  H   -0.891415        1.356075 
 ---------------------------------------------------
   Sum:    0.000000        2.000000 
 ---------------------------------------------------
 
*** Unpaired Electrons
 Yamaguchi Nd:         2.39
  
**************************************************
 RAS-CI total energy for state   6:    -54.726448429660
  Excitation energy (eV) =  8.682090677834
  State symmetry: B1    (C2v      )
  <S^2>      :  2.0000
  Dipole Moment:   -0.0000 X     0.0000 Y     1.4715 Z
  Trans. Moment:   -0.0003 X    -0.2768 Y     0.0000 Z
  Strength   :  0.016293
  Amplitudes : 
  
 | HOLE  | ALPHA   | BETA    | PART  |    AMPLITUDE 
--------------------------------------------------
 |       | 1111010 | 1110000 |       |     9.2847983956192E-01
 |       | 1101110 | 1100100 |       |     1.2624529604349E-01
 |       | 1111000 | 1110000 |  11   |     1.9424748153695E-01
--------------------------------------------------
*** Contributions RASCI wfn    Active:  91.01
                                 Hole:   0.00
                                 Part:   8.99

      Mulliken population analysis 
 ---------------------------------------------------
   Atom    Charge (a.u.)   Spin (a.u.)  
 ---------------------------------------------------
   1  N    0.891415        0.643925 
   2  H   -0.891415        1.356075 
 ---------------------------------------------------
   Sum:    0.000000        2.000000 
 ---------------------------------------------------
 
*** Unpaired Electrons
 Yamaguchi Nd:         2.39
  
**************************************************
 RAS-CI total energy for state   7:    -54.696046875968
  Excitation energy (eV) =  9.509359043886
  State symmetry: A2    (C2v      )
  <S^2>      :  2.0000
  Dipole Moment:    0.0000 X    -0.0000 Y     1.7075 Z
  Trans. Moment:   -0.0000 X     0.0000 Y     0.8256 Z
  Strength   :  0.158803
  Amplitudes : 
  
 | HOLE  | ALPHA   | BETA    | PART  |    AMPLITUDE 
--------------------------------------------------
 |       | 1111100 | 1100010 |       |     8.1265048899040E-01
 |       | 1111010 | 1100100 |       |     3.3432986584383E-01
 |       | 1110110 | 1101000 |       |    -3.3432986472956E-01
 |       | 1101110 | 1110000 |       |     1.4399075841762E-01
--------------------------------------------------
*** Contributions RASCI wfn    Active:  93.17
                                 Hole:   0.00
                                 Part:   6.83

      Mulliken population analysis 
 ---------------------------------------------------
   Atom    Charge (a.u.)   Spin (a.u.)  
 ---------------------------------------------------
   1  N    0.808979        2.493501 
   2  H   -0.808979       -0.493501 
 ---------------------------------------------------
   Sum:    0.000000        2.000000 
 ---------------------------------------------------
 
*** Unpaired Electrons
 Yamaguchi Nd:         4.10
  
**************************************************
 RAS-CI total energy for state   8:    -54.626107084137
  Excitation energy (eV) = 11.412517609297
  State symmetry: A2    (C2v      )
  <S^2>      :  2.0000
  Dipole Moment:    0.0000 X    -0.0000 Y     1.5546 Z
  Trans. Moment:    0.0000 X    -0.0000 Y     0.0000 Z
  Strength   :  0.000000
  Amplitudes : 
  
 | HOLE  | ALPHA   | BETA    | PART  |    AMPLITUDE 
--------------------------------------------------
 |       | 1111010 | 1100100 |       |     6.6638705550870E-01
 |       | 1110110 | 1101000 |       |     6.6638705608441E-01
 |       | 1110100 | 1101000 |  11   |     1.4874895536853E-01
 |       | 1111000 | 1100100 |  11   |     1.4875010955360E-01
--------------------------------------------------
*** Contributions RASCI wfn    Active:  90.25
                                 Hole:   0.00
                                 Part:   9.75

      Mulliken population analysis 
 ---------------------------------------------------
   Atom    Charge (a.u.)   Spin (a.u.)  
 ---------------------------------------------------
   1  N    0.769338        0.436910 
   2  H   -0.769338        1.563090 
 ---------------------------------------------------
   Sum:    0.000000        2.000000 
 ---------------------------------------------------
 
*** Unpaired Electrons
 Yamaguchi Nd:         4.11
  
**************************************************
 RAS-CI total energy for state   9:    -54.626107081409
  Excitation energy (eV) = 11.412517683527
  State symmetry: A1    (C2v      )
  <S^2>      :  2.0000
  Dipole Moment:    0.0000 X    -0.0000 Y     1.5547 Z
  Trans. Moment:    0.0000 X    -0.0000 Y    -0.0000 Z
  Strength   :  0.000000
  Amplitudes : 
  
 | HOLE  | ALPHA   | BETA    | PART  |    AMPLITUDE 
--------------------------------------------------
 |       | 1111010 | 1101000 |       |     6.6638709523572E-01
 |       | 1110110 | 1100100 |       |    -6.6638708685399E-01
 |       | 1111000 | 1101000 |  11   |     1.4873901147725E-01
 |       | 1110100 | 1100100 |  11   |    -1.4875462845189E-01
--------------------------------------------------
*** Contributions RASCI wfn    Active:  90.25
                                 Hole:   0.00
                                 Part:   9.75

      Mulliken population analysis 
 ---------------------------------------------------
   Atom    Charge (a.u.)   Spin (a.u.)  
 ---------------------------------------------------
   1  N    0.769355        0.436887 
   2  H   -0.769355        1.563113 
 ---------------------------------------------------
   Sum:    0.000000        2.000000 
 ---------------------------------------------------
 
*** Unpaired Electrons
 Yamaguchi Nd:         4.11
  
**************************************************
 RAS-CI total energy for state  10:    -54.617795909100
  Excitation energy (eV) = 11.638676188646
  State symmetry: A2    (C2v      )
  <S^2>      :  2.0000
  Dipole Moment:    0.0000 X    -0.0000 Y     1.3729 Z
  Trans. Moment:   -0.0000 X     0.0000 Y     0.7629 Z
  Strength   :  0.165978
  Amplitudes : 
  
 | HOLE  | ALPHA   | BETA    | PART  |    AMPLITUDE 
--------------------------------------------------
 |       | 1111100 | 1100010 |       |     1.3613939141628E-01
 |       | 1111010 | 1100100 |       |    -3.2862988339714E-01
 |       | 1110110 | 1101000 |       |     3.2862987708632E-01
 |       | 1101110 | 1110000 |       |     7.9339915189981E-01
 |       | 1011110 | 1110000 |       |    -1.0354306534330E-01
 |       | 1101100 | 1110000 |  11   |     1.3071872173896E-01
--------------------------------------------------
*** Contributions RASCI wfn    Active:  90.88
                                 Hole:   0.00
                                 Part:   9.12

      Mulliken population analysis 
 ---------------------------------------------------
   Atom    Charge (a.u.)   Spin (a.u.)  
 ---------------------------------------------------
   1  N    0.769129        0.859055 
   2  H   -0.769129        1.140945 
 ---------------------------------------------------
   Sum:    0.000000        2.000000 
 ---------------------------------------------------
 
*** Unpaired Electrons
 Yamaguchi Nd:         4.17
  
**************************************************
 RAS-CI total energy for state  11:    -54.564398759464
  Excitation energy (eV) = 13.091686557111
  State symmetry: A1    (C2v      )
  <S^2>      :  2.0000
  Dipole Moment:   -0.0000 X    -0.0000 Y     1.4205 Z
  Trans. Moment:   -0.0000 X    -0.0000 Y     0.0000 Z
  Strength   :  0.000000
  Amplitudes : 
  
 | HOLE  | ALPHA   | BETA    | PART  |    AMPLITUDE 
--------------------------------------------------
 |       | 1111100 | 1001100 |       |    -1.2864760013377E-01
 |       | 1111010 | 1101000 |       |     6.4858483775680E-01
 |       | 1110110 | 1100100 |       |     6.4858505430993E-01
 |       | 1011110 | 1001100 |       |     1.2998172221477E-01
 |       | 1111000 | 1101000 |  11   |     1.6226791475784E-01
 |       | 1110100 | 1100100 |  11   |     1.6229344169251E-01
--------------------------------------------------
*** Contributions RASCI wfn    Active:  89.75
                                 Hole:   0.00
                                 Part:  10.25

      Mulliken population analysis 
 ---------------------------------------------------
   Atom    Charge (a.u.)   Spin (a.u.)  
 ---------------------------------------------------
   1  N    0.731156        0.451194 
   2  H   -0.731156        1.548806 
 ---------------------------------------------------
   Sum:    0.000000        2.000000 
 ---------------------------------------------------
 
*** Unpaired Electrons
 Yamaguchi Nd:         4.20
  
**************************************************
 RAS-CI total energy for state  12:    -54.514220747425
  Excitation energy (eV) = 14.457099734730
  State symmetry: A2    (C2v      )
  <S^2>      :  6.0000
  Dipole Moment:   -0.0000 X     0.0000 Y    -1.7068 Z
  Trans. Moment:    0.0000 X    -0.0000 Y     0.0000 Z
  Strength   :  0.000000
  Amplitudes : 
  
 | HOLE  | ALPHA   | BETA    | PART  |    AMPLITUDE 
--------------------------------------------------
 |       | 1111100 | 1100001 |       |    -4.6637237838418E-01
 |       | 1111001 | 1100100 |       |     4.6637237838399E-01
 |       | 1110101 | 1101000 |       |    -4.6637237838423E-01
 |       | 1101101 | 1110000 |       |     4.6637237838424E-01
--------------------------------------------------
*** Contributions RASCI wfn    Active:  90.12
                                 Hole:   0.00
                                 Part:   9.88

      Mulliken population analysis 
 ---------------------------------------------------
   Atom    Charge (a.u.)   Spin (a.u.)  
 ---------------------------------------------------
   1  N   -0.440285        1.961296 
   2  H    0.440285        0.038704 
 ---------------------------------------------------
   Sum:    0.000000        2.000000 
 ---------------------------------------------------
 
*** Unpaired Electrons
 Yamaguchi Nd:         4.13
  
**************************************************
 RAS-CI total energy for state  13:    -54.508638050647
  Excitation energy (eV) = 14.609012643159
  State symmetry: B1    (C2v      )
  <S^2>      :  2.0000
  Dipole Moment:    0.0000 X     0.0000 Y    -0.5407 Z
  Trans. Moment:    0.0008 X     0.4434 Y     0.0000 Z
  Strength   :  0.070353
  Amplitudes : 
  
 | HOLE  | ALPHA   | BETA    | PART  |    AMPLITUDE 
--------------------------------------------------
 |       | 1111100 | 1010100 |       |     8.6444825613449E-01
 |       | 1111010 | 1110000 |       |     1.2671583083914E-01
 |       | 1111001 | 1110000 |       |    -1.9955268638750E-01
 |       | 1101110 | 1100100 |       |    -2.3161452814846E-01
 |       | 1111000 | 1110000 |  10   |     1.0688390023369E-01
 |       | 1101100 | 1100100 |  10   |     1.5924798092921E-01
 |       | 1101100 | 1100100 |  11   |    -1.3705875874305E-01
--------------------------------------------------
*** Contributions RASCI wfn    Active:  87.70
                                 Hole:   0.00
                                 Part:  12.30

      Mulliken population analysis 
 ---------------------------------------------------
   Atom    Charge (a.u.)   Spin (a.u.)  
 ---------------------------------------------------
   1  N   -0.219474        1.766216 
   2  H    0.219474        0.233784 
 ---------------------------------------------------
   Sum:    0.000000        2.000000 
 ---------------------------------------------------
 
*** Unpaired Electrons
 Yamaguchi Nd:         3.20
  
**************************************************
 RAS-CI total energy for state  14:    -54.508638050641
  Excitation energy (eV) = 14.609012643323
  State symmetry: B2    (C2v      )
  <S^2>      :  2.0000
  Dipole Moment:   -0.0000 X    -0.0000 Y    -0.5407 Z
  Trans. Moment:    0.4434 X    -0.0008 Y     0.0000 Z
  Strength   :  0.070353
  Amplitudes : 
  
 | HOLE  | ALPHA   | BETA    | PART  |    AMPLITUDE 
--------------------------------------------------
 |       | 1111100 | 1011000 |       |     8.6444825611603E-01
 |       | 1110110 | 1110000 |       |    -1.2671583082917E-01
 |       | 1110101 | 1110000 |       |     1.9955268647861E-01
 |       | 1101110 | 1101000 |       |    -2.3161452811806E-01
 |       | 1110100 | 1110000 |  10   |    -1.0688390018881E-01
 |       | 1101100 | 1101000 |  10   |     1.5924798092191E-01
 |       | 1101100 | 1101000 |  11   |    -1.3705875872449E-01
--------------------------------------------------
*** Contributions RASCI wfn    Active:  87.70
                                 Hole:   0.00
                                 Part:  12.30

      Mulliken population analysis 
 ---------------------------------------------------
   Atom    Charge (a.u.)   Spin (a.u.)  
 ---------------------------------------------------
   1  N   -0.219474        1.766216 
   2  H    0.219474        0.233784 
 ---------------------------------------------------
   Sum:    0.000000        2.000000 
 ---------------------------------------------------
 
*** Unpaired Electrons
 Yamaguchi Nd:         3.20
  
**************************************************
 RAS-CI total energy for state  15:    -54.476073240933
  Excitation energy (eV) = 15.495146200534
  State symmetry: B2    (C2v      )
  <S^2>      :  2.0000
  Dipole Moment:   -0.0000 X    -0.0000 Y    -1.5148 Z
  Trans. Moment:    0.3277 X    -0.0013 Y     0.0000 Z
  Strength   :  0.040760
  Amplitudes : 
  
 | HOLE  | ALPHA   | BETA    | PART  |    AMPLITUDE 
--------------------------------------------------
 |       | 1111100 | 1011000 |       |    -1.3706888750750E-01
 |       | 1110101 | 1110000 |       |     9.0247056094739E-01
 |       | 1101101 | 1101000 |       |    -1.4301946200079E-01
 |       | 1110100 | 1110000 |  10   |     1.9012201555252E-01
 |       | 1110100 | 1110000 |  11   |    -1.1370801541821E-01
--------------------------------------------------
*** Contributions RASCI wfn    Active:  88.12
                                 Hole:   0.00
                                 Part:  11.88

      Mulliken population analysis 
 ---------------------------------------------------
   Atom    Charge (a.u.)   Spin (a.u.)  
 ---------------------------------------------------
   1  N   -0.346992        2.085306 
   2  H    0.346992       -0.085306 
 ---------------------------------------------------
   Sum:    0.000000        2.000000 
 ---------------------------------------------------
 
*** Unpaired Electrons
 Yamaguchi Nd:         2.76
  
**************************************************
 RAS-CI total energy for state  16:    -54.476073240932
  Excitation energy (eV) = 15.495146200566
  State symmetry: B1    (C2v      )
  <S^2>      :  2.0000
  Dipole Moment:   -0.0000 X     0.0000 Y    -1.5148 Z
  Trans. Moment:   -0.0013 X    -0.3277 Y    -0.0000 Z
  Strength   :  0.040760
  Amplitudes : 
  
 | HOLE  | ALPHA   | BETA    | PART  |    AMPLITUDE 
--------------------------------------------------
 |       | 1111100 | 1010100 |       |     1.3706888742935E-01
 |       | 1111001 | 1110000 |       |     9.0247056097832E-01
 |       | 1101101 | 1100100 |       |     1.4301946199932E-01
 |       | 1111000 | 1110000 |  10   |     1.9012201557210E-01
 |       | 1111000 | 1110000 |  11   |    -1.1370801542088E-01
--------------------------------------------------
*** Contributions RASCI wfn    Active:  88.12
                                 Hole:   0.00
                                 Part:  11.88

      Mulliken population analysis 
 ---------------------------------------------------
   Atom    Charge (a.u.)   Spin (a.u.)  
 ---------------------------------------------------
   1  N   -0.346992        2.085306 
   2  H    0.346992       -0.085306 
 ---------------------------------------------------
   Sum:    0.000000        2.000000 
 ---------------------------------------------------
 
*** Unpaired Electrons
 Yamaguchi Nd:         2.76
  
**************************************************
 RAS-CI total energy for state  17:    -54.456908018515
  Excitation energy (eV) = 16.016658436237
  State symmetry: A2    (C2v      )
  <S^2>      :  2.0000
  Dipole Moment:    0.0000 X    -0.0000 Y    -1.5733 Z
  Trans. Moment:    0.0000 X     0.0000 Y    -0.2096 Z
  Strength   :  0.017241
  Amplitudes : 
  
 | HOLE  | ALPHA   | BETA    | PART  |    AMPLITUDE 
--------------------------------------------------
 |       | 1111100 | 1100001 |       |    -6.8186348264070E-01
 |       | 1111100 | 1010001 |       |    -1.0242570680813E-01
 |       | 1111001 | 1100100 |       |    -3.1336256733839E-01
 |       | 1110101 | 1101000 |       |     3.1335393801233E-01
 |       | 1111000 | 1110000 |   9   |    -3.3798959251718E-01
 |       | 1110100 | 1110000 |   8   |     3.3799348220254E-01
 |       | 1111100 | 1100000 |  11   |     1.2653115908060E-01
--------------------------------------------------
*** Contributions RASCI wfn    Active:  70.81
                                 Hole:   0.00
                                 Part:  29.19

      Mulliken population analysis 
 ---------------------------------------------------
   Atom    Charge (a.u.)   Spin (a.u.)  
 ---------------------------------------------------
   1  N   -0.388308        1.887741 
   2  H    0.388308        0.112259 
 ---------------------------------------------------
   Sum:    0.000000        2.000000 
 ---------------------------------------------------
 
*** Unpaired Electrons
 Yamaguchi Nd:         4.44
  
**************************************************
 RAS-CI total energy for state  18:    -54.433511926008
  Excitation energy (eV) = 16.653298504592
  State symmetry: B1    (C2v      )
  <S^2>      :  2.0000
  Dipole Moment:    0.0000 X     0.0000 Y     1.1430 Z
  Trans. Moment:   -0.0001 X     0.0896 Y    -0.0000 Z
  Strength   :  0.003272
  Amplitudes : 
  
 | HOLE  | ALPHA   | BETA    | PART  |    AMPLITUDE 
--------------------------------------------------
 |       | 1111100 | 1010100 |       |     2.6819381227818E-01
 |       | 1101110 | 1100100 |       |     8.7870834602884E-01
 |       | 1011110 | 1100100 |       |    -1.1907739778025E-01
 |       | 1011110 | 1010100 |       |    -1.1757093634791E-01
 |       | 1111000 | 1110000 |  10   |     1.2034435729563E-01
 |       | 1101100 | 1100100 |  11   |     1.3609891903120E-01
--------------------------------------------------
*** Contributions RASCI wfn    Active:  89.95
                                 Hole:   0.00
                                 Part:  10.05

      Mulliken population analysis 
 ---------------------------------------------------
   Atom    Charge (a.u.)   Spin (a.u.)  
 ---------------------------------------------------
   1  N    0.532604        0.757769 
   2  H   -0.532604        1.242231 
 ---------------------------------------------------
   Sum:    0.000000        2.000000 
 ---------------------------------------------------
 
*** Unpaired Electrons
 Yamaguchi Nd:         3.06
  
**************************************************
 RAS-CI total energy for state  19:    -54.433511925999
  Excitation energy (eV) = 16.653298504833
  State symmetry: B2    (C2v      )
  <S^2>      :  2.0000
  Dipole Moment:   -0.0000 X    -0.0000 Y     1.1430 Z
  Trans. Moment:    0.0896 X     0.0001 Y    -0.0000 Z
  Strength   :  0.003272
  Amplitudes : 
  
 | HOLE  | ALPHA   | BETA    | PART  |    AMPLITUDE 
--------------------------------------------------
 |       | 1111100 | 1011000 |       |     2.6819381225402E-01
 |       | 1101110 | 1101000 |       |     8.7870834604106E-01
 |       | 1011110 | 1101000 |       |    -1.1907739778048E-01
 |       | 1011110 | 1011000 |       |    -1.1757093635293E-01
 |       | 1110100 | 1110000 |  10   |    -1.2034435725545E-01
 |       | 1101100 | 1101000 |  11   |     1.3609891901934E-01
--------------------------------------------------
*** Contributions RASCI wfn    Active:  89.95
                                 Hole:   0.00
                                 Part:  10.05

      Mulliken population analysis 
 ---------------------------------------------------
   Atom    Charge (a.u.)   Spin (a.u.)  
 ---------------------------------------------------
   1  N    0.532604        0.757769 
   2  H   -0.532604        1.242231 
 ---------------------------------------------------
   Sum:    0.000000        2.000000 
 ---------------------------------------------------
 
*** Unpaired Electrons
 Yamaguchi Nd:         3.06
  
**************************************************
 RAS-CI total energy for state  20:    -54.420854640752
  Excitation energy (eV) = 16.997720760051
  State symmetry: A2    (C2v      )
  <S^2>      :  2.0000
  Dipole Moment:    0.0000 X     0.0000 Y    -0.9804 Z
  Trans. Moment:    0.0000 X     0.0000 Y     0.0000 Z
  Strength   :  0.000000
  Amplitudes : 
  
 | HOLE  | ALPHA   | BETA    | PART  |    AMPLITUDE 
--------------------------------------------------
 |       | 1111001 | 1100100 |       |     3.1753569970479E-01
 |       | 1110101 | 1101000 |       |     3.1753559651155E-01
 |       | 1111000 | 1110000 |   9   |     6.0228816221728E-01
 |       | 1110100 | 1110000 |   8   |     6.0227958130082E-01
--------------------------------------------------
*** Contributions RASCI wfn    Active:  22.11
                                 Hole:   0.00
                                 Part:  77.89

      Mulliken population analysis 
 ---------------------------------------------------
   Atom    Charge (a.u.)   Spin (a.u.)  
 ---------------------------------------------------
   1  N   -0.338980        1.964952 
   2  H    0.338980        0.035048 
 ---------------------------------------------------
   Sum:    0.000000        2.000000 
 ---------------------------------------------------
 
*** Unpaired Electrons
 Yamaguchi Nd:         3.91
  
--------------------------------------------------
 Interstate Transition Properties
--------------------------------------------------
State A: Root  1
State B: Root  2
  
Angular momentum components
< B | Lx | A > =     0.922307680i
< B | Ly | A > =     0.003483519i
< B | Lz | A > =    -0.000000000i
  
Norm of one-particle transition density matrix
||gamma^AB||_total       =  0.979134
||gamma^AB||_symmetrized =  0.697040
||gamma^AB||_anti-symm   =  0.687632
  
Spin-orbit couplings
 Using HF (reference) density for the 2-elec mean-field SOC contribution
KET: S',Sz' (Root   1) =  1.000 1.000
BRA: S ,Sz  (Root   2) =  1.000 1.000
Clebsh-Gordan coefficient: < 1.000, 1.000; 1.000, 0.000| 1.000, 1.000> =  0.707
 Computing 1e-SO integrals
 1e Reduced matrix elements (cm-1)
<S|| Hso(L-) ||S'> =     0.1559403459    41.2872705263i
<S|| Hso(L0) ||S'> =     0.0000000000     0.0000000000i
<S|| Hso(L+) ||S'> =     0.1559403459   -41.2872705263i
 1-elec SOC matrix (cm-1): < B(S,Sz) | Hso(1e) | A(S',Sz') >
                       |Sz'=-1.00>                |Sz'= 0.00>                |Sz'= 1.00>
 <Sz=-1.00|      0.000000     -0.000000i       0.110266    -29.194509i      -0.000000      0.000000i
 <Sz= 0.00|     -0.110266    -29.194509i       0.000000     -0.000000i       0.110266    -29.194509i
 <Sz= 1.00|      0.000000      0.000000i      -0.110266    -29.194509i      -0.000000      0.000000i
1-elec SOCC =    58.389434402 cm-1
 Computing 2e-SOMF integrals
 Averagin spin alpha/beta reference densities
 2e-SOMF Reduced matrix elements (cm-1)
<S|| Hso(L-) ||S'> =    -0.0640265788   -16.9518838105i
<S|| Hso(L0) ||S'> =     0.0000000000    -0.0000000000i
<S|| Hso(L+) ||S'> =    -0.0640265788    16.9518838105i
 2-elec mean-field SOC matrix (cm-1): < B(S,Sz) | Hso(2e-mf) | A(S',Sz') >
                       |Sz'=-1.00>                |Sz'= 0.00>                |Sz'= 1.00>
 <Sz=-1.00|     -0.000000      0.000000i      -0.045274     11.986792i       0.000000     -0.000000i
 <Sz= 0.00|      0.045274     11.986792i      -0.000000      0.000000i      -0.045274     11.986792i
 <Sz= 1.00|     -0.000000     -0.000000i       0.045274     11.986792i       0.000000     -0.000000i
 Total mean-field SOC matrix (cm-1): < B(S,Sz) | Hsomf | A(S',Sz') >
                       |Sz'=-1.00>                |Sz'= 0.00>                |Sz'= 1.00>
 <Sz=-1.00|      0.000000     -0.000000i       0.064993    -17.207717i      -0.000000      0.000000i
 <Sz= 0.00|     -0.064993    -17.207717i       0.000000     -0.000000i       0.064993    -17.207717i
 <Sz= 1.00|      0.000000      0.000000i      -0.064993    -17.207717i      -0.000000      0.000000i
Mean-Field SOCC =    34.415679414 cm-1
   
**************************************************
State A: Root  1
State B: Root  3
  
Angular momentum components
< B | Lx | A > =     0.003483519i
< B | Ly | A > =    -0.922307784i
< B | Lz | A > =    -0.000000000i
  
Norm of one-particle transition density matrix
||gamma^AB||_total       =  0.979134
||gamma^AB||_symmetrized =  0.697040
||gamma^AB||_anti-symm   =  0.687632
  
Spin-orbit couplings
 Using HF (reference) density for the 2-elec mean-field SOC contribution
KET: S',Sz' (Root   1) =  1.000 1.000
BRA: S ,Sz  (Root   3) =  1.000 1.000
Clebsh-Gordan coefficient: < 1.000, 1.000; 1.000, 0.000| 1.000, 1.000> =  0.707
 Reading 1e-SO integrals
 1e Reduced matrix elements (cm-1)
<S|| Hso(L-) ||S'> =   -41.2872675238     0.1559403572i
<S|| Hso(L0) ||S'> =     0.0000000000     0.0000000000i
<S|| Hso(L+) ||S'> =   -41.2872675238    -0.1559403572i
 1-elec SOC matrix (cm-1): < B(S,Sz) | Hso(1e) | A(S',Sz') >
                       |Sz'=-1.00>                |Sz'= 0.00>                |Sz'= 1.00>
 <Sz=-1.00|     -0.000000     -0.000000i     -29.194507     -0.110266i       0.000000      0.000000i
 <Sz= 0.00|     29.194507     -0.110266i      -0.000000     -0.000000i     -29.194507     -0.110266i
 <Sz= 1.00|     -0.000000      0.000000i      29.194507     -0.110266i       0.000000      0.000000i
1-elec SOCC =    58.389430156 cm-1
 Reading 2e-SOMF integrals
 2e-SOMF Reduced matrix elements (cm-1)
<S|| Hso(L-) ||S'> =    16.9518829413    -0.0640265821i
<S|| Hso(L0) ||S'> =     0.0000000000    -0.0000000000i
<S|| Hso(L+) ||S'> =    16.9518829413     0.0640265821i
 2-elec mean-field SOC matrix (cm-1): < B(S,Sz) | Hso(2e-mf) | A(S',Sz') >
                       |Sz'=-1.00>                |Sz'= 0.00>                |Sz'= 1.00>
 <Sz=-1.00|      0.000000      0.000000i      11.986791      0.045274i      -0.000000     -0.000000i
 <Sz= 0.00|    -11.986791      0.045274i       0.000000      0.000000i      11.986791      0.045274i
 <Sz= 1.00|      0.000000     -0.000000i     -11.986791      0.045274i      -0.000000     -0.000000i
 Total mean-field SOC matrix (cm-1): < B(S,Sz) | Hsomf | A(S',Sz') >
                       |Sz'=-1.00>                |Sz'= 0.00>                |Sz'= 1.00>
 <Sz=-1.00|     -0.000000     -0.000000i     -17.207715     -0.064993i       0.000000      0.000000i
 <Sz= 0.00|     17.207715     -0.064993i      -0.000000     -0.000000i     -17.207715     -0.064993i
 <Sz= 1.00|     -0.000000      0.000000i      17.207715     -0.064993i       0.000000      0.000000i
Mean-Field SOCC =    34.415676397 cm-1
   
**************************************************
State A: Root  1
State B: Root  4
  
Angular momentum components
< B | Lx | A > =     0.000000000i
< B | Ly | A > =     0.000000000i
< B | Lz | A > =    -0.000000000i
  
Norm of one-particle transition density matrix
||gamma^AB||_total       =  0.687743
||gamma^AB||_symmetrized =  0.505776
||gamma^AB||_anti-symm   =  0.466027
  
Spin-orbit couplings
 Using HF (reference) density for the 2-elec mean-field SOC contribution
KET: S',Sz' (Root   1) =  1.000 1.000
BRA: S ,Sz  (Root   4) =  2.000 1.000
Clebsh-Gordan coefficient: < 1.000, 1.000; 1.000, 0.000| 2.000, 1.000> =  0.707
 Reading 1e-SO integrals
 1e Reduced matrix elements (cm-1)
<S|| Hso(L-) ||S'> =     0.0000000000     0.0000000000i
<S|| Hso(L0) ||S'> =     0.0000000000    -0.0000000000i
<S|| Hso(L+) ||S'> =     0.0000000000    -0.0000000000i
 1-elec SOC matrix (cm-1): < B(S,Sz) | Hso(1e) | A(S',Sz') >
                       |Sz'=-1.00>                |Sz'= 0.00>                |Sz'= 1.00>
 <Sz=-2.00|      0.000000     -0.000000i       0.000000      0.000000i       0.000000      0.000000i
 <Sz=-1.00|      0.000000     -0.000000i       0.000000     -0.000000i       0.000000     -0.000000i
 <Sz= 0.00|      0.000000      0.000000i      -0.000000     -0.000000i       0.000000     -0.000000i
 <Sz= 1.00|      0.000000      0.000000i       0.000000      0.000000i       0.000000     -0.000000i
 <Sz= 2.00|      0.000000      0.000000i       0.000000      0.000000i       0.000000      0.000000i
1-elec SOCC =     0.000000000 cm-1
 Reading 2e-SOMF integrals
 2e-SOMF Reduced matrix elements (cm-1)
<S|| Hso(L-) ||S'> =    -0.0000000000    -0.0000000000i
<S|| Hso(L0) ||S'> =     0.0000000000     0.0000000000i
<S|| Hso(L+) ||S'> =    -0.0000000000     0.0000000000i
 2-elec mean-field SOC matrix (cm-1): < B(S,Sz) | Hso(2e-mf) | A(S',Sz') >
                       |Sz'=-1.00>                |Sz'= 0.00>                |Sz'= 1.00>
 <Sz=-2.00|     -0.000000      0.000000i       0.000000      0.000000i       0.000000      0.000000i
 <Sz=-1.00|     -0.000000      0.000000i      -0.000000      0.000000i      -0.000000      0.000000i
 <Sz= 0.00|     -0.000000     -0.000000i       0.000000      0.000000i      -0.000000      0.000000i
 <Sz= 1.00|     -0.000000     -0.000000i      -0.000000     -0.000000i      -0.000000      0.000000i
 <Sz= 2.00|      0.000000      0.000000i       0.000000      0.000000i      -0.000000     -0.000000i
 Total mean-field SOC matrix (cm-1): < B(S,Sz) | Hsomf | A(S',Sz') >
                       |Sz'=-1.00>                |Sz'= 0.00>                |Sz'= 1.00>
 <Sz=-2.00|      0.000000     -0.000000i       0.000000      0.000000i       0.000000      0.000000i
 <Sz=-1.00|      0.000000     -0.000000i       0.000000     -0.000000i       0.000000     -0.000000i
 <Sz= 0.00|      0.000000      0.000000i      -0.000000     -0.000000i       0.000000     -0.000000i
 <Sz= 1.00|      0.000000      0.000000i       0.000000      0.000000i       0.000000     -0.000000i
 <Sz= 2.00|      0.000000      0.000000i       0.000000      0.000000i       0.000000      0.000000i
Mean-Field SOCC =     0.000000000 cm-1
   
**************************************************
State A: Root  1
State B: Root  5
  
Angular momentum components
< B | Lx | A > =     0.000163214i
< B | Ly | A > =     0.143619111i
< B | Lz | A > =    -0.000000000i
  
Norm of one-particle transition density matrix
||gamma^AB||_total       =  0.949806
||gamma^AB||_symmetrized =  0.674976
||gamma^AB||_anti-symm   =  0.668235
  
Spin-orbit couplings
 Using HF (reference) density for the 2-elec mean-field SOC contribution
KET: S',Sz' (Root   1) =  1.000 1.000
BRA: S ,Sz  (Root   5) =  1.000 1.000
Clebsh-Gordan coefficient: < 1.000, 1.000; 1.000, 0.000| 1.000, 1.000> =  0.707
 Reading 1e-SO integrals
 1e Reduced matrix elements (cm-1)
<S|| Hso(L-) ||S'> =   -26.6096721073    -0.0302403156i
<S|| Hso(L0) ||S'> =     0.0000000000     0.0000000000i
<S|| Hso(L+) ||S'> =   -26.6096721073     0.0302403156i
 1-elec SOC matrix (cm-1): < B(S,Sz) | Hso(1e) | A(S',Sz') >
                       |Sz'=-1.00>                |Sz'= 0.00>                |Sz'= 1.00>
 <Sz=-1.00|     -0.000000     -0.000000i     -18.815880      0.021383i       0.000000     -0.000000i
 <Sz= 0.00|     18.815880      0.021383i      -0.000000      0.000000i     -18.815880      0.021383i
 <Sz= 1.00|     -0.000000     -0.000000i      18.815880      0.021383i       0.000000      0.000000i
1-elec SOCC =    37.631783485 cm-1
 Reading 2e-SOMF integrals
 2e-SOMF Reduced matrix elements (cm-1)
<S|| Hso(L-) ||S'> =     9.9925274921     0.0113559140i
<S|| Hso(L0) ||S'> =     0.0000000000    -0.0000000000i
<S|| Hso(L+) ||S'> =     9.9925274921    -0.0113559140i
 2-elec mean-field SOC matrix (cm-1): < B(S,Sz) | Hso(2e-mf) | A(S',Sz') >
                       |Sz'=-1.00>                |Sz'= 0.00>                |Sz'= 1.00>
 <Sz=-1.00|      0.000000      0.000000i       7.065784     -0.008030i      -0.000000      0.000000i
 <Sz= 0.00|     -7.065784     -0.008030i       0.000000     -0.000000i       7.065784     -0.008030i
 <Sz= 1.00|      0.000000      0.000000i      -7.065784     -0.008030i      -0.000000     -0.000000i
 Total mean-field SOC matrix (cm-1): < B(S,Sz) | Hsomf | A(S',Sz') >
                       |Sz'=-1.00>                |Sz'= 0.00>                |Sz'= 1.00>
 <Sz=-1.00|     -0.000000     -0.000000i     -11.750096      0.013353i       0.000000     -0.000000i
 <Sz= 0.00|     11.750096      0.013353i      -0.000000      0.000000i     -11.750096      0.013353i
 <Sz= 1.00|     -0.000000     -0.000000i      11.750096      0.013353i       0.000000      0.000000i
Mean-Field SOCC =    23.500206458 cm-1
   
**************************************************
State A: Root  1
State B: Root  6
  
Angular momentum components
< B | Lx | A > =     0.143618945i
< B | Ly | A > =    -0.000163215i
< B | Lz | A > =     0.000000000i
  
Norm of one-particle transition density matrix
||gamma^AB||_total       =  0.949806
||gamma^AB||_symmetrized =  0.674976
||gamma^AB||_anti-symm   =  0.668235
  
Spin-orbit couplings
 Using HF (reference) density for the 2-elec mean-field SOC contribution
KET: S',Sz' (Root   1) =  1.000 1.000
BRA: S ,Sz  (Root   6) =  1.000 1.000
Clebsh-Gordan coefficient: < 1.000, 1.000; 1.000, 0.000| 1.000, 1.000> =  0.707
 Reading 1e-SO integrals
 1e Reduced matrix elements (cm-1)
<S|| Hso(L-) ||S'> =     0.0302402975   -26.6096880401i
<S|| Hso(L0) ||S'> =     0.0000000000     0.0000000000i
<S|| Hso(L+) ||S'> =     0.0302402975    26.6096880401i
 1-elec SOC matrix (cm-1): < B(S,Sz) | Hso(1e) | A(S',Sz') >
                       |Sz'=-1.00>                |Sz'= 0.00>                |Sz'= 1.00>
 <Sz=-1.00|      0.000000     -0.000000i       0.021383     18.815891i      -0.000000     -0.000000i
 <Sz= 0.00|     -0.021383     18.815891i       0.000000      0.000000i       0.021383     18.815891i
 <Sz= 1.00|      0.000000     -0.000000i      -0.021383     18.815891i      -0.000000      0.000000i
1-elec SOCC =    37.631806017 cm-1
 Reading 2e-SOMF integrals
 2e-SOMF Reduced matrix elements (cm-1)
<S|| Hso(L-) ||S'> =    -0.0113559086     9.9925322346i
<S|| Hso(L0) ||S'> =     0.0000000000    -0.0000000000i
<S|| Hso(L+) ||S'> =    -0.0113559086    -9.9925322346i
 2-elec mean-field SOC matrix (cm-1): < B(S,Sz) | Hso(2e-mf) | A(S',Sz') >
                       |Sz'=-1.00>                |Sz'= 0.00>                |Sz'= 1.00>
 <Sz=-1.00|     -0.000000      0.000000i      -0.008030     -7.065787i       0.000000      0.000000i
 <Sz= 0.00|      0.008030     -7.065787i      -0.000000     -0.000000i      -0.008030     -7.065787i
 <Sz= 1.00|     -0.000000      0.000000i       0.008030     -7.065787i       0.000000     -0.000000i
 Total mean-field SOC matrix (cm-1): < B(S,Sz) | Hsomf | A(S',Sz') >
                       |Sz'=-1.00>                |Sz'= 0.00>                |Sz'= 1.00>
 <Sz=-1.00|      0.000000     -0.000000i       0.013353     11.750104i      -0.000000     -0.000000i
 <Sz= 0.00|     -0.013353     11.750104i       0.000000      0.000000i       0.013353     11.750104i
 <Sz= 1.00|      0.000000     -0.000000i      -0.013353     11.750104i      -0.000000      0.000000i
Mean-Field SOCC =    23.500222283 cm-1
   
**************************************************
State A: Root  1
State B: Root  7
  
Angular momentum components
< B | Lx | A > =    -0.000000000i
< B | Ly | A > =    -0.000000000i
< B | Lz | A > =    -0.000000000i
  
Norm of one-particle transition density matrix
||gamma^AB||_total       =  0.838106
||gamma^AB||_symmetrized =  0.592347
||gamma^AB||_anti-symm   =  0.592914
  
Spin-orbit couplings
 Using HF (reference) density for the 2-elec mean-field SOC contribution
KET: S',Sz' (Root   1) =  1.000 1.000
BRA: S ,Sz  (Root   7) =  1.000 1.000
Clebsh-Gordan coefficient: < 1.000, 1.000; 1.000, 0.000| 1.000, 1.000> =  0.707
 Reading 1e-SO integrals
 1e Reduced matrix elements (cm-1)
<S|| Hso(L-) ||S'> =     0.0000000000     0.0000000000i
<S|| Hso(L0) ||S'> =     0.0000000000     0.0000000000i
<S|| Hso(L+) ||S'> =     0.0000000000    -0.0000000000i
 1-elec SOC matrix (cm-1): < B(S,Sz) | Hso(1e) | A(S',Sz') >
                       |Sz'=-1.00>                |Sz'= 0.00>                |Sz'= 1.00>
 <Sz=-1.00|      0.000000     -0.000000i       0.000000     -0.000000i      -0.000000      0.000000i
 <Sz= 0.00|     -0.000000     -0.000000i       0.000000     -0.000000i       0.000000     -0.000000i
 <Sz= 1.00|      0.000000      0.000000i      -0.000000     -0.000000i      -0.000000      0.000000i
1-elec SOCC =     0.000000000 cm-1
 Reading 2e-SOMF integrals
 2e-SOMF Reduced matrix elements (cm-1)
<S|| Hso(L-) ||S'> =    -0.0000000000    -0.0000000000i
<S|| Hso(L0) ||S'> =     0.0000000000    -0.0000000000i
<S|| Hso(L+) ||S'> =    -0.0000000000     0.0000000000i
 2-elec mean-field SOC matrix (cm-1): < B(S,Sz) | Hso(2e-mf) | A(S',Sz') >
                       |Sz'=-1.00>                |Sz'= 0.00>                |Sz'= 1.00>
 <Sz=-1.00|     -0.000000      0.000000i      -0.000000      0.000000i       0.000000     -0.000000i
 <Sz= 0.00|      0.000000      0.000000i      -0.000000      0.000000i      -0.000000      0.000000i
 <Sz= 1.00|     -0.000000     -0.000000i       0.000000      0.000000i       0.000000     -0.000000i
 Total mean-field SOC matrix (cm-1): < B(S,Sz) | Hsomf | A(S',Sz') >
                       |Sz'=-1.00>                |Sz'= 0.00>                |Sz'= 1.00>
 <Sz=-1.00|      0.000000     -0.000000i       0.000000     -0.000000i      -0.000000      0.000000i
 <Sz= 0.00|     -0.000000     -0.000000i       0.000000     -0.000000i       0.000000     -0.000000i
 <Sz= 1.00|      0.000000      0.000000i      -0.000000     -0.000000i      -0.000000      0.000000i
Mean-Field SOCC =     0.000000000 cm-1
   
**************************************************
State A: Root  1
State B: Root  8
  
Angular momentum components
< B | Lx | A > =     0.000000000i
< B | Ly | A > =     0.000000000i
< B | Lz | A > =    -0.000000000i
  
Norm of one-particle transition density matrix
||gamma^AB||_total       =  0.033071
||gamma^AB||_symmetrized =  0.026724
||gamma^AB||_anti-symm   =  0.019481
  
Spin-orbit couplings
 Using HF (reference) density for the 2-elec mean-field SOC contribution
KET: S',Sz' (Root   1) =  1.000 1.000
BRA: S ,Sz  (Root   8) =  1.000 1.000
Clebsh-Gordan coefficient: < 1.000, 1.000; 1.000, 0.000| 1.000, 1.000> =  0.707
 Reading 1e-SO integrals
 1e Reduced matrix elements (cm-1)
<S|| Hso(L-) ||S'> =     0.0000000000     0.0000000000i
<S|| Hso(L0) ||S'> =     0.0000000000    -0.0000000011i
<S|| Hso(L+) ||S'> =     0.0000000000    -0.0000000000i
 1-elec SOC matrix (cm-1): < B(S,Sz) | Hso(1e) | A(S',Sz') >
                       |Sz'=-1.00>                |Sz'= 0.00>                |Sz'= 1.00>
 <Sz=-1.00|      0.000000      0.000000i       0.000000     -0.000000i      -0.000000     -0.000000i
 <Sz= 0.00|     -0.000000     -0.000000i       0.000000     -0.000000i       0.000000     -0.000000i
 <Sz= 1.00|      0.000000     -0.000000i      -0.000000     -0.000000i      -0.000000     -0.000000i
1-elec SOCC =     0.000000001 cm-1
 Reading 2e-SOMF integrals
 2e-SOMF Reduced matrix elements (cm-1)
<S|| Hso(L-) ||S'> =    -0.0000000000    -0.0000000000i
<S|| Hso(L0) ||S'> =     0.0000000000     0.0000000004i
<S|| Hso(L+) ||S'> =    -0.0000000000     0.0000000000i
 2-elec mean-field SOC matrix (cm-1): < B(S,Sz) | Hso(2e-mf) | A(S',Sz') >
                       |Sz'=-1.00>                |Sz'= 0.00>                |Sz'= 1.00>
 <Sz=-1.00|     -0.000000     -0.000000i      -0.000000      0.000000i       0.000000      0.000000i
 <Sz= 0.00|      0.000000      0.000000i      -0.000000      0.000000i      -0.000000      0.000000i
 <Sz= 1.00|     -0.000000      0.000000i       0.000000      0.000000i       0.000000      0.000000i
 Total mean-field SOC matrix (cm-1): < B(S,Sz) | Hsomf | A(S',Sz') >
                       |Sz'=-1.00>                |Sz'= 0.00>                |Sz'= 1.00>
 <Sz=-1.00|      0.000000      0.000000i       0.000000     -0.000000i      -0.000000     -0.000000i
 <Sz= 0.00|     -0.000000     -0.000000i       0.000000     -0.000000i       0.000000     -0.000000i
 <Sz= 1.00|      0.000000     -0.000000i      -0.000000     -0.000000i      -0.000000     -0.000000i
Mean-Field SOCC =     0.000000001 cm-1
   
**************************************************
State A: Root  1
State B: Root  9
  
Angular momentum components
< B | Lx | A > =     0.000000000i
< B | Ly | A > =     0.000000000i
< B | Lz | A > =    -0.000000000i
  
Norm of one-particle transition density matrix
||gamma^AB||_total       =  0.033072
||gamma^AB||_symmetrized =  0.026725
||gamma^AB||_anti-symm   =  0.019481
  
Spin-orbit couplings
 Using HF (reference) density for the 2-elec mean-field SOC contribution
KET: S',Sz' (Root   1) =  1.000 1.000
BRA: S ,Sz  (Root   9) =  1.000 1.000
Clebsh-Gordan coefficient: < 1.000, 1.000; 1.000, 0.000| 1.000, 1.000> =  0.707
 Reading 1e-SO integrals
 1e Reduced matrix elements (cm-1)
<S|| Hso(L-) ||S'> =    -0.0000000000    -0.0000000000i
<S|| Hso(L0) ||S'> =     0.0000000000    -0.0019920781i
<S|| Hso(L+) ||S'> =    -0.0000000000     0.0000000000i
 1-elec SOC matrix (cm-1): < B(S,Sz) | Hso(1e) | A(S',Sz') >
                       |Sz'=-1.00>                |Sz'= 0.00>                |Sz'= 1.00>
 <Sz=-1.00|     -0.000000      0.001409i      -0.000000      0.000000i       0.000000     -0.000000i
 <Sz= 0.00|      0.000000      0.000000i      -0.000000     -0.000000i      -0.000000      0.000000i
 <Sz= 1.00|     -0.000000     -0.000000i       0.000000      0.000000i       0.000000     -0.001409i
1-elec SOCC =     0.001992078 cm-1
 Reading 2e-SOMF integrals
 2e-SOMF Reduced matrix elements (cm-1)
<S|| Hso(L-) ||S'> =     0.0000000000     0.0000000000i
<S|| Hso(L0) ||S'> =     0.0000000000     0.0007647442i
<S|| Hso(L+) ||S'> =     0.0000000000    -0.0000000000i
 2-elec mean-field SOC matrix (cm-1): < B(S,Sz) | Hso(2e-mf) | A(S',Sz') >
                       |Sz'=-1.00>                |Sz'= 0.00>                |Sz'= 1.00>
 <Sz=-1.00|      0.000000     -0.000541i       0.000000     -0.000000i      -0.000000      0.000000i
 <Sz= 0.00|     -0.000000     -0.000000i       0.000000      0.000000i       0.000000     -0.000000i
 <Sz= 1.00|      0.000000      0.000000i      -0.000000     -0.000000i      -0.000000      0.000541i
 Total mean-field SOC matrix (cm-1): < B(S,Sz) | Hsomf | A(S',Sz') >
                       |Sz'=-1.00>                |Sz'= 0.00>                |Sz'= 1.00>
 <Sz=-1.00|     -0.000000      0.000868i      -0.000000      0.000000i       0.000000     -0.000000i
 <Sz= 0.00|      0.000000      0.000000i      -0.000000     -0.000000i      -0.000000      0.000000i
 <Sz= 1.00|     -0.000000     -0.000000i       0.000000      0.000000i       0.000000     -0.000868i
Mean-Field SOCC =     0.001227334 cm-1
   
**************************************************
State A: Root  1
State B: Root 10
  
Angular momentum components
< B | Lx | A > =     0.000000000i
< B | Ly | A > =     0.000000000i
< B | Lz | A > =    -0.000000000i
  
Norm of one-particle transition density matrix
||gamma^AB||_total       =  0.833641
||gamma^AB||_symmetrized =  0.590308
||gamma^AB||_anti-symm   =  0.588636
  
Spin-orbit couplings
 Using HF (reference) density for the 2-elec mean-field SOC contribution
KET: S',Sz' (Root   1) =  1.000 1.000
BRA: S ,Sz  (Root  10) =  1.000 1.000
Clebsh-Gordan coefficient: < 1.000, 1.000; 1.000, 0.000| 1.000, 1.000> =  0.707
 Reading 1e-SO integrals
 1e Reduced matrix elements (cm-1)
<S|| Hso(L-) ||S'> =    -0.0000000000    -0.0000000000i
<S|| Hso(L0) ||S'> =     0.0000000000    -0.0000000000i
<S|| Hso(L+) ||S'> =    -0.0000000000     0.0000000000i
 1-elec SOC matrix (cm-1): < B(S,Sz) | Hso(1e) | A(S',Sz') >
                       |Sz'=-1.00>                |Sz'= 0.00>                |Sz'= 1.00>
 <Sz=-1.00|     -0.000000      0.000000i      -0.000000      0.000000i       0.000000     -0.000000i
 <Sz= 0.00|      0.000000      0.000000i      -0.000000      0.000000i      -0.000000      0.000000i
 <Sz= 1.00|     -0.000000     -0.000000i       0.000000      0.000000i       0.000000     -0.000000i
1-elec SOCC =     0.000000000 cm-1
 Reading 2e-SOMF integrals
 2e-SOMF Reduced matrix elements (cm-1)
<S|| Hso(L-) ||S'> =     0.0000000000     0.0000000000i
<S|| Hso(L0) ||S'> =     0.0000000000     0.0000000000i
<S|| Hso(L+) ||S'> =     0.0000000000    -0.0000000000i
 2-elec mean-field SOC matrix (cm-1): < B(S,Sz) | Hso(2e-mf) | A(S',Sz') >
                       |Sz'=-1.00>                |Sz'= 0.00>                |Sz'= 1.00>
 <Sz=-1.00|      0.000000     -0.000000i       0.000000     -0.000000i      -0.000000      0.000000i
 <Sz= 0.00|     -0.000000     -0.000000i       0.000000      0.000000i       0.000000     -0.000000i
 <Sz= 1.00|      0.000000      0.000000i      -0.000000     -0.000000i      -0.000000      0.000000i
 Total mean-field SOC matrix (cm-1): < B(S,Sz) | Hsomf | A(S',Sz') >
                       |Sz'=-1.00>                |Sz'= 0.00>                |Sz'= 1.00>
 <Sz=-1.00|     -0.000000      0.000000i      -0.000000      0.000000i       0.000000     -0.000000i
 <Sz= 0.00|      0.000000      0.000000i      -0.000000      0.000000i      -0.000000      0.000000i
 <Sz= 1.00|     -0.000000     -0.000000i       0.000000      0.000000i       0.000000     -0.000000i
Mean-Field SOCC =     0.000000000 cm-1
   
**************************************************
State A: Root  1
State B: Root 11
  
Angular momentum components
< B | Lx | A > =    -0.000000000i
< B | Ly | A > =    -0.000000000i
< B | Lz | A > =     0.000000000i
  
Norm of one-particle transition density matrix
||gamma^AB||_total       =  0.021689
||gamma^AB||_symmetrized =  0.008092
||gamma^AB||_anti-symm   =  0.020123
  
Spin-orbit couplings
 Using HF (reference) density for the 2-elec mean-field SOC contribution
KET: S',Sz' (Root   1) =  1.000 1.000
BRA: S ,Sz  (Root  11) =  1.000 1.000
Clebsh-Gordan coefficient: < 1.000, 1.000; 1.000, 0.000| 1.000, 1.000> =  0.707
 Reading 1e-SO integrals
 1e Reduced matrix elements (cm-1)
<S|| Hso(L-) ||S'> =     0.0000000000     0.0000000000i
<S|| Hso(L0) ||S'> =     0.0000000000     3.4340672373i
<S|| Hso(L+) ||S'> =     0.0000000000    -0.0000000000i
 1-elec SOC matrix (cm-1): < B(S,Sz) | Hso(1e) | A(S',Sz') >
                       |Sz'=-1.00>                |Sz'= 0.00>                |Sz'= 1.00>
 <Sz=-1.00|      0.000000     -2.428252i       0.000000     -0.000000i      -0.000000      0.000000i
 <Sz= 0.00|     -0.000000     -0.000000i       0.000000      0.000000i       0.000000     -0.000000i
 <Sz= 1.00|      0.000000      0.000000i      -0.000000     -0.000000i      -0.000000      2.428252i
1-elec SOCC =     3.434067237 cm-1
 Reading 2e-SOMF integrals
 2e-SOMF Reduced matrix elements (cm-1)
<S|| Hso(L-) ||S'> =    -0.0000000000    -0.0000000000i
<S|| Hso(L0) ||S'> =     0.0000000000    -1.4264041561i
<S|| Hso(L+) ||S'> =    -0.0000000000     0.0000000000i
 2-elec mean-field SOC matrix (cm-1): < B(S,Sz) | Hso(2e-mf) | A(S',Sz') >
                       |Sz'=-1.00>                |Sz'= 0.00>                |Sz'= 1.00>
 <Sz=-1.00|     -0.000000      1.008620i      -0.000000      0.000000i       0.000000     -0.000000i
 <Sz= 0.00|      0.000000      0.000000i      -0.000000     -0.000000i      -0.000000      0.000000i
 <Sz= 1.00|     -0.000000     -0.000000i       0.000000      0.000000i       0.000000     -1.008620i
 Total mean-field SOC matrix (cm-1): < B(S,Sz) | Hsomf | A(S',Sz') >
                       |Sz'=-1.00>                |Sz'= 0.00>                |Sz'= 1.00>
 <Sz=-1.00|      0.000000     -1.419632i       0.000000     -0.000000i      -0.000000      0.000000i
 <Sz= 0.00|     -0.000000     -0.000000i       0.000000      0.000000i       0.000000     -0.000000i
 <Sz= 1.00|      0.000000      0.000000i      -0.000000     -0.000000i      -0.000000      1.419632i
Mean-Field SOCC =     2.007663081 cm-1
   
**************************************************
State A: Root  1
State B: Root 12
  
Angular momentum components
< B | Lx | A > =    -0.000000000i
< B | Ly | A > =    -0.000000000i
< B | Lz | A > =     0.000000000i
  
Norm of one-particle transition density matrix
||gamma^AB||_total       =  0.691980
||gamma^AB||_symmetrized =  0.511057
||gamma^AB||_anti-symm   =  0.466537
  
Spin-orbit couplings
 Using HF (reference) density for the 2-elec mean-field SOC contribution
KET: S',Sz' (Root   1) =  1.000 1.000
BRA: S ,Sz  (Root  12) =  2.000 1.000
Clebsh-Gordan coefficient: < 1.000, 1.000; 1.000, 0.000| 2.000, 1.000> =  0.707
 Reading 1e-SO integrals
 1e Reduced matrix elements (cm-1)
<S|| Hso(L-) ||S'> =     0.0000000000    -0.0000000000i
<S|| Hso(L0) ||S'> =     0.0000000000    -0.0000000000i
<S|| Hso(L+) ||S'> =     0.0000000000     0.0000000000i
 1-elec SOC matrix (cm-1): < B(S,Sz) | Hso(1e) | A(S',Sz') >
                       |Sz'=-1.00>                |Sz'= 0.00>                |Sz'= 1.00>
 <Sz=-2.00|      0.000000      0.000000i       0.000000      0.000000i       0.000000      0.000000i
 <Sz=-1.00|      0.000000     -0.000000i       0.000000      0.000000i       0.000000      0.000000i
 <Sz= 0.00|      0.000000     -0.000000i      -0.000000     -0.000000i       0.000000      0.000000i
 <Sz= 1.00|      0.000000     -0.000000i       0.000000     -0.000000i       0.000000     -0.000000i
 <Sz= 2.00|      0.000000      0.000000i       0.000000      0.000000i       0.000000     -0.000000i
1-elec SOCC =     0.000000000 cm-1
 Reading 2e-SOMF integrals
 2e-SOMF Reduced matrix elements (cm-1)
<S|| Hso(L-) ||S'> =    -0.0000000000     0.0000000000i
<S|| Hso(L0) ||S'> =     0.0000000000     0.0000000000i
<S|| Hso(L+) ||S'> =    -0.0000000000    -0.0000000000i
 2-elec mean-field SOC matrix (cm-1): < B(S,Sz) | Hso(2e-mf) | A(S',Sz') >
                       |Sz'=-1.00>                |Sz'= 0.00>                |Sz'= 1.00>
 <Sz=-2.00|     -0.000000     -0.000000i       0.000000      0.000000i       0.000000      0.000000i
 <Sz=-1.00|     -0.000000      0.000000i      -0.000000     -0.000000i      -0.000000     -0.000000i
 <Sz= 0.00|     -0.000000      0.000000i       0.000000      0.000000i      -0.000000     -0.000000i
 <Sz= 1.00|     -0.000000      0.000000i      -0.000000      0.000000i      -0.000000      0.000000i
 <Sz= 2.00|      0.000000      0.000000i       0.000000      0.000000i      -0.000000      0.000000i
 Total mean-field SOC matrix (cm-1): < B(S,Sz) | Hsomf | A(S',Sz') >
                       |Sz'=-1.00>                |Sz'= 0.00>                |Sz'= 1.00>
 <Sz=-2.00|      0.000000      0.000000i       0.000000      0.000000i       0.000000      0.000000i
 <Sz=-1.00|      0.000000     -0.000000i       0.000000      0.000000i       0.000000      0.000000i
 <Sz= 0.00|      0.000000     -0.000000i      -0.000000     -0.000000i       0.000000      0.000000i
 <Sz= 1.00|      0.000000     -0.000000i       0.000000     -0.000000i       0.000000     -0.000000i
 <Sz= 2.00|      0.000000      0.000000i       0.000000      0.000000i       0.000000     -0.000000i
Mean-Field SOCC =     0.000000000 cm-1
   
**************************************************
State A: Root  1
State B: Root 13
  
Angular momentum components
< B | Lx | A > =    -0.212688355i
< B | Ly | A > =     0.000371078i
< B | Lz | A > =    -0.000000000i
  
Norm of one-particle transition density matrix
||gamma^AB||_total       =  0.920358
||gamma^AB||_symmetrized =  0.665989
||gamma^AB||_anti-symm   =  0.635230
  
Spin-orbit couplings
 Using HF (reference) density for the 2-elec mean-field SOC contribution
KET: S',Sz' (Root   1) =  1.000 1.000
BRA: S ,Sz  (Root  13) =  1.000 1.000
Clebsh-Gordan coefficient: < 1.000, 1.000; 1.000, 0.000| 1.000, 1.000> =  0.707
 Reading 1e-SO integrals
 1e Reduced matrix elements (cm-1)
<S|| Hso(L-) ||S'> =     0.0308986496   -17.7100226527i
<S|| Hso(L0) ||S'> =     0.0000000000    -0.0000000000i
<S|| Hso(L+) ||S'> =     0.0308986496    17.7100226527i
 1-elec SOC matrix (cm-1): < B(S,Sz) | Hso(1e) | A(S',Sz') >
                       |Sz'=-1.00>                |Sz'= 0.00>                |Sz'= 1.00>
 <Sz=-1.00|      0.000000      0.000000i       0.021849     12.522877i      -0.000000     -0.000000i
 <Sz= 0.00|     -0.021849     12.522877i       0.000000      0.000000i       0.021849     12.522877i
 <Sz= 1.00|      0.000000     -0.000000i      -0.021849     12.522877i      -0.000000     -0.000000i
1-elec SOCC =    25.045792345 cm-1
 Reading 2e-SOMF integrals
 2e-SOMF Reduced matrix elements (cm-1)
<S|| Hso(L-) ||S'> =    -0.0126895791     7.2732220454i
<S|| Hso(L0) ||S'> =     0.0000000000     0.0000000000i
<S|| Hso(L+) ||S'> =    -0.0126895791    -7.2732220454i
 2-elec mean-field SOC matrix (cm-1): < B(S,Sz) | Hso(2e-mf) | A(S',Sz') >
                       |Sz'=-1.00>                |Sz'= 0.00>                |Sz'= 1.00>
 <Sz=-1.00|     -0.000000     -0.000000i      -0.008973     -5.142945i       0.000000      0.000000i
 <Sz= 0.00|      0.008973     -5.142945i      -0.000000     -0.000000i      -0.008973     -5.142945i
 <Sz= 1.00|     -0.000000      0.000000i       0.008973     -5.142945i       0.000000      0.000000i
 Total mean-field SOC matrix (cm-1): < B(S,Sz) | Hsomf | A(S',Sz') >
                       |Sz'=-1.00>                |Sz'= 0.00>                |Sz'= 1.00>
 <Sz=-1.00|      0.000000      0.000000i       0.012876      7.379932i      -0.000000     -0.000000i
 <Sz= 0.00|     -0.012876      7.379932i       0.000000      0.000000i       0.012876      7.379932i
 <Sz= 1.00|      0.000000     -0.000000i      -0.012876      7.379932i      -0.000000     -0.000000i
Mean-Field SOCC =    14.759887431 cm-1
   
**************************************************
State A: Root  1
State B: Root 14
  
Angular momentum components
< B | Lx | A > =     0.000371077i
< B | Ly | A > =     0.212688460i
< B | Lz | A > =    -0.000000000i
  
Norm of one-particle transition density matrix
||gamma^AB||_total       =  0.920358
||gamma^AB||_symmetrized =  0.665990
||gamma^AB||_anti-symm   =  0.635230
  
Spin-orbit couplings
 Using HF (reference) density for the 2-elec mean-field SOC contribution
KET: S',Sz' (Root   1) =  1.000 1.000
BRA: S ,Sz  (Root  14) =  1.000 1.000
Clebsh-Gordan coefficient: < 1.000, 1.000; 1.000, 0.000| 1.000, 1.000> =  0.707
 Reading 1e-SO integrals
 1e Reduced matrix elements (cm-1)
<S|| Hso(L-) ||S'> =    17.7100038758     0.0308986824i
<S|| Hso(L0) ||S'> =     0.0000000000     0.0000000000i
<S|| Hso(L+) ||S'> =    17.7100038758    -0.0308986824i
 1-elec SOC matrix (cm-1): < B(S,Sz) | Hso(1e) | A(S',Sz') >
                       |Sz'=-1.00>                |Sz'= 0.00>                |Sz'= 1.00>
 <Sz=-1.00|      0.000000     -0.000000i      12.522864     -0.021849i      -0.000000      0.000000i
 <Sz= 0.00|    -12.522864     -0.021849i       0.000000     -0.000000i      12.522864     -0.021849i
 <Sz= 1.00|      0.000000      0.000000i     -12.522864     -0.021849i      -0.000000      0.000000i
1-elec SOCC =    25.045765790 cm-1
 Reading 2e-SOMF integrals
 2e-SOMF Reduced matrix elements (cm-1)
<S|| Hso(L-) ||S'> =    -7.2732141223    -0.0126895929i
<S|| Hso(L0) ||S'> =     0.0000000000    -0.0000000000i
<S|| Hso(L+) ||S'> =    -7.2732141223     0.0126895929i
 2-elec mean-field SOC matrix (cm-1): < B(S,Sz) | Hso(2e-mf) | A(S',Sz') >
                       |Sz'=-1.00>                |Sz'= 0.00>                |Sz'= 1.00>
 <Sz=-1.00|     -0.000000      0.000000i      -5.142939      0.008973i       0.000000     -0.000000i
 <Sz= 0.00|      5.142939      0.008973i      -0.000000      0.000000i      -5.142939      0.008973i
 <Sz= 1.00|     -0.000000     -0.000000i       5.142939      0.008973i       0.000000     -0.000000i
 Total mean-field SOC matrix (cm-1): < B(S,Sz) | Hsomf | A(S',Sz') >
                       |Sz'=-1.00>                |Sz'= 0.00>                |Sz'= 1.00>
 <Sz=-1.00|      0.000000     -0.000000i       7.379925     -0.012876i      -0.000000      0.000000i
 <Sz= 0.00|     -7.379925     -0.012876i       0.000000     -0.000000i       7.379925     -0.012876i
 <Sz= 1.00|      0.000000      0.000000i      -7.379925     -0.012876i      -0.000000      0.000000i
Mean-Field SOCC =    14.759872081 cm-1
   
**************************************************
State A: Root  1
State B: Root 15
  
Angular momentum components
< B | Lx | A > =    -0.000334414i
< B | Ly | A > =    -0.086885484i
< B | Lz | A > =    -0.000000000i
  
Norm of one-particle transition density matrix
||gamma^AB||_total       =  0.942789
||gamma^AB||_symmetrized =  0.666742
||gamma^AB||_anti-symm   =  0.666563
  
Spin-orbit couplings
 Using HF (reference) density for the 2-elec mean-field SOC contribution
KET: S',Sz' (Root   1) =  1.000 1.000
BRA: S ,Sz  (Root  15) =  1.000 1.000
Clebsh-Gordan coefficient: < 1.000, 1.000; 1.000, 0.000| 1.000, 1.000> =  0.707
 Reading 1e-SO integrals
 1e Reduced matrix elements (cm-1)
<S|| Hso(L-) ||S'> =    21.2140600843     0.0816513470i
<S|| Hso(L0) ||S'> =     0.0000000000    -0.0000000000i
[...]
 <Sz= 1.00|      0.000000      0.000000i      -0.004760     -2.727735i      -0.000000      0.000000i
Mean-Field SOCC =     5.455477478 cm-1
   
**************************************************
State A: Root 20
State B: Root 14
  
Angular momentum components
< B | Lx | A > =     0.000182710i
< B | Ly | A > =    -0.104718222i
< B | Lz | A > =    -0.000000000i
  
Norm of one-particle transition density matrix
||gamma^AB||_total       =  0.215953
||gamma^AB||_symmetrized =  0.157241
||gamma^AB||_anti-symm   =  0.148024
  
Spin-orbit couplings
 Using HF (reference) density for the 2-elec mean-field SOC contribution
KET: S',Sz' (Root  20) =  1.000 1.000
BRA: S ,Sz  (Root  14) =  1.000 1.000
Clebsh-Gordan coefficient: < 1.000, 1.000; 1.000, 0.000| 1.000, 1.000> =  0.707
 Reading 1e-SO integrals
 1e Reduced matrix elements (cm-1)
<S|| Hso(L-) ||S'> =     6.4314730614    -0.0112194848i
<S|| Hso(L0) ||S'> =     0.0000000000    -0.0000000000i
<S|| Hso(L+) ||S'> =     6.4314730614     0.0112194848i
 1-elec SOC matrix (cm-1): < B(S,Sz) | Hso(1e) | A(S',Sz') >
                       |Sz'=-1.00>                |Sz'= 0.00>                |Sz'= 1.00>
 <Sz=-1.00|      0.000000      0.000000i       4.547738      0.007933i      -0.000000     -0.000000i
 <Sz= 0.00|     -4.547738      0.007933i       0.000000      0.000000i       4.547738      0.007933i
 <Sz= 1.00|      0.000000     -0.000000i      -4.547738      0.007933i      -0.000000     -0.000000i
1-elec SOCC =     9.095490269 cm-1
 Reading 2e-SOMF integrals
 2e-SOMF Reduced matrix elements (cm-1)
<S|| Hso(L-) ||S'> =    -2.5733346459     0.0044891301i
<S|| Hso(L0) ||S'> =     0.0000000000     0.0000000000i
<S|| Hso(L+) ||S'> =    -2.5733346459    -0.0044891301i
 2-elec mean-field SOC matrix (cm-1): < B(S,Sz) | Hso(2e-mf) | A(S',Sz') >
                       |Sz'=-1.00>                |Sz'= 0.00>                |Sz'= 1.00>
 <Sz=-1.00|     -0.000000     -0.000000i      -1.819622     -0.003174i       0.000000      0.000000i
 <Sz= 0.00|      1.819622     -0.003174i      -0.000000     -0.000000i      -1.819622     -0.003174i
 <Sz= 1.00|     -0.000000      0.000000i       1.819622     -0.003174i       0.000000      0.000000i
 Total mean-field SOC matrix (cm-1): < B(S,Sz) | Hsomf | A(S',Sz') >
                       |Sz'=-1.00>                |Sz'= 0.00>                |Sz'= 1.00>
 <Sz=-1.00|      0.000000      0.000000i       2.728116      0.004759i      -0.000000     -0.000000i
 <Sz= 0.00|     -2.728116      0.004759i       0.000000      0.000000i       2.728116      0.004759i
 <Sz= 1.00|      0.000000     -0.000000i      -2.728116      0.004759i      -0.000000     -0.000000i
Mean-Field SOCC =     5.456239975 cm-1
   
**************************************************
State A: Root 20
State B: Root 15
  
Angular momentum components
< B | Lx | A > =     0.000413621i
< B | Ly | A > =    -0.107459450i
< B | Lz | A > =     0.000000000i
  
Norm of one-particle transition density matrix
||gamma^AB||_total       =  0.669209
||gamma^AB||_symmetrized =  0.508678
||gamma^AB||_anti-symm   =  0.434842
  
Spin-orbit couplings
 Using HF (reference) density for the 2-elec mean-field SOC contribution
KET: S',Sz' (Root  20) =  1.000 1.000
BRA: S ,Sz  (Root  15) =  1.000 1.000
Clebsh-Gordan coefficient: < 1.000, 1.000; 1.000, 0.000| 1.000, 1.000> =  0.707
 Reading 1e-SO integrals
 1e Reduced matrix elements (cm-1)
<S|| Hso(L-) ||S'> =    19.7280217585    -0.0759325123i
<S|| Hso(L0) ||S'> =     0.0000000000     0.0000000000i
<S|| Hso(L+) ||S'> =    19.7280217585     0.0759325123i
 1-elec SOC matrix (cm-1): < B(S,Sz) | Hso(1e) | A(S',Sz') >
                       |Sz'=-1.00>                |Sz'= 0.00>                |Sz'= 1.00>
 <Sz=-1.00|      0.000000     -0.000000i      13.949818      0.053692i      -0.000000     -0.000000i
 <Sz= 0.00|    -13.949818      0.053692i       0.000000      0.000000i      13.949818      0.053692i
 <Sz= 1.00|      0.000000     -0.000000i     -13.949818      0.053692i      -0.000000      0.000000i
1-elec SOCC =    27.899842589 cm-1
 Reading 2e-SOMF integrals
 2e-SOMF Reduced matrix elements (cm-1)
<S|| Hso(L-) ||S'> =    -7.8243089754     0.0301153939i
<S|| Hso(L0) ||S'> =     0.0000000000    -0.0000000000i
<S|| Hso(L+) ||S'> =    -7.8243089754    -0.0301153939i
 2-elec mean-field SOC matrix (cm-1): < B(S,Sz) | Hso(2e-mf) | A(S',Sz') >
                       |Sz'=-1.00>                |Sz'= 0.00>                |Sz'= 1.00>
 <Sz=-1.00|     -0.000000      0.000000i      -5.532622     -0.021295i       0.000000      0.000000i
 <Sz= 0.00|      5.532622     -0.021295i      -0.000000     -0.000000i      -5.532622     -0.021295i
 <Sz= 1.00|     -0.000000      0.000000i       5.532622     -0.021295i       0.000000     -0.000000i
 Total mean-field SOC matrix (cm-1): < B(S,Sz) | Hsomf | A(S',Sz') >
                       |Sz'=-1.00>                |Sz'= 0.00>                |Sz'= 1.00>
 <Sz=-1.00|      0.000000     -0.000000i       8.417196      0.032398i      -0.000000     -0.000000i
 <Sz= 0.00|     -8.417196      0.032398i       0.000000      0.000000i       8.417196      0.032398i
 <Sz= 1.00|      0.000000     -0.000000i      -8.417196      0.032398i      -0.000000      0.000000i
Mean-Field SOCC =    16.834516758 cm-1
   
**************************************************
State A: Root 20
State B: Root 16
  
Angular momentum components
< B | Lx | A > =     0.107464262i
< B | Ly | A > =     0.000413603i
< B | Lz | A > =    -0.000000000i
  
Norm of one-particle transition density matrix
||gamma^AB||_total       =  0.669223
||gamma^AB||_symmetrized =  0.508688
||gamma^AB||_anti-symm   =  0.434852
  
Spin-orbit couplings
 Using HF (reference) density for the 2-elec mean-field SOC contribution
KET: S',Sz' (Root  20) =  1.000 1.000
BRA: S ,Sz  (Root  16) =  1.000 1.000
Clebsh-Gordan coefficient: < 1.000, 1.000; 1.000, 0.000| 1.000, 1.000> =  0.707
 Reading 1e-SO integrals
 1e Reduced matrix elements (cm-1)
<S|| Hso(L-) ||S'> =    -0.0759315574   -19.7282698738i
<S|| Hso(L0) ||S'> =     0.0000000000     0.0000000000i
<S|| Hso(L+) ||S'> =    -0.0759315574    19.7282698738i
 1-elec SOC matrix (cm-1): < B(S,Sz) | Hso(1e) | A(S',Sz') >
                       |Sz'=-1.00>                |Sz'= 0.00>                |Sz'= 1.00>
 <Sz=-1.00|     -0.000000     -0.000000i      -0.053692     13.949993i       0.000000     -0.000000i
 <Sz= 0.00|      0.053692     13.949993i      -0.000000      0.000000i      -0.053692     13.949993i
 <Sz= 1.00|     -0.000000     -0.000000i       0.053692     13.949993i       0.000000      0.000000i
1-elec SOCC =    27.900193469 cm-1
 Reading 2e-SOMF integrals
 2e-SOMF Reduced matrix elements (cm-1)
<S|| Hso(L-) ||S'> =     0.0301151313     7.8243771931i
<S|| Hso(L0) ||S'> =     0.0000000000    -0.0000000000i
<S|| Hso(L+) ||S'> =     0.0301151313    -7.8243771931i
 2-elec mean-field SOC matrix (cm-1): < B(S,Sz) | Hso(2e-mf) | A(S',Sz') >
                       |Sz'=-1.00>                |Sz'= 0.00>                |Sz'= 1.00>
 <Sz=-1.00|      0.000000      0.000000i       0.021295     -5.532670i      -0.000000      0.000000i
 <Sz= 0.00|     -0.021295     -5.532670i       0.000000     -0.000000i       0.021295     -5.532670i
 <Sz= 1.00|      0.000000      0.000000i      -0.021295     -5.532670i      -0.000000     -0.000000i
 Total mean-field SOC matrix (cm-1): < B(S,Sz) | Hsomf | A(S',Sz') >
                       |Sz'=-1.00>                |Sz'= 0.00>                |Sz'= 1.00>
 <Sz=-1.00|     -0.000000     -0.000000i      -0.032397      8.417323i       0.000000     -0.000000i
 <Sz= 0.00|      0.032397      8.417323i      -0.000000      0.000000i      -0.032397      8.417323i
 <Sz= 1.00|     -0.000000     -0.000000i       0.032397      8.417323i       0.000000      0.000000i
Mean-Field SOCC =    16.834771166 cm-1
   
**************************************************
State A: Root 20
State B: Root 17
  
Angular momentum components
< B | Lx | A > =     0.000000000i
< B | Ly | A > =    -0.000000000i
< B | Lz | A > =    -0.000000000i
  
Norm of one-particle transition density matrix
||gamma^AB||_total       =  0.575186
||gamma^AB||_symmetrized =  0.572746
||gamma^AB||_anti-symm   =  0.052918
  
Spin-orbit couplings
 Using HF (reference) density for the 2-elec mean-field SOC contribution
KET: S',Sz' (Root  20) =  1.000 1.000
BRA: S ,Sz  (Root  17) =  1.000 1.000
Clebsh-Gordan coefficient: < 1.000, 1.000; 1.000, 0.000| 1.000, 1.000> =  0.707
 Reading 1e-SO integrals
 1e Reduced matrix elements (cm-1)
<S|| Hso(L-) ||S'> =     0.0000000000     0.0000000000i
<S|| Hso(L0) ||S'> =     0.0000000000    -0.0000000000i
<S|| Hso(L+) ||S'> =     0.0000000000    -0.0000000000i
 1-elec SOC matrix (cm-1): < B(S,Sz) | Hso(1e) | A(S',Sz') >
                       |Sz'=-1.00>                |Sz'= 0.00>                |Sz'= 1.00>
 <Sz=-1.00|      0.000000      0.000000i       0.000000     -0.000000i      -0.000000      0.000000i
 <Sz= 0.00|     -0.000000     -0.000000i       0.000000     -0.000000i       0.000000     -0.000000i
 <Sz= 1.00|      0.000000      0.000000i      -0.000000     -0.000000i      -0.000000     -0.000000i
1-elec SOCC =     0.000000000 cm-1
 Reading 2e-SOMF integrals
 2e-SOMF Reduced matrix elements (cm-1)
<S|| Hso(L-) ||S'> =    -0.0000000000    -0.0000000000i
<S|| Hso(L0) ||S'> =     0.0000000000     0.0000000000i
<S|| Hso(L+) ||S'> =    -0.0000000000     0.0000000000i
 2-elec mean-field SOC matrix (cm-1): < B(S,Sz) | Hso(2e-mf) | A(S',Sz') >
                       |Sz'=-1.00>                |Sz'= 0.00>                |Sz'= 1.00>
 <Sz=-1.00|     -0.000000     -0.000000i      -0.000000      0.000000i       0.000000     -0.000000i
 <Sz= 0.00|      0.000000      0.000000i      -0.000000      0.000000i      -0.000000      0.000000i
 <Sz= 1.00|     -0.000000     -0.000000i       0.000000      0.000000i       0.000000      0.000000i
 Total mean-field SOC matrix (cm-1): < B(S,Sz) | Hsomf | A(S',Sz') >
                       |Sz'=-1.00>                |Sz'= 0.00>                |Sz'= 1.00>
 <Sz=-1.00|      0.000000      0.000000i       0.000000     -0.000000i      -0.000000      0.000000i
 <Sz= 0.00|     -0.000000     -0.000000i       0.000000     -0.000000i       0.000000     -0.000000i
 <Sz= 1.00|      0.000000      0.000000i      -0.000000     -0.000000i      -0.000000     -0.000000i
Mean-Field SOCC =     0.000000000 cm-1
   
**************************************************
State A: Root 20
State B: Root 18
  
Angular momentum components
< B | Lx | A > =    -0.016288309i
< B | Ly | A > =     0.000015050i
< B | Lz | A > =     0.000000000i
  
Norm of one-particle transition density matrix
||gamma^AB||_total       =  0.106942
||gamma^AB||_symmetrized =  0.066978
||gamma^AB||_anti-symm   =  0.083370
  
Spin-orbit couplings
 Using HF (reference) density for the 2-elec mean-field SOC contribution
KET: S',Sz' (Root  20) =  1.000 1.000
BRA: S ,Sz  (Root  18) =  1.000 1.000
Clebsh-Gordan coefficient: < 1.000, 1.000; 1.000, 0.000| 1.000, 1.000> =  0.707
 Reading 1e-SO integrals
 1e Reduced matrix elements (cm-1)
<S|| Hso(L-) ||S'> =     0.0025290753    -2.7321214059i
<S|| Hso(L0) ||S'> =     0.0000000000     0.0000000000i
<S|| Hso(L+) ||S'> =     0.0025290753     2.7321214059i
 1-elec SOC matrix (cm-1): < B(S,Sz) | Hso(1e) | A(S',Sz') >
                       |Sz'=-1.00>                |Sz'= 0.00>                |Sz'= 1.00>
 <Sz=-1.00|      0.000000     -0.000000i       0.001788      1.931902i      -0.000000     -0.000000i
 <Sz= 0.00|     -0.001788      1.931902i       0.000000      0.000000i       0.001788      1.931902i
 <Sz= 1.00|      0.000000     -0.000000i      -0.001788      1.931902i      -0.000000      0.000000i
1-elec SOCC =     3.863804802 cm-1
 Reading 2e-SOMF integrals
 2e-SOMF Reduced matrix elements (cm-1)
<S|| Hso(L-) ||S'> =    -0.0010062039     1.0869788147i
<S|| Hso(L0) ||S'> =     0.0000000000    -0.0000000000i
<S|| Hso(L+) ||S'> =    -0.0010062039    -1.0869788147i
 2-elec mean-field SOC matrix (cm-1): < B(S,Sz) | Hso(2e-mf) | A(S',Sz') >
                       |Sz'=-1.00>                |Sz'= 0.00>                |Sz'= 1.00>
 <Sz=-1.00|     -0.000000      0.000000i      -0.000711     -0.768610i       0.000000      0.000000i
 <Sz= 0.00|      0.000711     -0.768610i      -0.000000     -0.000000i      -0.000711     -0.768610i
 <Sz= 1.00|     -0.000000      0.000000i       0.000711     -0.768610i       0.000000     -0.000000i
 Total mean-field SOC matrix (cm-1): < B(S,Sz) | Hsomf | A(S',Sz') >
                       |Sz'=-1.00>                |Sz'= 0.00>                |Sz'= 1.00>
 <Sz=-1.00|      0.000000     -0.000000i       0.001077      1.163291i      -0.000000     -0.000000i
 <Sz= 0.00|     -0.001077      1.163291i       0.000000      0.000000i       0.001077      1.163291i
 <Sz= 1.00|      0.000000     -0.000000i      -0.001077      1.163291i      -0.000000      0.000000i
Mean-Field SOCC =     2.326583961 cm-1
   
**************************************************
State A: Root 20
State B: Root 19
  
Angular momentum components
< B | Lx | A > =    -0.000015074i
< B | Ly | A > =    -0.016262846i
< B | Lz | A > =    -0.000000000i
  
Norm of one-particle transition density matrix
||gamma^AB||_total       =  0.106949
||gamma^AB||_symmetrized =  0.066985
||gamma^AB||_anti-symm   =  0.083373
  
Spin-orbit couplings
 Using HF (reference) density for the 2-elec mean-field SOC contribution
KET: S',Sz' (Root  20) =  1.000 1.000
BRA: S ,Sz  (Root  19) =  1.000 1.000
Clebsh-Gordan coefficient: < 1.000, 1.000; 1.000, 0.000| 1.000, 1.000> =  0.707
 Reading 1e-SO integrals
 1e Reduced matrix elements (cm-1)
<S|| Hso(L-) ||S'> =    -2.7328389238    -0.0025284113i
<S|| Hso(L0) ||S'> =     0.0000000000    -0.0000000000i
<S|| Hso(L+) ||S'> =    -2.7328389238     0.0025284113i
 1-elec SOC matrix (cm-1): < B(S,Sz) | Hso(1e) | A(S',Sz') >
                       |Sz'=-1.00>                |Sz'= 0.00>                |Sz'= 1.00>
 <Sz=-1.00|     -0.000000      0.000000i      -1.932409      0.001788i       0.000000     -0.000000i
 <Sz= 0.00|      1.932409      0.001788i      -0.000000      0.000000i      -1.932409      0.001788i
 <Sz= 1.00|     -0.000000     -0.000000i       1.932409      0.001788i       0.000000     -0.000000i
1-elec SOCC =     3.864819524 cm-1
 Reading 2e-SOMF integrals
 2e-SOMF Reduced matrix elements (cm-1)
<S|| Hso(L-) ||S'> =     1.0872721073     0.0010059324i
<S|| Hso(L0) ||S'> =     0.0000000000     0.0000000000i
<S|| Hso(L+) ||S'> =     1.0872721073    -0.0010059324i
 2-elec mean-field SOC matrix (cm-1): < B(S,Sz) | Hso(2e-mf) | A(S',Sz') >
                       |Sz'=-1.00>                |Sz'= 0.00>                |Sz'= 1.00>
 <Sz=-1.00|      0.000000     -0.000000i       0.768817     -0.000711i      -0.000000      0.000000i
 <Sz= 0.00|     -0.768817     -0.000711i       0.000000     -0.000000i       0.768817     -0.000711i
 <Sz= 1.00|      0.000000      0.000000i      -0.768817     -0.000711i      -0.000000      0.000000i
 Total mean-field SOC matrix (cm-1): < B(S,Sz) | Hsomf | A(S',Sz') >
                       |Sz'=-1.00>                |Sz'= 0.00>                |Sz'= 1.00>
 <Sz=-1.00|     -0.000000      0.000000i      -1.163591      0.001077i       0.000000     -0.000000i
 <Sz= 0.00|      1.163591      0.001077i      -0.000000      0.000000i      -1.163591      0.001077i
 <Sz= 1.00|     -0.000000     -0.000000i       1.163591      0.001077i       0.000000     -0.000000i
Mean-Field SOCC =     2.327183906 cm-1
   
**************************************************
RAS-CI timing summary (seconds)
  CPU time       1285.26s
  System time       0.08s
  Wall time      1288.47s
Detailed CPU timing summary
     Fock matrix         :         0.0266 s
     Integrals           :         0.0749 s
     Addressing matrices :         0.0000 s
     Guesses             :         0.0199 s
     Iterations          :      1282.1869 s
     Properties          :         2.9484 s
     RAS-CI(2) correction:         0.0000 s
  

 --------------------------------------------------------------
             Orbital Energies (a.u.) and Symmetries
 --------------------------------------------------------------

 Alpha MOs, Restricted
 -- Doubly Occupied --           
-15.637  -1.154  -0.593
  1 A1    2 A1    3 A1                                                         
 -- Singly Occupied (Occupied) --
 -0.537  -0.537
  1 B1    1 B2                                                                 
 -- Virtual --                   
  0.144   0.434   0.456   0.456   0.477   0.636   1.144   1.144
  4 A1    5 A1    2 B1    2 B2    6 A1    7 A1    3 B1    3 B2                 
  1.198   1.198   1.471   2.105   2.105   2.198   2.247   2.361
  1 A2    8 A1    9 A1    4 B1    4 B2   10 A1   11 A1    5 B1                 
  2.361   2.706   3.192   4.201   4.201   4.195   4.195   4.539
  5 B2   12 A1   13 A1    2 A2   14 A1    6 B1    6 B2    7 B1                 
  4.539   4.777   4.777   4.912   4.912   5.110   5.796  32.491
  7 B2   15 A1    3 A2    8 B1    8 B2   16 A1   17 A1   18 A1                 

 Beta MOs, Restricted
 -- Doubly Occupied --           
-15.582  -0.929  -0.507
  1 A1    2 A1    3 A1                                                         
 -- Singly Occupied (Vacant) --  
  0.183   0.183
  1 B1    1 B2                                                                 
 -- Virtual --                   
  0.157   0.463   0.535   0.535   0.506   0.668   1.220   1.220
  4 A1    5 A1    2 B1    2 B2    6 A1    7 A1    3 B1    3 B2                 
  1.336   1.336   1.516   2.143   2.143   2.251   2.279   2.485
  1 A2    8 A1    9 A1    4 B1    4 B2   10 A1   11 A1    5 B1                 
  2.485   2.736   3.221   4.274   4.274   4.296   4.296   4.600
  5 B2   12 A1   13 A1    2 A2   14 A1    6 B1    6 B2    7 B1                 
  4.600   4.932   4.932   4.990   4.990   5.172   5.827  32.523
  7 B2   15 A1    3 A2    8 B1    8 B2   16 A1   17 A1   18 A1                 
 --------------------------------------------------------------

          Ground-State Mulliken Net Atomic Charges

     Atom                 Charge (a.u.)
  ----------------------------------------
      1 N                    -0.219728
      2 H                     0.219728
  ----------------------------------------
  Sum of atomic charges =     0.000000

 -----------------------------------------------------------------
                    Cartesian Multipole Moments
 -----------------------------------------------------------------
    Charge (ESU x 10^10)
                 0.0000
    Dipole Moment (Debye)
         X      -0.0000      Y       0.0000      Z       1.6733
       Tot       1.6733
    Quadrupole Moments (Debye-Ang)
        XX      -6.2624     XY       0.0000     YY      -6.2624
        XZ      -0.0000     YZ       0.0000     ZZ      -5.8294
    Octopole Moments (Debye-Ang^2)
       XXX      -0.0000    XXY       0.0000    XYY      -0.0000
       YYY       0.0000    XXZ       0.3823    XYZ      -0.0000
       YYZ       0.3823    XZZ      -0.0000    YZZ       0.0000
       ZZZ       2.3418
    Hexadecapole Moments (Debye-Ang^3)
      XXXX      -5.5223   XXXY       0.0000   XXYY      -1.8408
      XYYY       0.0000   YYYY      -5.5223   XXXZ      -0.0000
      XXYZ       0.0000   XYYZ      -0.0000   YYYZ       0.0000
      XXZZ      -2.6195   XYZZ       0.0000   YYZZ      -2.6195
      XZZZ      -0.0000   YZZZ       0.0000   ZZZZ      -8.8092
 -----------------------------------------------------------------
 Total job time:  1288.83s(wall), 1285.61s(cpu) 
 Fri Nov  3 15:43:23 2023

        *************************************************************
        *                                                           *
        *  Thank you very much for using Q-Chem.  Have a nice day.  *
        *                                                           *
        *************************************************************


