                  Welcome to Q-Chem
     A Quantum Leap Into The Future Of Chemistry


 Q-Chem 6.0 (devel), Q-Chem, Inc., Pleasanton, CA (2022)

 E. Epifanovsky,  A. T. B. Gilbert,  Xintian Feng,  Joonho Lee,  Yuezhi Mao,  
 N. Mardirossian,  P. Pokhilko,  A. White,  M. Wormit,  M. P. Coons,  
 A. L. Dempwolff,  Zhengting Gan,  D. Hait,  P. R. Horn,  L. D. Jacobson,  
 I. Kaliman,  J. Kussmann,  A. W. Lange,  Ka Un Lao,  D. S. Levine,  Jie Liu,  
 S. C. McKenzie,  A. F. Morrison,  K. Nanda,  F. Plasser,  D. R. Rehn,  
 M. L. Vidal,  Zhi-Qiang You,  Ying Zhu,  B. Alam,  B. Albrecht,  
 A. Aldossary,  E. Alguire,  J. H. Andersen,  V. Athavale,  D. Barton,  
 K. Begam,  A. Behn,  N. Bellonzi,  Y. A. Bernard,  E. J. Berquist,  
 H. Burton,  A. Carreras,  K. Carter-Fenk,  Romit Chakraborty,  
 Chandrima Chakravarty,  Junhan Chen,  A. D. Chien,  K. D. Closser,  
 V. Cofer-Shabica,  L. Cunha,  S. Dasgupta,  Jia Deng,  M. de Wergifosse,  
 M. Diedenhofen,  Hainam Do,  S. Ehlert,  Po-Tung Fang,  S. Fatehi,  
 Qingguo Feng,  T. Friedhoff,  B. Ganoe,  J. Gayvert,  Qinghui Ge,  
 G. Gidofalvi,  M. Goldey,  J. Gomes,  C. Gonzalez-Espinoza,  S. Gulania,  
 A. Gunina,  J. A. Gyamfi,  M. W. D. Hanson-Heine,  P. H. P. Harbach,  
 A. W. Hauser,  M. F. Herbst,  M. Hernandez Vera,  M. Hodecker,  
 Z. C. Holden,  S. Houck,  Xunkun Huang,  Kerwin Hui,  B. C. Huynh,  
 K. Ikeda,  M. Ivanov,  Hyunjun Ji,  Zuxin Jin,  Hanjie Jiang,  B. Kaduk,  
 S. Kaehler,  R. Kang,  K. Khistyaev,  Jaehoon Kim,  Yongbin Kim,  
 P. Klunzinger,  Z. Koczor-Benda,  Joong Hoon Koh,  D. Kosenkov,  
 Saikiran Kotaru,  L. Koulias,  T. Kowalczyk,  C. M. Krauter,  K. Kue,  
 A. Kunitsa,  T. Kus,  A. Landau,  K. V. Lawler,  D. Lefrancois,  S. Lehtola,  
 Rain Li,  Shaozhi Li,  Yi-Pei Li,  Jiashu Liang,  M. Liebenthal,  
 Hung-Hsuan Lin,  You-Sheng Lin,  Fenglai Liu,  Kuan-Yu Liu,  
 M. Loipersberger,  A. Luenser,  C. Malbon,  A. Manjanath,  P. Manohar,  
 E. Mansoor,  S. F. Manzer,  Shan-Ping Mao,  A. V. Marenich,  T. Markovich,  
 S. Mason,  F. Matz,  S. A. Maurer,  P. F. McLaughlin,  M. F. S. J. Menger,  
 J.-M. Mewes,  S. A. Mewes,  P. Morgante,  Mohammad Mostafanejad,  
 J. W. Mullinax,  K. J. Oosterbaan,  G. Paran,  V. Parravicini,  
 Alexander C. Paul,  Suranjan K. Paul,  F. Pavosevic,  Zheng Pei,  S. Prager,  
 E. I. Proynov,  E. Ramos,  B. Rana,  A. E. Rask,  A. Rettig,  R. M. Richard,  
 F. Rob,  E. Rossomme,  T. Scheele,  M. Scheurer,  M. Schneider,  
 P. E. Schneider,  N. Sergueev,  S. M. Sharada,  Hengyuan Shen,  
 W. Skomorowski,  D. W. Small,  C. J. Stein,  Yingli Su,  Yu-Chuan Su,  
 E. J. Sundstrom,  Zhen Tao,  J. Thirman,  Hung-Yi Tsai,  T. Tsuchimochi,  
 N. M. Tubman,  C. Utku,  S. P. Veccham,  O. Vydrov,  J. Wenzel,  
 Jonathan Wong,  J. Witte,  A. Yamada,  Chou-Hsun Yang,  Kun Yao,  
 S. Yeganeh,  S. R. Yost,  A. Zech,  F. Zeller,  Igor Ying Zhang,  
 Xing Zhang,  Yu Zhang,  D. Zuev,  A. Aspuru-Guzik,  A. T. Bell,  
 N. A. Besley,  K. B. Bravaya,  B. R. Brooks,  D. Casanova,  Jeng-Da Chai,  
 Hsing-Ta Chen,  S. Coriani,  C. J. Cramer,  A. E. DePrince, III,  
 R. A. DiStasio Jr.,  A. Dreuw,  B. D. Dunietz,  T. R. Furlani,  
 W. A. Goddard III,  S. Grimme,  S. Hammes-Schiffer,  T. Head-Gordon,  
 W. J. Hehre,  Chao-Ping Hsu,  T.-C. Jagau,  Yousung Jung,  A. Klamt,  
 Jing Kong,  D. S. Lambrecht,  Xiangyuan Li,  WanZhen Liang,  N. J. Mayhall,  
 C. W. McCurdy,  J. B. Neaton,  T. Neudecker,  C. Ochsenfeld,  
 J. A. Parkhill,  R. Peverati,  V. A. Rassolov,  Haisheng Ren,  Yihan Shao,  
 L. V. Slipchenko,  R. P. Steele,  J. E. Subotnik,  A. J. W. Thom,  
 A. Tkatchenko,  D. G. Truhlar,  T. Van Voorhis,  Fan Wang,  
 T. A. Wesolowski,  K. B. Whaley,  H. L. Woodcock III,  P. M. Zimmerman,  
 S. Faraji,  P. M. W. Gill,  M. Head-Gordon,  J. M. Herbert,  A. I. Krylov

 Contributors to earlier versions of Q-Chem not listed above: 
 R. D. Adamson,  B. Austin,  R. Baer,  J. Baker,  G. J. O. Beran,  
 K. Brandhorst,  S. T. Brown,  E. F. C. Byrd,  Arup K. Chakraborty,  
 G. K. L. Chan,  Chun-Min Chang,  Yunqing Chen,  C.-L. Cheng,  
 Siu Hung Chien,  D. M. Chipman,  D. L. Crittenden,  H. Dachsel,  
 R. J. Doerksen,  A. D. Dutoi,  R. G. Edgar,  J. Fosso-Tande,  
 L. Fusti-Molnar,  D. Ghosh,  A. Ghysels,  A. Golubeva-Zadorozhnaya,  
 J. Gonthier,  M. S. Gordon,  S. R. Gwaltney,  G. Hawkins,  J. E. Herr,  
 A. Heyden,  S. Hirata,  E. G. Hohenstein,  G. Kedziora,  F. J. Keil,  
 C. Kelley,  Jihan Kim,  R. A. King,  R. Z. Khaliullin,  P. P. Korambath,  
 W. Kurlancheek,  A. Laurent,  A. M. Lee,  M. S. Lee,  S. V. Levchenko,  
 Ching Yeh Lin,  D. Liotard,  E. Livshits,  R. C. Lochan,  I. Lotan,  
 L. A. Martinez-Martinez,  P. E. Maslen,  N. Nair,  D. P. O'Neill,  
 D. Neuhauser,  E. Neuscamman,  C. M. Oana,  R. Olivares-Amaya,  R. Olson,  
 T. M. Perrine,  B. Peters,  P. A. Pieniazek,  A. Prociuk,  Y. M. Rhee,  
 J. Ritchie,  M. A. Rohrdanz,  E. Rosta,  N. J. Russ,  H. F. Schaefer III,  
 M. W. Schmidt,  N. E. Schultz,  S. Sharma,  N. Shenvi,  C. D. Sherrill,  
 A. C. Simmonett,  A. Sodt,  T. Stein,  D. Stuck,  K. S. Thanthiriwatte,  
 V. Vanovschi,  L. Vogt,  Tao Wang,  A. Warshel,  M. A. Watson,  
 C. F. Williams,  Q. Wu,  X. Xu,  Jun Yang,  W. Zhang,  Yan Zhao

   Please cite Q-Chem as follows:
  "Software for the frontiers of quantum chemistry:
   An overview of developments in the Q-Chem 5 package"
   J. Chem. Phys. 155, 084801 (2021)
   https://doi.org/10.1063/5.0055522 (open access)

 Q-Chem 6.0.1 for Intel X86 EM64T Linux

 Parts of Q-Chem use Armadillo 9.900.5 (Nocturnal Misbehaviour).
 http://arma.sourceforge.net/

 Q-Chem begins on Thu Oct 26 14:42:33 2023  

 Host: atlas-004
0

     Scratch files written to ./qchem18815//
 Processing $rem in /scratch/abel/SOFTWARE/qchem/config/preferences:
 Processing $rem in /dipc/acebg/.qchemrc:

 Checking the input file for inconsistencies... 	...done.

--------------------------------------------------------------
User input:
--------------------------------------------------------------
$comment
 RAS-SF CALCULATION
$end

$molecule
 READ nh.molecule
$end

$rem
!**CALCULATION TYPE***     
JOBTYPE            sp    
EXCHANGE           HF
CORRELATION        RASCI    !RASCI=Casanova; RASCI2=Zimmerman
BASIS              def2-TZVP

!***SCF REFERENCE***
!SKIP_SCFMAN        FALSE
UNRESTRICTED       FALSE
!SCF_GUESS          core
!SCF_GUESS_MIX      FALSE
!SCF_GUESS_ALWAYS   FALSE
MAX_SCF_CYCLES     500
!SCF_CONVERGENCE    8
SCF_ALGORITHM      DIIS_GDM !DIIS,DM,DIIS_DM,GDM,DIIS_GDM,GD

!SYMMETRY           TRUE !use of symmetry for calculating integrals
!SYM_IGNORE         FALSE !turn off using symmetry
!SYM_TOL            5 !tolerance for determining point group

!THRESH             14
SCF_FINAL_PRINT     1 !0,1,2,3

!****RAS-SF****
RAS_ROOTS          20       !number of RAS-CI roots to be computed
SET_ITER           150     !number of iterations in RASCI
RAS_ELEC           8       !number of electrons in RAS2
!RAS_ELEC_ALPHA     5       !spin-α electrons in RAS2 
!RAS_ELEC_BETA      3      !spin-β electrons in RAS2

RAS_ACT            6       !number of orbitals in RAS2 
RAS_ACT_ORB   [1, 2, 3, 4, 5, 6]  !user-selected RAS2 orbitals
RAS_OCC            0       !number of orbitals in RAS1
!N_FROZEN_CORE      0     !Number of frozen core orbitals
!N_FROZEN_VIRTUAL   0      !Number of frozen virtual orbitals

RAS_DO_HOLE        TRUE   !presence of hole excitations in RAS-CI wave function
RAS_DO_PART        TRUE   !presence of particle excitations
!RAS_AMPL_PRINT     10     !threshold (×10 2 ) for the CI amplitudes

!RAS_GUESS_CS       0      !number of closed shell guess conﬁgurations
RAS_SPIN_MULT      0      !spin multiplicity: 0=any, 2n+1=defined 
!RAS_SRDFT          FALSE  !short-range density functional RAS-CI
!RAS_NFRAG          0     !fragments of excitation analysis in RASCI

RAS_PRINT          2      !level of information
RAS_NATORB         TRUE   !computation of the natural orbital occupancies
!RAS_NATORB_STATE  0      !Saves NO of i RAS computed state in .fchk ﬁle
!RAS_FOD            TRUE

!****RAS-SOC****
CALC_SOC           TRUE   !calculate SOC for EOM-CC, RAS-CI, ADC, TDDFT/TDA and TDDFT
!RAS_SOC_2E        TRUE   !two-electron mean-ﬁeld contribution, default=true
RAS_SOC_SYM_DENS   TRUE   !averaging of α and β densities

!****MEMORY****
MEM_TOTAL          60000 !Default 2000 MB
MEM_STATIC         16000  !Default 64 MB

!**Molecular Properties and Analysis **                                                                                          
!GUI                2
STATE_ANALYSIS     TRUE
MOLDEN_FORMAT      TRUE
PRINT_ORBITALS     20
$end                                           

--------------------------------------------------------------
 ----------------------------------------------------------------
             Standard Nuclear Orientation (Angstroms)
    I     Atom           X                Y                Z
 ----------------------------------------------------------------
    1      N       0.0000000000     0.0000000000    -0.1295250000
    2      H       0.0000000000     0.0000000000     0.9066750000
 ----------------------------------------------------------------
 Molecular Point Group                 C2v   NOp =  4
 Largest Abelian Subgroup              C2v   NOp =  4
 Nuclear Repulsion Energy =           3.57483157 hartrees
 There are        5 alpha and        3 beta electrons
 Requested basis set is def2-TZVP
 There are 15 shells and 37 basis functions

 Q-Chem warning in module libmdc/get_mega.C, line 167:

 Allowed MEM_STATIC has been capped at MEM_STATIC=8191.
 Reduce the value of MEM_STATIC to silence this warning.


 Total QAlloc Memory Limit  60000 MB
 Mega-Array Size      8007 MB
 MEM_STATIC part      8191 MB


                       Distance Matrix (Angstroms)
             N (  1)
   H (  2)  1.036200
 
 A cutoff of  1.0D-09 yielded    120 shell pairs
 There are       756 function pairs (       990 Cartesian)
 Smallest overlap matrix eigenvalue = 7.92E-03

 Scale SEOQF with 1.000000e+00/1.000000e+00/1.000000e+00

 Standard Electronic Orientation quadrupole field applied
 Nucleus-field energy     =    -0.0000000010 hartrees
 Guess from superposition of atomic densities
 Warning:  Energy on first SCF cycle will be non-variational
 SAD guess density has 8.000000 electrons

 -----------------------------------------------------------------------
  General SCF calculation program by
  Eric Jon Sundstrom, Paul Horn, Yuezhi Mao, Dmitri Zuev, Alec White,
  David Stuck, Shaama M.S., Shane Yost, Joonho Lee, David Small,
  Daniel Levine, Susi Lehtola, Hugh Burton, Evgeny Epifanovsky,
  Bang C. Huynh
 -----------------------------------------------------------------------
 Hartree-Fock
 Orthonormalizing orbitals
 A restricted open-shell SCF calculation will be
 performed using DIIS, GDM
 SCF converges when RMS gradient is below 1.0e-05
 ---------------------------------------
  Cycle       Energy         DIIS error
 ---------------------------------------
    1     -54.8699534210      6.45e-02  
    2     -54.9131240494      6.02e-02  
    3     -54.9744575084      3.70e-03  Done DIIS. Switching to GDM
 ---------------------------------------
  Cycle       Energy        RMS Gradient
 ---------------------------------------
    1     -54.9744575084      1.67e-02   Normal BFGS step
    2     -54.9749884804      6.25e-03   Normal BFGS step
    3     -54.9750576435      8.62e-04   Normal BFGS step
    4     -54.9750599612      1.88e-04   Normal BFGS step
    5     -54.9750600510      3.41e-05   Normal BFGS step
    6     -54.9750600567      4.03e-06  Convergence criterion met
The disked orbital energies are calculated using alpha and beta Focks
 ---------------------------------------
 Alpha HF Exchange    Energy =  -4.00407548233493
 Beta HF Exchange     Energy =  -2.91824887140464
 Nuclear Attraction   Energy =   0.00000000000000
 One-Electron (alpha) Energy = -46.02190963520362
 One-Electron (beta)  Energy = -35.60131364711695
 Total Coulomb        Energy =  29.99565600770182
 Final Alpha MO Eigenvalues
            1           2           3           4           5           6
    1 -15.6370037  -1.1538935  -0.5926888  -0.5374482  -0.5374482   0.1438755
            7           8           9          10          11          12
    1   0.4341771   0.4563990   0.4563990   0.4767601   0.6361648   1.1444744
           13          14          15          16          17          18
    1   1.1444744   1.1977206   1.1977206   1.4711100   2.1048373   2.1048373
           19          20          21          22          23          24
    1   2.1980371   2.2468563   2.3610515   2.3610515   2.7057602   3.1922195
           25          26          27          28          29          30
    1   4.2013001   4.2013001   4.1947021   4.1947021   4.5391586   4.5391586
           31          32          33          34          35          36
    1   4.7772057   4.7772057   4.9115023   4.9115023   5.1102655   5.7963180
           37
    1  32.4905268
 Final Beta MO Eigenvalues
            1           2           3           4           5           6
    1 -15.5822332  -0.9289305  -0.5069138   0.1828699   0.1828699   0.1567546
            7           8           9          10          11          12
    1   0.4629833   0.5347379   0.5347379   0.5058088   0.6681776   1.2199019
           13          14          15          16          17          18
    1   1.2199019   1.3364972   1.3364972   1.5160048   2.1427876   2.1427876
           19          20          21          22          23          24
    1   2.2508999   2.2792154   2.4846000   2.4846000   2.7363294   3.2206018
           25          26          27          28          29          30
    1   4.2738926   4.2738926   4.2957215   4.2957215   4.5995386   4.5995386
           31          32          33          34          35          36
    1   4.9324798   4.9324798   4.9897645   4.9897645   5.1715901   5.8267965
           37
    1  32.5228099
 SCF time:   CPU 0.95s  wall 4.00s 
<S^2> =          2.000000000
 SCF   energy in the final basis set =      -54.9750600567
 Total energy in the final basis set =      -54.9750600567
  
     ##========================================##
     ||                                        ||
     ||              R A S M A N 2             ||
     ||________________________________________||
     ||                                        ||
     ||  Author:                               ||
     ||                                        ||
     ||        David Casanova (2010)           ||
     ||                                        ||
     ##========================================##
  
Setting single-point xc-functionals (if necessary)

  ***************************************************
  *  RAS-CI Dimensions:                             *
  *                                                 *
  *  Active Elec.:   8 ( 4, 4)   Active Orb.:   6   *
  *  Doubly Occ. :   0           Doubly Vir.:  31   *
  *  Frozen Occ. :   0           Frozen Vir.:   0   *
  *                                                 *
  *  Total CI configurations:     18825             * 
  *    Active configurations:       225             * 
  *      Hole configurations:         0             * 
  *  Particle configurations:     18600             * 
  *                                                 *
  *   Requested states:       20                    *
  *  Spin multiplicity: Any multiplicity            *
  *                                                 *
  ***************************************************
-----------------------------------------
    Memory requirements of RASCI

 Each CI-vector requires      0.14 MiB 
 Max. subspace vectors           3000      

 Reduced Lists                0.00 MiB 
 Excitation Lists             0.00 MiB 
 Excitation Lists Sign        0.00 MiB 
 CI-space (Max)             502.43 MiB 
 Integrals                    0.89 MiB 
 Memory required (Max)      502.43 MiB 
 Memory available          7811.55 MiB 

    Disk requirements of RASCI

 Fock matrix                  0.02 MiB 
 2-electron integrals         1.18 MiB 
 CI-space                   861.74 MiB 
 Disk required              862.94 MiB 
-----------------------------------------
  
RAS1 HF-like energy:              3.5748315717
 Computing integrals
 Computing J and K matrices
 Computing addressing
 Making amplitude guesses
 
Direct CI diagonalization
 ---------------------------------------------------
 Iter    Rts Conv    Rts Left    Ttl Dev     Max Dev
 ---------------------------------------------------
   1         0          20      3.107318    0.338490
   2         0          20     10.484399    0.892189
   3         0          20      8.225286    0.739383
   4         0          20      4.034956    0.418405
   5         0          20      3.868366    0.270201
   6         0          20      4.319851    0.352809
   7         0          20      2.494751    0.219352
   8         0          20      1.929067    0.228423
   9         0          20      2.660058    0.522220
  10         0          20      2.765243    0.276614
  11         0          20      1.816489    0.171926
  12         0          20      1.664868    0.173586
  13         0          20      1.399971    0.231428
  14         0          20      1.225462    0.165851
  15         0          20      1.249231    0.237572
  16         0          20      0.651077    0.092296
  17         0          20      0.702144    0.276598
  18         1          19      0.619165    0.230852
  19         1          19      0.372987    0.096782
  20         0          20      0.569540    0.308291
  21         1          19      0.477720    0.229800
  22         2          18      0.213638    0.109732
  23         4          16      0.124408    0.067604
  24         8          12      0.081553    0.040426
  25        12           8      0.055943    0.031211
  26        14           6      0.036889    0.027345
  27        15           5      0.097475    0.056068
  28        15           5      0.067862    0.052009
  29        16           4      0.042395    0.027947
  30        16           4      0.026356    0.017400
  31        15           5      0.091941    0.073230
  32        16           4      0.090058    0.064890
  33        16           4      0.074573    0.059211
  34        16           4      0.050790    0.038923
  35        16           4      0.045659    0.035503
  36        17           3      0.020004    0.014083
  37        17           3      0.016991    0.012259
  38        17           3      0.021503    0.018111
  39        17           3      0.008370    0.006387
  40        17           3      0.005089    0.003669
  41        17           3      0.002945    0.001960
  42        17           3      0.002472    0.001627
  43        17           3      0.001750    0.001315
  44        17           3      0.001176    0.000919
  45        17           3      0.001277    0.000900
  46        17           3      0.000826    0.000538
  47        17           3      0.000634    0.000358
  48        18           2      0.000321    0.000175
  49        18           2      0.000252    0.000141
  50        18           2      0.000092    0.000046
  51        19           1      0.000041    0.000017
  52        19           1      0.000033    0.000013
  53        19           1      0.000026    0.000009
  54        19           1      0.000024    0.000009
  55        19           1      0.252754    0.252732
  56        19           1      0.127203    0.127190
  57        19           1      0.063605    0.063595
  58        19           1      0.039374    0.039362
  59        18           2      0.503524    0.429478
  60        18           2      0.208175    0.152943
  61        18           2      0.085831    0.059404
  62        18           2      0.046159    0.032297
  63        18           2      0.016952    0.011971
  64        18           2      0.008629    0.006296
  65        18           2      0.007067    0.005305
  66        18           2      0.009625    0.007536
  67        17           3      0.126971    0.119237
  68        17           3      0.052638    0.048794
  69        16           4      0.263703    0.237234
  70        16           4      0.237317    0.204734
  71        16           4      0.134677    0.125444
  72        16           4      0.235470    0.127736
  73        16           4      0.151759    0.091408
  74        16           4      0.063028    0.043622
  75        15           5      0.198498    0.123668
  76        15           5      0.167595    0.084262
  77        15           5      0.114906    0.069971
  78        15           5      0.069093    0.037165
  79        15           5      0.075028    0.041255
  80        15           5      0.159903    0.083483
  81        15           5      0.122583    0.048886
  82        15           5      0.064655    0.031428
  83        15           5      0.023604    0.010124
  84        15           5      0.017768    0.007147
  85        15           5      0.009525    0.004609
  86        17           3      0.005344    0.002736
  87        17           3      0.004908    0.002642
  88        17           3      0.010004    0.007503
  89        17           3      0.057488    0.056269
  90        17           3      0.046187    0.044849
  91        17           3      0.031924    0.031500
  92        17           3      0.031030    0.030793
  93        17           3      0.050128    0.049843
  94        17           3      0.035295    0.035127
  95        17           3      0.019099    0.018981
  96        17           3      0.013881    0.013808
  97        17           3      0.008229    0.008185
  98        16           4      0.330242    0.197459
  99        18           2      0.167324    0.163934
 100        18           2      0.118754    0.116155
 101        18           2      0.062806    0.061154
 102        18           2      0.027975    0.026957
 103        18           2      0.011359    0.010884
 104        18           2      0.005321    0.005074
 105        18           2      0.003201    0.002987
 106        18           2      0.000849    0.000744
 107        18           2      0.000723    0.000635
 108        18           2      0.000243    0.000194
 109        18           2      0.000122    0.000091
 110        18           2      0.000057    0.000033
 111        19           1      0.000041    0.000023
 112        19           1      0.000026    0.000010
 113        19           1      0.000028    0.000013
 114        20           0      0.000020    0.000006    Roots Converged
 ---------------------------------------------------
   
**************************************************
 RAS-CI total energy for state   1:   -441.237348213435
  Excitation energy (eV) =  0.000000000000
  State symmetry: A1    (C2v      )
  <S^2>      :  2.0000
  Dipole Moment:   -0.0000 X    -0.0000 Y    70.9302 Z
 NATURAL OCCUPATION NUMBERS (higher than 1.0E-05)
            1           2           3           4           5           6
    1   1.9999994   1.9999981   1.9997256   1.0000011   0.9999885   0.0001392
            7
    1   0.0001392
 Created directory ./qchem18815/plots

  Amplitudes : 
  
 | HOLE  | ALPHA  | BETA   | PART  |    AMPLITUDE 
--------------------------------------------------
 |       | 111000 | 111001 |  37   |    -1.6384979951528E-01
 |       | 111001 | 111000 |  37   |     1.6384979931448E-01
 |       | 110001 | 111001 |  37   |    -3.4256024910415E-01
 |       | 111001 | 110001 |  37   |     3.4256024910436E-01
 |       | 101001 | 111001 |  37   |     5.9556448535126E-01
 |       | 111001 | 101001 |  37   |    -5.9556448539722E-01
--------------------------------------------------
*** Contributions RASCI wfn    Active:   0.00
                                 Hole:   0.00
                                 Part: 100.00

      Mulliken population analysis 
 ---------------------------------------------------
   Atom    Charge (a.u.)   Spin (a.u.)  
 ---------------------------------------------------
   1  N  -57.023118       -0.000000 
   2  H  -39.353743        0.000000 
 ---------------------------------------------------
   Sum:  -96.376861        0.000000 
 ---------------------------------------------------
 
  
 NATURAL OCCUPATION NUMBERS (higher than 1.0E-05)
            1           2           3           4           5           6
    1   1.9999994   1.9999981   1.9997256   1.0000011   0.9999885   0.0001392
            7
    1   0.0001392
  
*** Unpaired Electrons
 Yamaguchi Nd:         2.00
 Head-Gordon Nu:       2.00
 Head-Gordon Nu_nl:    2.00
  
**************************************************
 RAS-CI total energy for state   2:   -440.388109777352
  Excitation energy (eV) = 23.108953592644
  State symmetry: B2    (C2v      )
  <S^2>      :  6.0000
  Dipole Moment:   -0.0000 X     0.0000 Y    71.4257 Z
  Trans. Moment:   -0.0000 X     0.0000 Y     0.0000 Z
  Strength   :  0.000000
  Natural transition orbitals ( 1 -> 2 ):
   e-/hole pair  1:  ampl =  0.816437 ( 66.7%)   [6 : 7]
   e-/hole pair  2:  ampl =  0.006711 (  0.0%)   [5 : 8]
   Sum of square amplitudes: 0.67

 NATURAL OCCUPATION NUMBERS (higher than 1.0E-05)
            1           2           3           4           5           6
    1   1.9999996   1.9999985   1.0000006   0.9999992   0.9999986   0.9999960

  Amplitudes : 
  
 | HOLE  | ALPHA  | BETA   | PART  |    AMPLITUDE 
--------------------------------------------------
 |       | 100011 | 111001 |  37   |    -3.6605366281401E-01
 |       | 111001 | 100011 |  37   |    -3.6605366281543E-01
 |       | 001011 | 111001 |  37   |     1.3706042911167E-01
 |       | 111001 | 001011 |  37   |     1.3706042911192E-01
 |       | 101001 | 110011 |  37   |     3.6605366282613E-01
 |       | 110011 | 101001 |  37   |     3.6605366282529E-01
 |       | 110001 | 101011 |  37   |    -3.6605366281810E-01
 |       | 101011 | 110001 |  37   |    -3.6605366281867E-01
 |       | 011001 | 101011 |  37   |    -1.3706042910629E-01
 |       | 101011 | 011001 |  37   |    -1.3706042910677E-01
 |       | 101001 | 011011 |  37   |     1.3706042910568E-01
 |       | 011011 | 101001 |  37   |     1.3706042910504E-01
--------------------------------------------------
*** Contributions RASCI wfn    Active:   0.00
                                 Hole:   0.00
                                 Part: 100.00

      Mulliken population analysis 
 ---------------------------------------------------
   Atom    Charge (a.u.)   Spin (a.u.)  
 ---------------------------------------------------
   1  N  -57.055606       -0.000000 
   2  H  -39.314422       -0.000000 
 ---------------------------------------------------
   Sum:  -96.370028       -0.000000 
 ---------------------------------------------------
 
  
 NATURAL OCCUPATION NUMBERS (higher than 1.0E-05)
            1           2           3           4           5           6
    1   1.9999996   1.9999985   1.0000006   0.9999992   0.9999986   0.9999960
  
*** Unpaired Electrons
 Yamaguchi Nd:         4.00
 Head-Gordon Nu:       4.00
 Head-Gordon Nu_nl:    4.00
  
**************************************************
 RAS-CI total energy for state   3:   -440.388109772132
  Excitation energy (eV) = 23.108953734684
  State symmetry: B1    (C2v      )
  <S^2>      :  6.0000
  Dipole Moment:   -0.0000 X    -0.0000 Y    71.4257 Z
  Trans. Moment:   -0.0000 X    -0.0000 Y    -0.0000 Z
  Strength   :  0.000000
  Natural transition orbitals ( 1 -> 3 ):
   e-/hole pair  1:  ampl =  0.816437 ( 66.7%)   [6 : 7]
   e-/hole pair  2:  ampl =  0.006711 (  0.0%)   [5 : 8]
   Sum of square amplitudes: 0.67

 NATURAL OCCUPATION NUMBERS (higher than 1.0E-05)
            1           2           3           4           5           6
    1   1.9999996   1.9999985   1.0000006   0.9999992   0.9999986   0.9999960

  Amplitudes : 
  
 | HOLE  | ALPHA  | BETA   | PART  |    AMPLITUDE 
--------------------------------------------------
 |       | 100101 | 111001 |  37   |     3.6605367009005E-01
 |       | 111001 | 100101 |  37   |     3.6605367009003E-01
 |       | 001101 | 111001 |  37   |    -1.3706043331948E-01
 |       | 111001 | 001101 |  37   |    -1.3706043331947E-01
 |       | 101001 | 110101 |  37   |    -3.6605367021031E-01
 |       | 110101 | 101001 |  37   |    -3.6605367021032E-01
 |       | 110001 | 101101 |  37   |     3.6605366992395E-01
 |       | 101101 | 110001 |  37   |     3.6605366992393E-01
 |       | 011001 | 101101 |  37   |     1.3706043375685E-01
 |       | 101101 | 011001 |  37   |     1.3706043375684E-01
 |       | 101001 | 011101 |  37   |    -1.3706043312972E-01
 |       | 011101 | 101001 |  37   |    -1.3706043312974E-01
--------------------------------------------------
*** Contributions RASCI wfn    Active:   0.00
                                 Hole:   0.00
                                 Part: 100.00

      Mulliken population analysis 
 ---------------------------------------------------
   Atom    Charge (a.u.)   Spin (a.u.)  
 ---------------------------------------------------
   1  N  -57.055606        0.000000 
   2  H  -39.314422        0.000000 
 ---------------------------------------------------
   Sum:  -96.370028        0.000000 
 ---------------------------------------------------
 
  
 NATURAL OCCUPATION NUMBERS (higher than 1.0E-05)
            1           2           3           4           5           6
    1   1.9999996   1.9999985   1.0000006   0.9999992   0.9999986   0.9999960
  
*** Unpaired Electrons
 Yamaguchi Nd:         4.00
 Head-Gordon Nu:       4.00
 Head-Gordon Nu_nl:    4.00
  
**************************************************
 RAS-CI total energy for state   4:   -437.666121705283
  Excitation energy (eV) = 97.178017549862
  State symmetry: B2    (C2v      )
  <S^2>      :  2.0000
  Dipole Moment:   -0.0000 X    -0.0000 Y    71.3183 Z
  Trans. Moment:    0.0000 X    -0.4130 Y    -0.0000 Z
  Strength   :  0.406074
  Natural transition orbitals ( 1 -> 4 ):
   e-/hole pair  1:  ampl =  0.873940 ( 76.4%)   [6 : 7]
   e-/hole pair  2:  ampl =  0.007089 (  0.0%)   [5 : 8]
   Sum of square amplitudes: 0.76

 NATURAL OCCUPATION NUMBERS (higher than 1.0E-05)
            1           2           3           4           5           6
    1   1.9999992   1.9999916   1.1339012   0.9999983   0.9999881   0.8661039

  Amplitudes : 
  
 | HOLE  | ALPHA  | BETA   | PART  |    AMPLITUDE 
--------------------------------------------------
 |       | 100011 | 111001 |  37   |    -3.8612877496960E-01
 |       | 111001 | 100011 |  37   |     3.8612877496840E-01
 |       | 001011 | 111001 |  37   |     1.4600811569155E-01
 |       | 111001 | 001011 |  37   |    -1.4600811569109E-01
 |       | 110001 | 110011 |  37   |     3.2110418661999E-01
 |       | 110011 | 110001 |  37   |    -3.2110418662000E-01
 |       | 101001 | 110011 |  37   |    -2.5555697705695E-01
 |       | 110011 | 101001 |  37   |     2.5555697705815E-01
 |       | 110001 | 101011 |  37   |    -1.6549852117971E-01
 |       | 101011 | 110001 |  37   |     1.6549852117854E-01
 |       | 101001 | 101011 |  37   |    -2.3773379971822E-01
 |       | 101011 | 101001 |  37   |     2.3773379971823E-01
 |       | 011001 | 101011 |  37   |    -1.0567847018145E-01
 |       | 101011 | 011001 |  37   |     1.0567847018101E-01
 |       | 101001 | 011011 |  37   |    -1.3891002766241E-01
 |       | 011011 | 101001 |  37   |     1.3891002766286E-01
--------------------------------------------------
*** Contributions RASCI wfn    Active:   0.00
                                 Hole:   0.00
                                 Part: 100.00

      Mulliken population analysis 
 ---------------------------------------------------
   Atom    Charge (a.u.)   Spin (a.u.)  
 ---------------------------------------------------
   1  N  -57.105288        0.000000 
   2  H  -39.265257        0.000000 
 ---------------------------------------------------
   Sum:  -96.370545        0.000000 
 ---------------------------------------------------
 
  
 NATURAL OCCUPATION NUMBERS (higher than 1.0E-05)
            1           2           3           4           5           6
    1   1.9999992   1.9999916   1.1339012   0.9999983   0.9999881   0.8661039
  
*** Unpaired Electrons
 Yamaguchi Nd:         3.96
 Head-Gordon Nu:       3.73
 Head-Gordon Nu_nl:    3.93
  
**************************************************
 RAS-CI total energy for state   5:   -437.666121700002
  Excitation energy (eV) = 97.178017693541
  State symmetry: B1    (C2v      )
  <S^2>      :  2.0000
  Dipole Moment:   -0.0000 X    -0.0000 Y    71.3183 Z
  Trans. Moment:   -0.4130 X    -0.0000 Y    -0.0000 Z
  Strength   :  0.406074
  Natural transition orbitals ( 1 -> 5 ):
   e-/hole pair  1:  ampl =  0.873940 ( 76.4%)   [6 : 7]
   e-/hole pair  2:  ampl =  0.007089 (  0.0%)   [5 : 8]
   Sum of square amplitudes: 0.76

 NATURAL OCCUPATION NUMBERS (higher than 1.0E-05)
            1           2           3           4           5           6
    1   1.9999992   1.9999916   1.1339012   0.9999983   0.9999881   0.8661039

  Amplitudes : 
  
 | HOLE  | ALPHA  | BETA   | PART  |    AMPLITUDE 
--------------------------------------------------
 |       | 100101 | 111001 |  37   |    -3.8612877492691E-01
 |       | 111001 | 100101 |  37   |     3.8612877492659E-01
 |       | 001101 | 111001 |  37   |     1.4600811566641E-01
 |       | 111001 | 001101 |  37   |    -1.4600811566657E-01
 |       | 110001 | 110101 |  37   |     3.2110418664983E-01
 |       | 110101 | 110001 |  37   |    -3.2110418664998E-01
 |       | 101001 | 110101 |  37   |    -2.5555697707524E-01
 |       | 110101 | 101001 |  37   |     2.5555697707536E-01
 |       | 110001 | 101101 |  37   |    -1.6549852119485E-01
 |       | 101101 | 110001 |  37   |     1.6549852119499E-01
 |       | 101001 | 101101 |  37   |    -2.3773379971575E-01
 |       | 101101 | 101001 |  37   |     2.3773379971584E-01
 |       | 011001 | 101101 |  37   |    -1.0567847017401E-01
 |       | 101101 | 011001 |  37   |     1.0567847017421E-01
 |       | 101001 | 011101 |  37   |    -1.3891002769012E-01
 |       | 011101 | 101001 |  37   |     1.3891002768999E-01
--------------------------------------------------
*** Contributions RASCI wfn    Active:   0.00
                                 Hole:   0.00
                                 Part: 100.00

      Mulliken population analysis 
 ---------------------------------------------------
   Atom    Charge (a.u.)   Spin (a.u.)  
 ---------------------------------------------------
   1  N  -57.105288       -0.000000 
   2  H  -39.265257       -0.000000 
 ---------------------------------------------------
   Sum:  -96.370545       -0.000000 
 ---------------------------------------------------
 
  
 NATURAL OCCUPATION NUMBERS (higher than 1.0E-05)
            1           2           3           4           5           6
    1   1.9999992   1.9999916   1.1339012   0.9999983   0.9999881   0.8661039
  
*** Unpaired Electrons
 Yamaguchi Nd:         3.96
 Head-Gordon Nu:       3.73
 Head-Gordon Nu_nl:    3.93
  
**************************************************
 RAS-CI total energy for state   6:   -437.245302507667
  Excitation energy (eV) = ***************
  State symmetry: A2    (C2v      )
  <S^2>      :  6.0000
  Dipole Moment:   -0.0000 X    -0.0000 Y    71.8236 Z
  Trans. Moment:    0.0000 X    -0.0000 Y     0.0000 Z
  Strength   :  0.000000
  Natural transition orbitals ( 1 -> 6 ):
   e-/hole pair  1:  ampl =  0.006608 (  0.0%)   [6 : 7]
   e-/hole pair  2:  ampl =  0.006608 (  0.0%)   [5 : 8]
   Sum of square amplitudes: 0.00

 NATURAL OCCUPATION NUMBERS (higher than 1.0E-05)
            1           2           3           4           5           6
    1   1.9999996   1.9999596   1.0000002   0.9999988   0.9999988   0.9999957
            7
    1   0.0000430

  Amplitudes : 
  
 | HOLE  | ALPHA  | BETA   | PART  |    AMPLITUDE 
--------------------------------------------------
 |       | 100011 | 110101 |  37   |     3.1040964557023E-01
 |       | 110101 | 100011 |  37   |     3.1040947725529E-01
 |       | 001011 | 110101 |  37   |    -1.1706731578069E-01
 |       | 110101 | 001011 |  37   |    -1.1706751599591E-01
 |       | 100101 | 110011 |  37   |    -3.1040983677966E-01
 |       | 110011 | 100101 |  37   |    -3.1040977790752E-01
 |       | 001101 | 110011 |  37   |     1.1706688689527E-01
 |       | 110011 | 001101 |  37   |     1.1706822873937E-01
 |       | 100011 | 101101 |  37   |     1.3227798510671E-01
 |       | 101101 | 100011 |  37   |     1.3227780103570E-01
 |       | 100101 | 101011 |  37   |    -1.3227783059184E-01
 |       | 101011 | 100101 |  37   |    -1.3227808747593E-01
 |       | 110001 | 100111 |  37   |     3.1040988588369E-01
 |       | 100111 | 110001 |  37   |     3.1040930196719E-01
 |       | 101001 | 100111 |  37   |     1.3227715422061E-01
 |       | 100111 | 101001 |  37   |     1.3227767409682E-01
 |       | 011001 | 100111 |  37   |     1.4053428632884E-01
 |       | 100111 | 011001 |  37   |     1.4053357821103E-01
 |       | 100011 | 011101 |  37   |     1.4031517390435E-01
 |       | 011101 | 100011 |  37   |     1.4031441979671E-01
 |       | 100101 | 011011 |  37   |    -1.4031451314320E-01
 |       | 011011 | 100101 |  37   |    -1.4031493416840E-01
 |       | 110001 | 001111 |  37   |    -1.1684832226216E-01
 |       | 001111 | 110001 |  37   |    -1.1684914322952E-01
--------------------------------------------------
*** Contributions RASCI wfn    Active:   0.00
                                 Hole:   0.00
                                 Part: 100.00

      Mulliken population analysis 
 ---------------------------------------------------
   Atom    Charge (a.u.)   Spin (a.u.)  
 ---------------------------------------------------
   1  N  -57.129973       -0.000007 
   2  H  -39.232554       -0.000003 
 ---------------------------------------------------
   Sum:  -96.362527       -0.000010 
 ---------------------------------------------------
 
  
 NATURAL OCCUPATION NUMBERS (higher than 1.0E-05)
            1           2           3           4           5           6
    1   1.9999996   1.9999596   1.0000002   0.9999988   0.9999988   0.9999957
            7
    1   0.0000430
  
*** Unpaired Electrons
 Yamaguchi Nd:         4.00
 Head-Gordon Nu:       4.00
 Head-Gordon Nu_nl:    4.00
  
**************************************************
 RAS-CI total energy for state   7:   -430.687800147856
  Excitation energy (eV) = ***************
  State symmetry: A2    (C2v      )
  <S^2>      :  2.0000
  Dipole Moment:   -0.0000 X    -0.0000 Y    71.8297 Z
  Trans. Moment:    0.0000 X     0.0000 Y    -0.0000 Z
  Strength   :  0.000000
  Natural transition orbitals ( 1 -> 7 ):
   e-/hole pair  1:  ampl =  0.008095 (  0.0%)   [6 : 7]
   e-/hole pair  2:  ampl =  0.008095 (  0.0%)   [5 : 8]
   Sum of square amplitudes: 0.00

 NATURAL OCCUPATION NUMBERS (higher than 1.0E-05)
            1           2           3           4           5           6
    1   1.9999995   1.9999625   1.0000038   0.9999975   0.9999975   0.9999834
            7
    1   0.0000394

  Amplitudes : 
  
 | HOLE  | ALPHA  | BETA   | PART  |    AMPLITUDE 
--------------------------------------------------
 |       | 100011 | 110101 |  37   |    -3.7992877818846E-01
 |       | 110101 | 100011 |  37   |     3.7992877893669E-01
 |       | 001011 | 110101 |  37   |     1.4327000686632E-01
 |       | 110101 | 001011 |  37   |    -1.4327000720683E-01
 |       | 100101 | 110011 |  37   |    -3.7992877663078E-01
 |       | 110011 | 100101 |  37   |     3.7992877853061E-01
 |       | 001101 | 110011 |  37   |     1.4327000713245E-01
 |       | 110011 | 001101 |  37   |    -1.4327000767515E-01
 |       | 100011 | 101101 |  37   |    -1.6221270500156E-01
 |       | 101101 | 100011 |  37   |     1.6221270251877E-01
 |       | 100101 | 101011 |  37   |    -1.6221270688392E-01
 |       | 101011 | 100101 |  37   |     1.6221270307587E-01
 |       | 100011 | 011101 |  37   |    -1.7180188269908E-01
 |       | 011101 | 100011 |  37   |     1.7180188310337E-01
 |       | 100101 | 011011 |  37   |    -1.7180188318626E-01
 |       | 011011 | 100101 |  37   |     1.7180188269665E-01
--------------------------------------------------
*** Contributions RASCI wfn    Active:   0.00
                                 Hole:   0.00
                                 Part: 100.00

      Mulliken population analysis 
 ---------------------------------------------------
   Atom    Charge (a.u.)   Spin (a.u.)  
 ---------------------------------------------------
   1  N  -57.132464       -0.000000 
   2  H  -39.230378       -0.000000 
 ---------------------------------------------------
   Sum:  -96.362842       -0.000000 
 ---------------------------------------------------
 
  
 NATURAL OCCUPATION NUMBERS (higher than 1.0E-05)
            1           2           3           4           5           6
    1   1.9999995   1.9999625   1.0000038   0.9999975   0.9999975   0.9999834
            7
    1   0.0000394
  
*** Unpaired Electrons
 Yamaguchi Nd:         4.00
 Head-Gordon Nu:       4.00
 Head-Gordon Nu_nl:    4.00
  
**************************************************
 RAS-CI total energy for state   8:   -430.687800147855
  Excitation energy (eV) = ***************
  State symmetry: A1    (C2v      )
  <S^2>      :  2.0000
  Dipole Moment:   -0.0000 X     0.0000 Y    71.8297 Z
  Trans. Moment:    0.0000 X    -0.0000 Y     0.0000 Z
  Strength   :  0.000000
  Natural transition orbitals ( 1 -> 8 ):
   e-/hole pair  1:  ampl =  0.008095 (  0.0%)   [6 : 7]
   e-/hole pair  2:  ampl =  0.008095 (  0.0%)   [5 : 8]
   Sum of square amplitudes: 0.00

 NATURAL OCCUPATION NUMBERS (higher than 1.0E-05)
            1           2           3           4           5           6
    1   1.9999995   1.9999625   1.0000038   0.9999976   0.9999973   0.9999834
            7
    1   0.0000394

  Amplitudes : 
  
 | HOLE  | ALPHA  | BETA   | PART  |    AMPLITUDE 
--------------------------------------------------
 |       | 100101 | 110101 |  37   |     3.7992874954577E-01
 |       | 110101 | 100101 |  37   |    -3.7992875131900E-01
 |       | 001101 | 110101 |  37   |    -1.4327000155554E-01
 |       | 110101 | 001101 |  37   |     1.4326998935118E-01
 |       | 100011 | 110011 |  37   |    -3.7992880714366E-01
 |       | 110011 | 100011 |  37   |     3.7992880808763E-01
 |       | 001011 | 110011 |  37   |     1.4327003025319E-01
 |       | 110011 | 001011 |  37   |    -1.4327001856839E-01
 |       | 100101 | 101101 |  37   |     1.6221268439655E-01
 |       | 101101 | 100101 |  37   |    -1.6221268522163E-01
 |       | 100011 | 101011 |  37   |    -1.6221271623170E-01
 |       | 101011 | 100011 |  37   |     1.6221271675614E-01
 |       | 100101 | 011101 |  37   |     1.7180186957693E-01
 |       | 011101 | 100101 |  37   |    -1.7180187066542E-01
 |       | 100011 | 011011 |  37   |    -1.7180189727952E-01
 |       | 011011 | 100011 |  37   |     1.7180189810618E-01
--------------------------------------------------
*** Contributions RASCI wfn    Active:   0.00
                                 Hole:   0.00
                                 Part: 100.00

      Mulliken population analysis 
 ---------------------------------------------------
   Atom    Charge (a.u.)   Spin (a.u.)  
 ---------------------------------------------------
   1  N  -57.132464       -0.000000 
   2  H  -39.230378       -0.000000 
 ---------------------------------------------------
   Sum:  -96.362842       -0.000000 
 ---------------------------------------------------
 
  
 NATURAL OCCUPATION NUMBERS (higher than 1.0E-05)
            1           2           3           4           5           6
    1   1.9999995   1.9999625   1.0000038   0.9999976   0.9999973   0.9999834
            7
    1   0.0000394
  
*** Unpaired Electrons
 Yamaguchi Nd:         4.00
 Head-Gordon Nu:       4.00
 Head-Gordon Nu_nl:    4.00
  
**************************************************
 RAS-CI total energy for state   9:   -430.614800406713
  Excitation energy (eV) = ***************
  State symmetry: A1    (C2v      )
  <S^2>      :  2.0000
  Dipole Moment:    0.0000 X     0.0000 Y    71.8300 Z
  Trans. Moment:   -0.0000 X     0.0000 Y     0.0144 Z
  Strength   :  0.001474
  Natural transition orbitals ( 1 -> 9 ):
   e-/hole pair  1:  ampl =  0.016377 (  0.0%)   [6 : 7]
   e-/hole pair  2:  ampl =  0.008095 (  0.0%)   [5 : 8]
   Sum of square amplitudes: 0.00

 NATURAL OCCUPATION NUMBERS (higher than 1.0E-05)
            1           2           3           4           5           6
    1   1.9999994   1.9999624   1.0000054   0.9999908   0.9998604   0.9998600
            7
    1   0.0003127

  Amplitudes : 
  
 | HOLE  | ALPHA  | BETA   | PART  |    AMPLITUDE 
--------------------------------------------------
 |       | 100101 | 110101 |  37   |    -3.8000950607170E-01
 |       | 110101 | 100101 |  37   |     3.8000950747765E-01
 |       | 001101 | 110101 |  37   |     1.4330291320635E-01
 |       | 110101 | 001101 |  37   |    -1.4330290295728E-01
 |       | 100011 | 110011 |  37   |    -3.8000944528427E-01
 |       | 110011 | 100011 |  37   |     3.8000944448662E-01
 |       | 001011 | 110011 |  37   |     1.4330287638713E-01
 |       | 110011 | 001011 |  37   |    -1.4330288644694E-01
 |       | 100101 | 101101 |  37   |    -1.6224124534031E-01
 |       | 101101 | 100101 |  37   |     1.6224124570206E-01
 |       | 100011 | 101011 |  37   |    -1.6224122572825E-01
 |       | 101011 | 100011 |  37   |     1.6224122518845E-01
 |       | 100101 | 011101 |  37   |    -1.7184283341738E-01
 |       | 011101 | 100101 |  37   |     1.7184283438914E-01
 |       | 100011 | 011011 |  37   |    -1.7184280458509E-01
 |       | 011011 | 100011 |  37   |     1.7184280403430E-01
--------------------------------------------------
*** Contributions RASCI wfn    Active:   0.00
                                 Hole:   0.00
                                 Part: 100.00

      Mulliken population analysis 
 ---------------------------------------------------
   Atom    Charge (a.u.)   Spin (a.u.)  
 ---------------------------------------------------
   1  N  -57.132903       -0.000000 
   2  H  -39.230651       -0.000000 
 ---------------------------------------------------
   Sum:  -96.363554       -0.000000 
 ---------------------------------------------------
 
  
 NATURAL OCCUPATION NUMBERS (higher than 1.0E-05)
            1           2           3           4           5           6
    1   1.9999994   1.9999624   1.0000054   0.9999908   0.9998604   0.9998600
            7
    1   0.0003127
  
*** Unpaired Electrons
 Yamaguchi Nd:         4.00
 Head-Gordon Nu:       4.00
 Head-Gordon Nu_nl:    4.00
  
**************************************************
 RAS-CI total energy for state  10:   -430.501485419100
  Excitation energy (eV) = ***************
  State symmetry: B2    (C2v      )
  <S^2>      :  2.0000
  Dipole Moment:    0.0000 X    -0.0000 Y    71.4028 Z
  Trans. Moment:    0.0000 X    -0.3075 Y    -0.0000 Z
  Strength   :  0.676788
  Natural transition orbitals ( 1 -> 10 ):
   e-/hole pair  1:  ampl =  0.489980 ( 24.0%)   [6 : 7]
   e-/hole pair  2:  ampl =  0.004080 (  0.0%)   [5 : 8]
   Sum of square amplitudes: 0.24

 NATURAL OCCUPATION NUMBERS (higher than 1.0E-05)
            1           2           3           4           5           6
    1   1.9999916   1.9999342   1.0452591   0.9999942   0.9999542   0.9548401

  Amplitudes : 
  
 | HOLE  | ALPHA  | BETA   | PART  |    AMPLITUDE 
--------------------------------------------------
 |       | 110001 | 111010 |  37   |     1.2399995724311E-01
 |       | 111010 | 110001 |  37   |    -1.2399995724319E-01
 |       | 100011 | 111001 |  37   |    -2.4080626503744E-01
 |       | 111001 | 100011 |  37   |     2.4080626503738E-01
 |       | 110001 | 110011 |  37   |    -1.7091581761700E-01
 |       | 110011 | 110001 |  37   |     1.7091581761701E-01
 |       | 101001 | 110011 |  37   |    -2.6777112559943E-01
 |       | 110011 | 101001 |  37   |     2.6777112559949E-01
 |       | 011001 | 110011 |  37   |    -1.1015140546097E-01
 |       | 110011 | 011001 |  37   |     1.1015140546096E-01
 |       | 110001 | 101011 |  37   |     4.7953391810712E-01
 |       | 101011 | 110001 |  37   |    -4.7953391810718E-01
 |       | 101001 | 101011 |  37   |     1.1559356121723E-01
 |       | 101011 | 101001 |  37   |    -1.1559356121724E-01
 |       | 011001 | 101011 |  37   |     2.0092140486639E-01
 |       | 101011 | 011001 |  37   |    -2.0092140486636E-01
--------------------------------------------------
*** Contributions RASCI wfn    Active:   0.00
                                 Hole:   0.00
                                 Part: 100.00

      Mulliken population analysis 
 ---------------------------------------------------
   Atom    Charge (a.u.)   Spin (a.u.)  
 ---------------------------------------------------
   1  N  -57.077511       -0.000000 
   2  H  -39.295187       -0.000000 
 ---------------------------------------------------
   Sum:  -96.372699       -0.000000 
 ---------------------------------------------------
 
  
 NATURAL OCCUPATION NUMBERS (higher than 1.0E-05)
            1           2           3           4           5           6
    1   1.9999916   1.9999342   1.0452591   0.9999942   0.9999542   0.9548401
  
*** Unpaired Electrons
 Yamaguchi Nd:         4.00
 Head-Gordon Nu:       3.91
 Head-Gordon Nu_nl:    3.99
  
**************************************************
 RAS-CI total energy for state  11:   -430.501485412384
  Excitation energy (eV) = ***************
  State symmetry: B1    (C2v      )
  <S^2>      :  2.0000
  Dipole Moment:   -0.0000 X     0.0000 Y    71.4028 Z
  Trans. Moment:    0.3075 X     0.0000 Y     0.0000 Z
  Strength   :  0.676788
  Natural transition orbitals ( 1 -> 11 ):
   e-/hole pair  1:  ampl =  0.489980 ( 24.0%)   [6 : 7]
   e-/hole pair  2:  ampl =  0.004080 (  0.0%)   [5 : 8]
   Sum of square amplitudes: 0.24

 NATURAL OCCUPATION NUMBERS (higher than 1.0E-05)
            1           2           3           4           5           6
    1   1.9999916   1.9999342   1.0452591   0.9999942   0.9999542   0.9548401

  Amplitudes : 
  
 | HOLE  | ALPHA  | BETA   | PART  |    AMPLITUDE 
--------------------------------------------------
 |       | 110001 | 111100 |  37   |    -1.2399995749335E-01
 |       | 111100 | 110001 |  37   |     1.2399995749273E-01
 |       | 100101 | 111001 |  37   |     2.4080626481867E-01
 |       | 111001 | 100101 |  37   |    -2.4080626481815E-01
 |       | 110001 | 110101 |  37   |     1.7091581753752E-01
 |       | 110101 | 110001 |  37   |    -1.7091581753739E-01
 |       | 101001 | 110101 |  37   |     2.6777112586926E-01
 |       | 110101 | 101001 |  37   |    -2.6777112586900E-01
 |       | 011001 | 110101 |  37   |     1.1015140521544E-01
 |       | 110101 | 011001 |  37   |    -1.1015140521589E-01
 |       | 110001 | 101101 |  37   |    -4.7953391801706E-01
 |       | 101101 | 110001 |  37   |     4.7953391801688E-01
 |       | 101001 | 101101 |  37   |    -1.1559356127784E-01
 |       | 101101 | 101001 |  37   |     1.1559356127755E-01
 |       | 011001 | 101101 |  37   |    -2.0092140497392E-01
 |       | 101101 | 011001 |  37   |     2.0092140497367E-01
--------------------------------------------------
*** Contributions RASCI wfn    Active:   0.00
                                 Hole:   0.00
                                 Part: 100.00

      Mulliken population analysis 
 ---------------------------------------------------
   Atom    Charge (a.u.)   Spin (a.u.)  
 ---------------------------------------------------
   1  N  -57.077511       -0.000000 
   2  H  -39.295187        0.000000 
 ---------------------------------------------------
   Sum:  -96.372699        0.000000 
 ---------------------------------------------------
 
  
 NATURAL OCCUPATION NUMBERS (higher than 1.0E-05)
            1           2           3           4           5           6
    1   1.9999916   1.9999342   1.0452591   0.9999942   0.9999542   0.9548401
  
*** Unpaired Electrons
 Yamaguchi Nd:         4.00
 Head-Gordon Nu:       3.91
 Head-Gordon Nu_nl:    3.99
  
**************************************************
 RAS-CI total energy for state  12:   -427.679451021581
  Excitation energy (eV) = ***************
  State symmetry: B2    (C2v      )
  <S^2>      :  0.0000
  Dipole Moment:    0.0000 X    -0.0000 Y    71.3092 Z
  Trans. Moment:    0.0000 X    -0.0000 Y     0.0000 Z
  Strength   :  0.000000
  Natural transition orbitals ( 1 -> 12 ):
   e-/hole pair  1:  ampl =  0.579330 ( 33.6%)   [6 : 7]
   e-/hole pair  2:  ampl =  0.004685 (  0.0%)   [5 : 8]
   Sum of square amplitudes: 0.34

 NATURAL OCCUPATION NUMBERS (higher than 1.0E-05)
            1           2           3           4           5           6
    1   1.9999969   1.9999863   1.1470173   0.9999924   0.9999477   0.8530234
            7
    1   0.0000133

  Amplitudes : 
  
 | HOLE  | ALPHA  | BETA   | PART  |    AMPLITUDE 
--------------------------------------------------
 |       | 110001 | 111010 |  37   |     1.0766900210917E-01
 |       | 111010 | 110001 |  37   |     1.0766900210911E-01
 |       | 100011 | 111001 |  37   |    -2.6939767697333E-01
 |       | 111001 | 100011 |  37   |    -2.6939767697345E-01
 |       | 001011 | 111001 |  37   |     1.0181726707654E-01
 |       | 111001 | 001011 |  37   |     1.0181726707637E-01
 |       | 110001 | 110011 |  37   |    -3.4586577478468E-01
 |       | 110011 | 110001 |  37   |    -3.4586577478460E-01
 |       | 011001 | 110011 |  37   |    -1.1526711673369E-01
 |       | 110011 | 011001 |  37   |    -1.1526711673342E-01
 |       | 110001 | 101011 |  37   |     3.6283555907735E-01
 |       | 101011 | 110001 |  37   |     3.6283555907741E-01
 |       | 101001 | 101011 |  37   |     2.6167284747211E-01
 |       | 101011 | 101001 |  37   |     2.6167284747229E-01
 |       | 011001 | 101011 |  37   |     1.8419406072305E-01
 |       | 101011 | 011001 |  37   |     1.8419406072302E-01
--------------------------------------------------
*** Contributions RASCI wfn    Active:   0.00
                                 Hole:   0.00
                                 Part: 100.00

      Mulliken population analysis 
 ---------------------------------------------------
   Atom    Charge (a.u.)   Spin (a.u.)  
 ---------------------------------------------------
   1  N  -57.119467        0.000000 
   2  H  -39.253186        0.000000 
 ---------------------------------------------------
   Sum:  -96.372653        0.000000 
 ---------------------------------------------------
 
  
 NATURAL OCCUPATION NUMBERS (higher than 1.0E-05)
            1           2           3           4           5           6
    1   1.9999969   1.9999863   1.1470173   0.9999924   0.9999477   0.8530234
            7
    1   0.0000133
  
*** Unpaired Electrons
 Yamaguchi Nd:         3.96
 Head-Gordon Nu:       3.71
 Head-Gordon Nu_nl:    3.91
  
**************************************************
 RAS-CI total energy for state  13:   -427.679451014654
  Excitation energy (eV) = ***************
  State symmetry: B1    (C2v      )
  <S^2>      :  0.0000
  Dipole Moment:   -0.0000 X    -0.0000 Y    71.3092 Z
  Trans. Moment:   -0.0000 X    -0.0000 Y    -0.0000 Z
  Strength   :  0.000000
  Natural transition orbitals ( 1 -> 13 ):
   e-/hole pair  1:  ampl =  0.579330 ( 33.6%)   [6 : 7]
   e-/hole pair  2:  ampl =  0.004685 (  0.0%)   [5 : 8]
   Sum of square amplitudes: 0.34

 NATURAL OCCUPATION NUMBERS (higher than 1.0E-05)
            1           2           3           4           5           6
    1   1.9999969   1.9999863   1.1470174   0.9999924   0.9999477   0.8530233
            7
    1   0.0000133

  Amplitudes : 
  
 | HOLE  | ALPHA  | BETA   | PART  |    AMPLITUDE 
--------------------------------------------------
 |       | 110001 | 111100 |  37   |    -1.0766920364137E-01
 |       | 111100 | 110001 |  37   |    -1.0766920364128E-01
 |       | 100101 | 111001 |  37   |     2.6939765494596E-01
 |       | 111001 | 100101 |  37   |     2.6939765494593E-01
 |       | 001101 | 111001 |  37   |    -1.0181727307102E-01
 |       | 111001 | 001101 |  37   |    -1.0181727307138E-01
 |       | 110001 | 110101 |  37   |     3.4586541223875E-01
 |       | 110101 | 110001 |  37   |     3.4586541223875E-01
 |       | 011001 | 110101 |  37   |     1.1526769102301E-01
 |       | 110101 | 011001 |  37   |     1.1526769102340E-01
 |       | 110001 | 101101 |  37   |    -3.6283569299896E-01
 |       | 101101 | 110001 |  37   |    -3.6283569299950E-01
 |       | 101001 | 101101 |  37   |    -2.6167287582563E-01
 |       | 101101 | 101001 |  37   |    -2.6167287582503E-01
 |       | 011001 | 101101 |  37   |    -1.8419366520752E-01
 |       | 101101 | 011001 |  37   |    -1.8419366520717E-01
--------------------------------------------------
*** Contributions RASCI wfn    Active:   0.00
                                 Hole:   0.00
                                 Part: 100.00

      Mulliken population analysis 
 ---------------------------------------------------
   Atom    Charge (a.u.)   Spin (a.u.)  
 ---------------------------------------------------
   1  N  -57.119466       -0.000000 
   2  H  -39.253186        0.000000 
 ---------------------------------------------------
   Sum:  -96.372653       -0.000000 
 ---------------------------------------------------
 
  
 NATURAL OCCUPATION NUMBERS (higher than 1.0E-05)
            1           2           3           4           5           6
    1   1.9999969   1.9999863   1.1470174   0.9999924   0.9999477   0.8530233
            7
    1   0.0000133
  
*** Unpaired Electrons
 Yamaguchi Nd:         3.96
 Head-Gordon Nu:       3.71
 Head-Gordon Nu_nl:    3.91
  
**************************************************
 RAS-CI total energy for state  14:   -424.910060992101
  Excitation energy (eV) = ***************
  State symmetry: A2    (C2v      )
  <S^2>      :  2.0000
  Dipole Moment:    0.0000 X    -0.0000 Y    71.8359 Z
  Trans. Moment:    0.0000 X     0.0000 Y    -0.0000 Z
  Strength   :  0.000000
  Natural transition orbitals ( 1 -> 14 ):
   e-/hole pair  1:  ampl =  0.000002 (  0.0%)   [6 : 7]
   e-/hole pair  2:  ampl =  0.000002 (  0.0%)   [5 : 8]
   Sum of square amplitudes: 0.00

 NATURAL OCCUPATION NUMBERS (higher than 1.0E-05)
            1           2           3           4           5           6
    1   1.9999728   1.9998455   1.0008265   0.9999971   0.9999971   0.9990475
            7
    1   0.0002893

  Amplitudes : 
  
 | HOLE  | ALPHA  | BETA   | PART  |    AMPLITUDE 
--------------------------------------------------
 |       | 110001 | 110110 |  37   |     1.2670694452628E-01
 |       | 110110 | 110001 |  37   |    -1.2670685385470E-01
 |       | 110001 | 100111 |  37   |     5.3703083577859E-01
 |       | 100111 | 110001 |  37   |    -5.3703091222996E-01
 |       | 101001 | 100111 |  37   |     2.2699862876405E-01
 |       | 100111 | 101001 |  37   |    -2.2699880679600E-01
 |       | 011001 | 100111 |  37   |     2.4277540694207E-01
 |       | 100111 | 011001 |  37   |    -2.4277527806367E-01
 |       | 110001 | 001111 |  37   |    -2.0177589736789E-01
 |       | 001111 | 110001 |  37   |     2.0177577401028E-01
--------------------------------------------------
*** Contributions RASCI wfn    Active:   0.01
                                 Hole:   0.00
                                 Part:  99.99

      Mulliken population analysis 
 ---------------------------------------------------
   Atom    Charge (a.u.)   Spin (a.u.)  
 ---------------------------------------------------
   1  N  -57.143710        0.000000 
   2  H  -39.225779        0.000000 
 ---------------------------------------------------
   Sum:  -96.369489        0.000000 
 ---------------------------------------------------
 
  
 NATURAL OCCUPATION NUMBERS (higher than 1.0E-05)
            1           2           3           4           5           6
    1   1.9999728   1.9998455   1.0008265   0.9999971   0.9999971   0.9990475
            7
    1   0.0002893
  
*** Unpaired Electrons
 Yamaguchi Nd:         4.00
 Head-Gordon Nu:       4.00
 Head-Gordon Nu_nl:    4.00
  
**************************************************
 RAS-CI total energy for state  15:   -417.781056517280
  Excitation energy (eV) = ***************
  State symmetry: A2    (C2v      )
  <S^2>      :  0.0000
  Dipole Moment:   -0.0000 X     0.0000 Y    71.8419 Z
  Trans. Moment:    0.0000 X     0.0000 Y     0.0000 Z
  Strength   :  0.000000
  Natural transition orbitals ( 1 -> 15 ):
   e-/hole pair  1:  ampl =  0.004676 (  0.0%)   [6 : 7]
   e-/hole pair  2:  ampl =  0.004676 (  0.0%)   [5 : 8]
   Sum of square amplitudes: 0.00

 NATURAL OCCUPATION NUMBERS (higher than 1.0E-05)
            1           2           3           4           5           6
    1   1.9999989   1.9999435   1.0000115   0.9999946   0.9999946   0.9999652
            7
    1   0.0000570

  Amplitudes : 
  
 | HOLE  | ALPHA  | BETA   | PART  |    AMPLITUDE 
--------------------------------------------------
 |       | 110001 | 110110 |  37   |    -1.0430768156823E-01
 |       | 110110 | 110001 |  37   |    -1.0430790093916E-01
 |       | 100011 | 110101 |  37   |     2.1928061634521E-01
 |       | 110101 | 100011 |  37   |     2.1928130734507E-01
 |       | 100101 | 110011 |  37   |    -2.1928063146036E-01
 |       | 110011 | 100101 |  37   |    -2.1928079803709E-01
 |       | 110001 | 100111 |  37   |    -4.3856193651657E-01
 |       | 100111 | 110001 |  37   |    -4.3856286333833E-01
 |       | 101001 | 100111 |  37   |    -1.8780541202386E-01
 |       | 100111 | 101001 |  37   |    -1.8780440092394E-01
 |       | 011001 | 100111 |  37   |    -1.9921709748798E-01
 |       | 100111 | 011001 |  37   |    -1.9921673055849E-01
 |       | 110001 | 001111 |  37   |     1.6461770738133E-01
 |       | 001111 | 110001 |  37   |     1.6461781957522E-01
--------------------------------------------------
*** Contributions RASCI wfn    Active:   0.00
                                 Hole:   0.00
                                 Part: 100.00

      Mulliken population analysis 
 ---------------------------------------------------
   Atom    Charge (a.u.)   Spin (a.u.)  
 ---------------------------------------------------
   1  N  -57.137472       -0.000003 
   2  H  -39.225549       -0.000002 
 ---------------------------------------------------
   Sum:  -96.363021       -0.000005 
 ---------------------------------------------------
 
  
 NATURAL OCCUPATION NUMBERS (higher than 1.0E-05)
            1           2           3           4           5           6
    1   1.9999989   1.9999435   1.0000115   0.9999946   0.9999946   0.9999652
            7
    1   0.0000570
  
*** Unpaired Electrons
 Yamaguchi Nd:         4.00
 Head-Gordon Nu:       4.00
 Head-Gordon Nu_nl:    4.00
  
**************************************************
 RAS-CI total energy for state  16:   -416.078394681207
  Excitation energy (eV) = ***************
  State symmetry: B2    (C2v      )
  <S^2>      :  6.0000
  Dipole Moment:   -0.0000 X    -0.0000 Y    68.4892 Z
  Trans. Moment:   -0.0000 X     0.0000 Y     0.0000 Z
  Strength   :  0.000000
  Natural transition orbitals ( 1 -> 16 ):
   e-/hole pair  1:  ampl =  0.816461 ( 66.7%)   [6 : 7]
   e-/hole pair  2:  ampl =  0.000420 (  0.0%)   [5 : 8]
   Sum of square amplitudes: 0.67

 NATURAL OCCUPATION NUMBERS (higher than 1.0E-05)
            1           2           3           4           5           6
    1   1.9999992   1.9998592   1.0000010   1.0000001   0.9999998   0.9999916
            7
    1   0.0001423

  Amplitudes : 
  
 | HOLE  | ALPHA  | BETA   | PART  |    AMPLITUDE 
--------------------------------------------------
 |       | 110001 | 111010 |  37   |    -1.8894117750730E-01
 |       | 111010 | 110001 |  37   |    -1.8894117750540E-01
 |       | 101001 | 111010 |  37   |     3.5175145188297E-01
 |       | 111010 | 101001 |  37   |     3.5175145187625E-01
 |       | 110010 | 111001 |  37   |     1.8894117751367E-01
 |       | 111001 | 110010 |  37   |     1.8894117751233E-01
 |       | 101010 | 111001 |  37   |    -3.5175145171409E-01
 |       | 111001 | 101010 |  37   |    -3.5175145170974E-01
 |       | 111000 | 110011 |  37   |    -1.8894117768655E-01
 |       | 110011 | 111000 |  37   |    -1.8894117768679E-01
 |       | 111000 | 101011 |  37   |     3.5175145153038E-01
 |       | 101011 | 111000 |  37   |     3.5175145153116E-01
--------------------------------------------------
*** Contributions RASCI wfn    Active:   0.00
                                 Hole:   0.00
                                 Part: 100.00

      Mulliken population analysis 
 ---------------------------------------------------
   Atom    Charge (a.u.)   Spin (a.u.)  
 ---------------------------------------------------
   1  N  -58.643224        0.000000 
   2  H  -37.715336        0.000000 
 ---------------------------------------------------
   Sum:  -96.358560        0.000000 
 ---------------------------------------------------
 
  
 NATURAL OCCUPATION NUMBERS (higher than 1.0E-05)
            1           2           3           4           5           6
    1   1.9999992   1.9998592   1.0000010   1.0000001   0.9999998   0.9999916
            7
    1   0.0001423
  
*** Unpaired Electrons
 Yamaguchi Nd:         4.00
 Head-Gordon Nu:       4.00
 Head-Gordon Nu_nl:    4.00
  
**************************************************
 RAS-CI total energy for state  17:   -416.078394672609
  Excitation energy (eV) = ***************
  State symmetry: B1    (C2v      )
  <S^2>      :  6.0000
  Dipole Moment:   -0.0000 X     0.0000 Y    68.4892 Z
  Trans. Moment:   -0.0000 X     0.0000 Y    -0.0000 Z
  Strength   :  0.000000
  Natural transition orbitals ( 1 -> 17 ):
   e-/hole pair  1:  ampl =  0.816461 ( 66.7%)   [6 : 7]
   e-/hole pair  2:  ampl =  0.000420 (  0.0%)   [5 : 8]
   Sum of square amplitudes: 0.67

 NATURAL OCCUPATION NUMBERS (higher than 1.0E-05)
            1           2           3           4           5           6
    1   1.9999992   1.9998596   1.0000010   1.0000001   0.9999998   0.9999916
            7
    1   0.0001419

  Amplitudes : 
  
 | HOLE  | ALPHA  | BETA   | PART  |    AMPLITUDE 
--------------------------------------------------
 |       | 110001 | 111100 |  37   |    -1.8893924780616E-01
 |       | 111100 | 110001 |  37   |    -1.8893924780178E-01
 |       | 101001 | 111100 |  37   |     3.5175253004239E-01
 |       | 111100 | 101001 |  37   |     3.5175253003439E-01
 |       | 110100 | 111001 |  37   |     1.8893963994469E-01
 |       | 111001 | 110100 |  37   |     1.8893963994870E-01
 |       | 101100 | 111001 |  37   |    -3.5175233549751E-01
 |       | 111001 | 101100 |  37   |    -3.5175233549837E-01
 |       | 111000 | 110101 |  37   |    -1.8894009636867E-01
 |       | 110101 | 111000 |  37   |    -1.8894009637351E-01
 |       | 111000 | 101101 |  37   |     3.5175205877894E-01
 |       | 101101 | 111000 |  37   |     3.5175205878062E-01
--------------------------------------------------
*** Contributions RASCI wfn    Active:   0.00
                                 Hole:   0.00
                                 Part: 100.00

      Mulliken population analysis 
 ---------------------------------------------------
   Atom    Charge (a.u.)   Spin (a.u.)  
 ---------------------------------------------------
   1  N  -58.643221        0.000000 
   2  H  -37.715339        0.000000 
 ---------------------------------------------------
   Sum:  -96.358559        0.000000 
 ---------------------------------------------------
 
  
 NATURAL OCCUPATION NUMBERS (higher than 1.0E-05)
            1           2           3           4           5           6
    1   1.9999992   1.9998596   1.0000010   1.0000001   0.9999998   0.9999916
            7
    1   0.0001419
  
*** Unpaired Electrons
 Yamaguchi Nd:         4.00
 Head-Gordon Nu:       4.00
 Head-Gordon Nu_nl:    4.00
  
**************************************************
 RAS-CI total energy for state  18:   -415.762931202794
  Excitation energy (eV) = ***************
  State symmetry: B2    (C2v      )
  <S^2>      :  2.0000
  Dipole Moment:    0.0000 X    -0.0000 Y    68.0434 Z
  Trans. Moment:   -0.0000 X     0.4244 Y     0.0000 Z
  Strength   :  3.059040
  Natural transition orbitals ( 1 -> 18 ):
   e-/hole pair  1:  ampl =  0.817398 ( 66.8%)   [6 : 7]
   e-/hole pair  2:  ampl =  0.000309 (  0.0%)   [5 : 8]
   Sum of square amplitudes: 0.67

 NATURAL OCCUPATION NUMBERS (higher than 1.0E-05)
            1           2           3           4           5           6
    1   1.9999238   1.9994658   1.2104039   0.9999997   0.9999898   0.7900659
            7
    1   0.0001421

  Amplitudes : 
  
 | HOLE  | ALPHA  | BETA   | PART  |    AMPLITUDE 
--------------------------------------------------
 |       | 111000 | 111010 |  37   |     1.7296425405166E-01
 |       | 111010 | 111000 |  37   |    -1.7296425405168E-01
 |       | 110001 | 111010 |  37   |     1.7179102473213E-01
 |       | 111010 | 110001 |  37   |    -1.7179102473236E-01
 |       | 101001 | 111010 |  37   |    -2.8140996707233E-01
 |       | 111010 | 101001 |  37   |     2.8140996707308E-01
 |       | 110010 | 111001 |  37   |     1.9331983217080E-01
 |       | 111001 | 110010 |  37   |    -1.9331983217055E-01
 |       | 101010 | 111001 |  37   |    -3.5213567291821E-01
 |       | 111001 | 101010 |  37   |     3.5213567291747E-01
 |       | 111000 | 110011 |  37   |    -1.6659113270001E-01
 |       | 110011 | 111000 |  37   |     1.6659113269971E-01
 |       | 101001 | 110011 |  37   |    -1.1524618043480E-01
 |       | 110011 | 101001 |  37   |     1.1524618043485E-01
 |       | 111000 | 101011 |  37   |     2.7521697794544E-01
 |       | 101011 | 111000 |  37   |    -2.7521697794472E-01
 |       | 110001 | 101011 |  37   |    -1.1051847524555E-01
 |       | 101011 | 110001 |  37   |     1.1051847524546E-01
 |       | 101001 | 101011 |  37   |     2.5920964127538E-01
 |       | 101011 | 101001 |  37   |    -2.5920964127540E-01
--------------------------------------------------
*** Contributions RASCI wfn    Active:   0.02
                                 Hole:   0.00
                                 Part:  99.98

      Mulliken population analysis 
 ---------------------------------------------------
   Atom    Charge (a.u.)   Spin (a.u.)  
 ---------------------------------------------------
   1  N  -58.745380        0.000000 
   2  H  -37.647161        0.000000 
 ---------------------------------------------------
   Sum:  -96.392541        0.000000 
 ---------------------------------------------------
 
  
 NATURAL OCCUPATION NUMBERS (higher than 1.0E-05)
            1           2           3           4           5           6
    1   1.9999238   1.9994658   1.2104039   0.9999997   0.9999898   0.7900659
            7
    1   0.0001421
  
*** Unpaired Electrons
 Yamaguchi Nd:         3.91
 Head-Gordon Nu:       3.58
 Head-Gordon Nu_nl:    3.83
  
**************************************************
 RAS-CI total energy for state  19:   -415.762931197504
  Excitation energy (eV) = ***************
  State symmetry: B1    (C2v      )
  <S^2>      :  2.0000
  Dipole Moment:   -0.0000 X     0.0000 Y    68.0434 Z
  Trans. Moment:   -0.4244 X    -0.0000 Y    -0.0000 Z
  Strength   :  3.059040
  Natural transition orbitals ( 1 -> 19 ):
   e-/hole pair  1:  ampl =  0.817398 ( 66.8%)   [6 : 7]
   e-/hole pair  2:  ampl =  0.000309 (  0.0%)   [5 : 8]
   Sum of square amplitudes: 0.67

 NATURAL OCCUPATION NUMBERS (higher than 1.0E-05)
            1           2           3           4           5           6
    1   1.9999238   1.9994658   1.2104039   0.9999997   0.9999898   0.7900659
            7
    1   0.0001421

  Amplitudes : 
  
 | HOLE  | ALPHA  | BETA   | PART  |    AMPLITUDE 
--------------------------------------------------
 |       | 111000 | 111100 |  37   |    -1.7296425441156E-01
 |       | 111100 | 111000 |  37   |     1.7296425441058E-01
 |       | 110001 | 111100 |  37   |    -1.7179102454924E-01
 |       | 111100 | 110001 |  37   |     1.7179102455476E-01
 |       | 101001 | 111100 |  37   |     2.8140996588196E-01
 |       | 111100 | 101001 |  37   |    -2.8140996589057E-01
 |       | 110100 | 111001 |  37   |    -1.9331983250436E-01
 |       | 111001 | 110100 |  37   |     1.9331983249963E-01
 |       | 101100 | 111001 |  37   |     3.5213567387740E-01
 |       | 111001 | 101100 |  37   |    -3.5213567386916E-01
 |       | 111000 | 110101 |  37   |     1.6659113250564E-01
 |       | 110101 | 111000 |  37   |    -1.6659113250164E-01
 |       | 101001 | 110101 |  37   |     1.1524618007608E-01
 |       | 110101 | 101001 |  37   |    -1.1524618007504E-01
 |       | 111000 | 101101 |  37   |    -2.7521697792317E-01
 |       | 101101 | 111000 |  37   |     2.7521697791454E-01
 |       | 110001 | 101101 |  37   |     1.1051847528568E-01
 |       | 101101 | 110001 |  37   |    -1.1051847528723E-01
 |       | 101001 | 101101 |  37   |    -2.5920964139418E-01
 |       | 101101 | 101001 |  37   |     2.5920964139393E-01
--------------------------------------------------
*** Contributions RASCI wfn    Active:   0.02
                                 Hole:   0.00
                                 Part:  99.98

      Mulliken population analysis 
 ---------------------------------------------------
   Atom    Charge (a.u.)   Spin (a.u.)  
 ---------------------------------------------------
   1  N  -58.745380        0.000000 
   2  H  -37.647161        0.000000 
 ---------------------------------------------------
   Sum:  -96.392541        0.000000 
 ---------------------------------------------------
 
  
 NATURAL OCCUPATION NUMBERS (higher than 1.0E-05)
            1           2           3           4           5           6
    1   1.9999238   1.9994658   1.2104039   0.9999997   0.9999898   0.7900659
            7
    1   0.0001421
  
*** Unpaired Electrons
 Yamaguchi Nd:         3.91
 Head-Gordon Nu:       3.58
 Head-Gordon Nu_nl:    3.83
  
**************************************************
 RAS-CI total energy for state  20:   -413.021944751310
  Excitation energy (eV) = ***************
  State symmetry: B2    (C2v      )
  <S^2>      :  2.0000
  Dipole Moment:   -0.0000 X     0.0000 Y    72.3050 Z
  Trans. Moment:   -0.0000 X     0.5568 Y    -0.0000 Z
  Strength   :  5.832346
  Natural transition orbitals ( 1 -> 20 ):
   e-/hole pair  1:  ampl =  0.810461 ( 65.7%)   [6 : 7]
   e-/hole pair  2:  ampl =  0.000453 (  0.0%)   [5 : 8]
   Sum of square amplitudes: 0.66

 NATURAL OCCUPATION NUMBERS (higher than 1.0E-05)
            1           2           3           4           5           6
    1   1.9998335   1.9990270   1.2185404   0.9999994   0.9999893   0.7824618
            7
    1   0.0001393

  Amplitudes : 
  
 | HOLE  | ALPHA  | BETA   | PART  |    AMPLITUDE 
--------------------------------------------------
 |       | 100011 | 111001 |  37   |     1.4605700591663E-01
 |       | 111001 | 100011 |  37   |    -1.4605700591482E-01
 |       | 010011 | 111001 |  37   |    -1.8302011598367E-01
 |       | 111001 | 010011 |  37   |     1.8302011598123E-01
 |       | 001011 | 111001 |  37   |     3.0970838048463E-01
 |       | 111001 | 001011 |  37   |    -3.0970838048064E-01
 |       | 110001 | 110011 |  37   |    -1.5465934351274E-01
 |       | 110011 | 110001 |  37   |     1.5465934351275E-01
 |       | 101001 | 110011 |  37   |     1.3787767406202E-01
 |       | 110011 | 101001 |  37   |    -1.3787767406385E-01
 |       | 011001 | 110011 |  37   |     1.7717855506332E-01
 |       | 110011 | 011001 |  37   |    -1.7717855506094E-01
 |       | 110001 | 101011 |  37   |     1.3152788610132E-01
 |       | 101011 | 110001 |  37   |    -1.3152788609960E-01
 |       | 011001 | 101011 |  37   |    -3.1651541393039E-01
 |       | 101011 | 011001 |  37   |     3.1651541392642E-01
 |       | 110001 | 011011 |  37   |     1.7408944676416E-01
 |       | 011011 | 110001 |  37   |    -1.7408944676661E-01
 |       | 101001 | 011011 |  37   |    -3.1052453598699E-01
 |       | 011011 | 101001 |  37   |     3.1052453599096E-01
--------------------------------------------------
*** Contributions RASCI wfn    Active:   0.01
                                 Hole:   0.00
                                 Part:  99.99

      Mulliken population analysis 
 ---------------------------------------------------
   Atom    Charge (a.u.)   Spin (a.u.)  
 ---------------------------------------------------
   1  N  -56.958587        0.000000 
   2  H  -39.394197        0.000000 
 ---------------------------------------------------
   Sum:  -96.352784        0.000000 
 ---------------------------------------------------
 
  
 NATURAL OCCUPATION NUMBERS (higher than 1.0E-05)
            1           2           3           4           5           6
    1   1.9998335   1.9990270   1.2185404   0.9999994   0.9999893   0.7824618
            7
    1   0.0001393
  
*** Unpaired Electrons
 Yamaguchi Nd:         3.91
 Head-Gordon Nu:       3.57
 Head-Gordon Nu_nl:    3.81
  
--------------------------------------------------
 Interstate Transition Properties
--------------------------------------------------
State A: Root  1
State B: Root  2
  
Angular momentum components
< B | Lx | A > =     0.000000000i
< B | Ly | A > =    -0.000000000i
< B | Lz | A > =     0.000000000i
  
Norm of one-particle transition density matrix
||gamma^AB||_total       =  0.816465
||gamma^AB||_symmetrized =  0.582002
||gamma^AB||_anti-symm   =  0.572616
  
Spin-orbit couplings
 Using HF (reference) density for the 2-elec mean-field SOC contribution
KET: S',Sz' (Root   1) =  1.000 0.000
BRA: S ,Sz  (Root   2) =  2.000 0.000
Clebsh-Gordan coefficient: < 1.000, 0.000; 1.000, 0.000| 2.000, 0.000> =  0.816
 Computing 1e-SO integrals
 1e Reduced matrix elements (cm-1)
<S|| Hso(L-) ||S'> =     0.0221883341    36.8401265440
<S|| Hso(L0) ||S'> =     0.0000000000     0.0000000033
<S|| Hso(L+) ||S'> =     0.0221883341   -36.8401265440
 1-elec SOC matrix (cm-1): < B(S,Sz) | Hso(1e) | A(S',Sz') >
                     |Sz'=-1.00>              |Sz'= 0.00>              |Sz'= 1.00>
 <Sz=-2.00|    0.022188  -36.840127i     0.000000    0.000000i     0.000000    0.000000i
 <Sz=-1.00|    0.000000    0.000000i     0.015690  -26.049903i     0.000000   -0.000000i
 <Sz= 0.00|    0.009058   15.039919i    -0.000000    0.000000i     0.009058  -15.039919i
 <Sz= 1.00|    0.000000    0.000000i     0.015690   26.049903i     0.000000    0.000000i
 <Sz= 2.00|    0.000000    0.000000i     0.000000    0.000000i     0.022188   36.840127i
1-elec SOCC =    67.260573298 cm-1
 Computing 2e-SOMF integrals
 Averagin spin alpha/beta reference densities
 2e-SOMF Reduced matrix elements (cm-1)
<S|| Hso(L-) ||S'> =    -0.0089237882   -14.8164973902
<S|| Hso(L0) ||S'> =     0.0000000000    -0.0000000014
<S|| Hso(L+) ||S'> =    -0.0089237882    14.8164973902
 2-elec mean-field SOC matrix (cm-1): < B(S,Sz) | Hso(2e-mf) | A(S',Sz') >
                     |Sz'=-1.00>              |Sz'= 0.00>              |Sz'= 1.00>
 <Sz=-2.00|   -0.008924   14.816497i     0.000000    0.000000i     0.000000    0.000000i
 <Sz=-1.00|   -0.000000   -0.000000i    -0.006310   10.476846i    -0.000000    0.000000i
 <Sz= 0.00|   -0.003643   -6.048810i     0.000000   -0.000000i    -0.003643    6.048810i
 <Sz= 1.00|   -0.000000   -0.000000i    -0.006310  -10.476846i    -0.000000   -0.000000i
 <Sz= 2.00|    0.000000    0.000000i     0.000000    0.000000i    -0.008924  -14.816497i
 Total mean-field SOC matrix (cm-1): < B(S,Sz) | Hsomf | A(S',Sz') >
[...]
    15    2.448492145368e-15
    16   -3.378055736540e-17
    17    7.040029010515e-03
    18    4.554556592356e-17
    19   -1.499675112127e-16
    20   -1.290786851670e-14
    21    7.510138614538e-16
    22   -8.473176144435e-03
    23    2.249222446636e-17
    24    2.417743791409e-16
    25   -2.187547580647e-15
    26   -6.783296433038e-17
    27   -1.338719580983e-03
    28   -1.667186000854e-17
    29    9.632393454897e-17
    30   -4.872420467371e-17
    31   -4.356955665794e-13
    32    6.033767421773e-15
    33    1.432612855785e-13
    34    4.964664992177e-14
    35   -2.357730237666e-16
    36    9.058900974990e-03
    37   -9.850747210030e-15
Sym=X
Ene= 0.476760
Spin=Alpha
Occup=0
     1    3.842598472034e-03
     2    2.880030285322e-03
     3    3.504942384930e-02
     4   -4.971814911175e-01
     5    2.352539297768e+00
     6    7.086844102617e-15
     7    1.732010867943e-14
     8    6.247217178770e-02
     9    2.348975482753e-14
    10    5.672513325141e-14
    11    2.725691261665e-01
    12   -3.908737651903e-14
    13   -9.523714823203e-14
    14    1.678888968526e+00
    15   -3.356773459425e-02
    16   -3.309894658896e-17
    17    3.476778455669e-16
    18    1.140828411569e-11
    19   -2.751263068152e-18
    20    1.792129826886e-01
    21   -4.601380117188e-18
    22   -6.104259556438e-16
    23   -9.794668040434e-11
    24   -6.425756104031e-19
    25    3.021589924588e-02
    26    3.485683073086e-18
    27   -9.257924484034e-17
    28   -3.951846729924e-12
    29   -4.560536163648e-17
    30   -4.797013292976e-17
    31   -7.009094299513e-17
    32   -8.625592700978e-02
    33   -2.001849340381e+00
    34   -6.540364685874e-01
    35    3.031924195214e-16
    36    8.078688481310e-16
    37    1.409910928139e-01
Sym=X
Ene= 0.636165
Spin=Alpha
Occup=0
     1    3.331691653810e-02
     2    7.081883305715e-02
     3    1.036208868982e-01
     4   -1.605465921190e+00
     5    2.597070317240e+00
     6   -9.620769243150e-17
     7    6.614171323765e-16
     8   -2.989358858757e-01
     9   -1.160822231003e-16
    10    1.549845982042e-15
    11   -1.029140501726e+00
    12   -4.702421198139e-17
    13   -2.839785189208e-15
    14    1.568276459100e+00
    15   -2.864809210135e-03
    16    4.052182368418e-17
    17   -2.409105190108e-16
    18    5.053304686454e-12
    19    7.624281896759e-17
    20   -3.817737473010e-02
    21   -3.639013819829e-16
    22    3.252427920403e-16
    23   -3.671982427398e-11
    24   -4.162463626220e-17
    25   -1.562322529217e-02
    26   -1.555738805660e-16
    27    6.694005871672e-17
    28    1.391061265773e-12
    29   -5.390383393366e-17
    30   -4.405360058430e-17
    31   -6.032939888361e-17
    32    9.109215946677e-02
    33    1.031134636462e+00
    34   -2.335267462012e+00
    35    1.176011844695e-15
    36    1.969301410452e-16
    37   -6.285486147085e-02
Sym=X
Ene= 1.144474
Spin=Alpha
Occup=0
     1   -1.264868188528e-16
     2   -4.019737214662e-16
     3    2.430052291771e-15
     4   -2.837272610831e-15
     5   -2.434301115553e-15
     6   -5.455574434879e-02
     7   -4.176115951936e-16
     8    6.561144762258e-16
     9   -2.161680695555e-02
    10   -1.129715952659e-15
    11   -1.982054976121e-15
    12   -6.151171970699e-02
    13    1.165336705646e-15
    14   -1.349307924253e-15
    15    4.772200878957e-18
    16   -1.443538254006e-02
    17   -4.663926461425e-16
    18    2.312145327940e-16
    19   -3.214941847825e-16
    20   -1.184273399204e-15
    21    8.597934917697e-01
    22    2.188252020991e-15
    23   -3.259117133390e-15
    24    1.826102231832e-14
    25   -2.255426244197e-16
    26    5.512838962454e-03
    27    1.316606043295e-16
    28    3.358761910337e-17
    29    5.182823672690e-16
    30    8.177458231621e-13
    31    1.788737807395e-16
    32    4.833276289919e-17
    33    2.965278433594e-15
    34    1.568286257745e-15
    35    2.500109487893e-01
    36    5.245243055543e-16
    37   -1.331052476717e-15
Sym=X
Ene= 1.144474
Spin=Alpha
Occup=0
     1    2.575840854651e-17
     2    4.926165499791e-17
     3    5.666095415233e-16
     4   -3.479997298776e-15
     5    1.458049898255e-15
     6    4.724832365497e-16
     7    5.455574435438e-02
     8    1.450706353964e-17
     9   -3.256617218462e-16
    10    2.161680697212e-02
    11   -2.506591667485e-15
    12   -9.986336336045e-16
    13    6.151171966605e-02
    14    1.170438007891e-16
    15    1.055501807415e-16
    16    4.447597423069e-16
    17    1.443538255238e-02
    18    9.363322505839e-17
    19    7.198634560447e-16
    20   -2.271817432675e-15
    21    3.463246670780e-16
    22   -8.597934917943e-01
    23   -2.868025177430e-15
    24   -2.069677084988e-14
    25   -2.304777858584e-16
    26   -1.552689478167e-16
    27   -5.512838963880e-03
    28   -3.994724959827e-17
    29   -1.870260309741e-16
    30   -2.667732742738e-16
    31   -8.177465696667e-13
    32   -3.686863671371e-17
    33    5.235152390841e-15
    34   -2.743488120113e-15
    35    9.983316663588e-16
    36   -2.500109487614e-01
    37   -1.514520526124e-15
Sym=X
Ene= 1.197721
Spin=Alpha
Occup=0
     1   -3.742708051161e-19
     2   -1.299336815527e-18
     3    3.613978840811e-20
     4    2.856196204924e-17
     5   -1.634759502550e-17
     6   -7.382357618123e-16
     7   -1.392416339343e-15
     8    8.109789404675e-19
     9   -9.394233085504e-16
    10   -5.452967718534e-16
    11    2.655207225073e-17
    12   -1.258211372341e-15
    13   -2.150122517522e-15
    14   -3.802054894360e-18
    15   -4.880659930002e-19
    16   -2.120922208198e-16
    17    1.487661177735e-16
    18   -1.651146384760e-15
    19    2.239915288609e-02
    20    3.129838420148e-17
    21    1.631506424478e-14
    22    1.683303168569e-14
    23    7.587677850841e-14
    24   -1.011400432344e+00
    25    2.910721459754e-18
    26   -1.611190155628e-16
    27    6.514894786588e-17
    28    9.418926203123e-16
    29   -1.194096184616e-02
    30   -8.911217870084e-18
    31    4.562334579413e-16
    32    8.031642067511e-18
    33   -6.187835611747e-17
    34    3.355304251425e-17
    35    5.055350072840e-15
    36    8.612166040588e-15
    37    1.338868799689e-17
Sym=X
Ene= 1.197721
Spin=Alpha
Occup=0
     1   -3.412762040470e-12
     2   -1.567391390645e-11
     3    1.110179098805e-10
     4   -2.733920799243e-10
     5    7.055901447496e-10
     6   -1.994740241486e-15
     7   -1.179350443969e-16
     8   -1.472162693929e-11
     9    9.762891302066e-16
    10    1.023587965497e-16
    11    1.128817593805e-10
    12    3.685677053933e-16
    13    2.004684296386e-16
    14    3.171918886457e-10
    15   -1.170367138174e-11
    16    1.815752782016e-16
    17   -5.295307821184e-17
    18   -2.239915288609e-02
    19   -1.808332614297e-15
    20    2.432797893516e-10
    21    2.805318468268e-15
    22   -2.516217448659e-15
    23    1.011400432344e+00
    24    7.614998765213e-14
    25    1.442492085006e-11
    26    2.272284601618e-16
    27    3.709182930712e-17
    28    1.194096184616e-02
    29    1.008066134344e-15
    30   -1.363376973118e-17
    31    7.773807867145e-17
    32    1.217559579216e-11
    33   -5.013225289860e-10
    34   -1.929350088735e-10
    35    6.513238552540e-16
    36   -8.018732637921e-16
    37    6.140004669291e-11
Sym=X
Ene= 1.471110
Spin=Alpha
Occup=0
     1    9.629284634936e-05
     2   -4.567272533460e-03
     3    2.638075575545e-01
     4   -9.168421239226e-01
     5   -1.025346808712e+00
     6    7.388116304587e-17
     7    6.661527016175e-17
     8    7.385651324651e-02
     9   -8.720895400495e-16
    10   -1.158191305764e-16
    11   -8.997796333021e-01
    12   -7.726648706324e-17
    13    6.735712012827e-16
    14   -9.875016922933e-01
    15    1.320805206162e-02
    16    2.821841822977e-16
    17   -1.361259004530e-17
    18   -4.346026812392e-13
    19   -9.973103759406e-17
    20   -1.597160595492e+00
    21   -2.170447425181e-15
    22    2.517021577384e-15
    23    1.416292467085e-10
    24    2.555137658524e-17
    25   -1.101292591525e-01
    26   -9.192820658586e-17
    27    5.085736127804e-17
    28    2.352436269188e-12
    29    1.564708802841e-16
    30   -2.332836017649e-16
    31   -1.865036549371e-16
    32   -2.496936622820e-01
    33    3.022031683451e+00
    34   -1.663525252360e-01
    35    2.595691987007e-15
    36   -1.831840484954e-15
    37   -4.742227875476e-01
Sym=X
Ene= 2.104837
Spin=Alpha
Occup=0
     1   -5.851889915347e-15
     2   -2.103353537964e-14
     3    1.603097202383e-13
     4   -2.899277511944e-13
     5    1.328434004532e-13
     6   -4.285652243495e-01
     7    9.545185165851e-15
     8    1.300072005800e-14
     9    3.363202047792e-01
    10   -1.458125925842e-15
    11   -8.509542539357e-14
    12   -3.747934110465e-01
    13    1.133005495107e-14
    14    2.349442224433e-14
    15   -2.804555888400e-16
    16    2.234672323472e-02
    17   -4.474485292840e-16
    18   -6.524933404582e-16
    19   -1.821110389618e-16
    20   -1.907102450931e-14
    21   -7.628342454689e-01
    22    3.688567853255e-14
    23   -3.874427971566e-16
    24    9.599576682945e-17
    25   -9.410330316983e-15
    26    2.077718675890e-02
    27   -2.049540366993e-15
    28   -2.680740863785e-16
    29   -5.217239676590e-17
    30   -8.083219971093e-13
    31   -6.253375953063e-16
    32   -2.614149476001e-14
    33    1.339031955207e-13
    34   -7.573575157376e-14
    35    1.096389149139e+00
    36   -5.296251358451e-14
    37   -5.557388392739e-14
Sym=X
Ene= 2.104837
Spin=Alpha
Occup=0
     1   -5.082003397949e-16
     2   -1.452945613316e-15
     3    1.460363593941e-14
     4   -3.588899585333e-14
     5    2.200071404704e-14
     6    3.015559720250e-14
     7    4.285652244254e-01
     8    1.060431576267e-14
     9   -2.841322904242e-14
    10   -3.363202048140e-01
    11   -2.772990390861e-14
    12    2.037495090629e-14
    13    3.747934110017e-01
    14    1.285526070708e-14
    15   -8.413026447369e-17
    16   -4.876347203734e-16
    17   -2.234672324073e-02
    18    1.098964763209e-16
    19    1.620790551263e-15
    20   -1.184361370859e-15
    21    3.190802059658e-14
    22    7.628342454414e-01
    23    1.837797777615e-17
    24   -3.659740694379e-15
    25   -2.381277416734e-15
    26   -1.231232269052e-16
    27   -2.077718675267e-02
    28    1.793020734992e-16
    29   -2.556217967073e-16
    30    2.141999599661e-17
    31    8.071729575803e-13
    32   -5.390246737694e-15
    33    2.408289671784e-14
    34   -1.816225555054e-14
    35   -4.536178222869e-14
    36   -1.096389149121e+00
    37   -1.098571977812e-14
Sym=X
Ene= 2.198037
Spin=Alpha
Occup=0
     1    1.069720488513e-01
     2    3.715416577992e-01
     3   -2.772801346983e+00
     4    4.862767976145e+00
     5   -2.488828788748e+00
     6   -4.340596167816e-14
     7    1.712174233326e-15
     8   -2.195070215779e-01
     9    4.634986915099e-14
    10    7.255029997850e-18
    11    1.217822377257e+00
    12   -3.264947544426e-14
    13    2.068422030443e-15
    14   -4.727520306761e-01
    15    1.854288941273e-02
    16    4.428895317594e-16
    17   -8.890665829872e-16
    18    5.888133204011e-12
    19   -4.046878477452e-17
    20    1.892748344844e-01
    21   -3.805034315158e-14
    22    7.033826047678e-15
    23    3.743759114629e-11
    24    1.883554343908e-17
    25    1.422399909407e-01
    26    3.024190822127e-15
    27    3.362623483582e-16
    28    1.617144504919e-12
    29    2.004145510289e-17
    30    3.792051093852e-16
    31    1.364375191133e-16
    32    5.723223322246e-01
    33   -2.098957188170e+00
    34    1.431663629503e+00
    35    5.582770593456e-14
    36   -9.840580712192e-15
    37    6.854261670221e-01
Sym=X
Ene= 2.246856
Spin=Alpha
Occup=0
     1   -6.008405234502e-02
     2   -2.090427629040e-01
     3    1.170904659167e+00
     4   -7.584735570975e-01
     5    4.732860977081e-01
     6   -5.620427729438e-15
     7    1.117344332597e-15
     8   -8.723538576310e-01
     9    8.055604680551e-15
    10    1.119258045737e-15
    11    1.794958059354e+00
    12   -3.194950736070e-15
    13    1.333605563249e-15
    14   -4.429052222987e-01
    15    1.668113375257e-02
    16   -6.067654413542e-17
    17   -3.417737851997e-16
    18   -2.452069627740e-12
    19   -6.720397510338e-17
    20    1.166527535060e-01
    21    1.276777765525e-15
    22    7.014847188338e-15
    23   -8.301193718459e-12
    24    4.016496498890e-17
    25    1.401079469265e-01
    26    4.864579214454e-16
    27   -3.542694048591e-16
    28   -4.181238722914e-12
    29   -1.235353275116e-16
    30   -9.009662487036e-17
    31   -7.387547220504e-16
    32    6.216159068432e-01
    33   -1.751854758869e+00
    34    5.768636984870e-01
    35   -2.060266886956e-15
    36   -1.037197809394e-14
    37    6.269873230989e-01
Sym=X
Ene= 2.361051
Spin=Alpha
Occup=0
     1    1.474775976619e-15
     2    4.840310325384e-15
     3   -3.612258464611e-14
     4    6.680244820416e-14
     5   -3.776577773779e-14
     6    1.181138857614e+00
     7    4.845440455120e-14
     8   -5.560073257245e-15
     9   -1.643546540207e+00
    10   -6.945339485823e-14
    11    1.944148334692e-14
    12    6.123677980404e-01
    13    2.290023707230e-14
    14   -8.269282591305e-15
    15    9.479326522460e-16
    16    1.706800787655e-02
    17    2.128526774968e-15
    18   -9.581073259525e-16
    19   -3.732991452724e-16
    20   -2.146890848875e-16
    21   -3.008492177320e-01
    22   -2.079092174573e-14
    23    2.582060828189e-15
    24    4.080146778537e-16
    25    2.891124535781e-15
    26    3.034375964258e-02
    27    1.058704363191e-15
    28    4.734026540270e-16
    29   -9.452572255559e-17
    30    1.481426578986e-11
    31    3.809664086187e-16
    32    1.772097059055e-14
    33   -4.017164377285e-14
    34    2.740903392936e-14
    35    4.964474264734e-01
    36    3.316432821724e-14
    37    8.634504346984e-15
Sym=X
Ene= 2.361051
Spin=Alpha
Occup=0
     1   -1.226697181724e-16
     2   -2.933263507544e-16
     3   -2.103700079821e-15
     4    1.491778551691e-14
     5   -4.925391320475e-15
     6   -5.914034859706e-14
     7    1.181138857619e+00
     8   -2.296318553479e-16
     9    7.892242360943e-14
    10   -1.643546540127e+00
    11    1.183230671842e-14
    12   -3.176440298400e-14
    13    6.123677979433e-01
    14   -1.550488014470e-15
    15   -1.946134244297e-16
    16   -1.664817846840e-16
    17    1.706800788131e-02
    18    3.892760221606e-16
    19   -7.387438444502e-16
    20    4.196712422040e-15
    21    6.006690099741e-15
    22   -3.008492177653e-01
    23    2.156723293092e-17
    24    3.464432393553e-16
    25    1.508902290185e-15
    26   -2.404644586817e-15
    27    3.034375964839e-02
    28    5.531097886772e-16
    29   -1.318176501560e-15
    30    3.488484189118e-16
    31    1.481076139908e-11
    32    1.882986518918e-15
    33   -1.808098998827e-14
    34    7.012549607443e-15
    35   -1.208592010108e-14
    36    4.964474265297e-01
    37    1.058293492223e-14
Sym=X
Ene= 2.705760
Spin=Alpha
Occup=0
     1    3.905665367986e-02
     2    1.328116482025e-01
     3   -6.191296224932e-01
     4   -4.807945564419e-02
     5   -9.988525424410e-01
     6    3.407014132741e-15
     7    5.549041444571e-15
     8   -8.822961308382e-01
     9   -2.384506827171e-15
    10   -5.796891109523e-15
    11    1.423986866851e-01
    12    1.063801799920e-15
    13    1.989590961323e-15
    14   -8.535560017132e-01
    15   -5.886085667887e-03
    16   -9.946694428276e-16
    17   -5.102997074764e-16
    18    1.499383347591e-13
    19    1.572139925963e-17
    20   -3.528391087051e-01
    21    3.635513534267e-15
    22    1.622080848995e-15
    23    7.610923033253e-14
    24   -2.133853176353e-17
    25   -2.453442901260e-01
    26    1.119522148816e-15
    27    1.230408719633e-15
    28   -1.366049373856e-11
    29    5.696476253412e-16
    30   -5.555671124758e-16
    31    1.914095130484e-16
    32   -5.715333733691e-01
    33    1.882346228124e+00
    34    2.558131685391e-01
    35   -4.064402655210e-15
    36   -1.133580316730e-15
    37   -1.173028324506e+00
Sym=X
Ene= 3.192220
Spin=Alpha
Occup=0
     1   -3.630052835527e-04
     2    2.436766699662e-02
     3   -1.018401804490e+00
     4    3.365359909474e+00
     5   -4.532381636191e-01
     6    8.808167052621e-16
     7   -2.234851778034e-15
     8   -3.123286150657e-01
     9   -4.090543749934e-15
    10    2.480069022273e-15
    11    2.766177925964e+00
    12   -1.028586743617e-16
    13    1.003854158903e-16
    14   -1.214592271788e-01
    15   -1.702078616535e-01
    16    9.387254704687e-17
    17    2.316553459412e-16
    18   -5.124211335900e-12
    19    2.731232765622e-16
    20    1.558591581843e+00
    21   -6.936547976622e-15
    22    8.961645415893e-16
    23   -1.079277674546e-12
    24   -1.367881624484e-16
    25   -1.347662015097e-01
    26    3.388013345475e-15
    27   -2.381954974804e-15
    28   -2.765342394808e-11
    29   -4.780451463457e-17
    30    1.348923331355e-15
    31    1.005894424288e-15
    32   -8.575007563143e-01
    33   -2.770336545637e+00
    34    5.597358448502e-01
    35    1.131239519561e-14
    36   -2.538960782403e-15
    37    1.977209417307e+00
Sym=X
Ene= 4.201300
Spin=Alpha
Occup=0
     1    7.303686031001e-17
     2    1.634201311254e-16
     3   -6.737666986684e-16
     4   -1.478460118613e-16
     5   -3.444770993269e-15
     6    3.066927796816e-16
     7   -2.754423223223e-15
     8   -4.405062314337e-16
     9   -1.134327808567e-15
    10    5.800975090238e-15
    11   -1.016978031071e-15
    12   -1.505625443299e-16
    13   -1.920983015872e-15
    14   -2.246048247438e-15
    15   -6.185370250709e-16
    16   -3.012892794704e-15
    17    6.384674635024e-15
    18   -1.430575901300e-15
    19   -3.761226194361e-02
    20   -1.022268569868e-15
    21    4.317978468107e-16
    22    2.078379934464e-16
    23    7.132704836057e-16
    24    3.089288915640e-02
    25   -3.868159939573e-16
    26   -8.082178805288e-15
    27    1.085940250257e-14
    28    2.731961283987e-14
    29   -9.994198906244e-01
    30    4.854988547098e-13
    31   -1.696613979227e-12
    32   -5.049332608471e-16
    33    4.141666900324e-15
    34    1.505608984976e-15
    35    3.891731095542e-15
    36   -6.126409277553e-15
    37   -1.914074341710e-15
Sym=X
Ene= 4.201300
Spin=Alpha
Occup=0
     1   -2.232709338275e-13
     2   -1.576604992981e-12
     3    3.847832857409e-11
     4   -1.119284827920e-10
     5    2.029939619983e-11
     6    1.455303213389e-15
     7    1.362226691454e-15
     8    2.409970992831e-11
     9   -3.613590039552e-15
    10   -2.184065557548e-15
    11   -1.120211504375e-10
    12    1.219336721687e-15
    13    8.587341225593e-16
    14    1.085407877696e-11
    15    8.127958217240e-12
    16   -6.313666779587e-15
    17    1.900649285807e-15
    18   -3.761226194361e-02
    19   -2.341435123705e-15
    20   -5.617815580510e-11
    21    1.464194862794e-15
    22   -1.439517687606e-15
    23    3.089288915640e-02
    24    1.353893730652e-15
    25   -5.365331664050e-12
    26   -9.600379197256e-15
    27   -1.440102991001e-15
    28   -9.994198906244e-01
    29   -2.783467494038e-14
    30    4.508988106449e-13
    31    3.834737313663e-13
    32    4.173254046980e-11
    33    8.402300860178e-11
    34   -2.299842485668e-11
    35    4.139259203863e-15
    36    1.051024083415e-15
    37   -5.442506377860e-11
[5D7F]

======= END OF MOLDEN-FORMATTED INPUT FILE =======


        *************************************************************
        *                                                           *
        *  Thank you very much for using Q-Chem.  Have a nice day.  *
        *                                                           *
        *************************************************************


