                  Welcome to Q-Chem
     A Quantum Leap Into The Future Of Chemistry


 Q-Chem 6.0 (devel), Q-Chem, Inc., Pleasanton, CA (2022)

 E. Epifanovsky,  A. T. B. Gilbert,  Xintian Feng,  Joonho Lee,  Yuezhi Mao,  
 N. Mardirossian,  P. Pokhilko,  A. White,  M. Wormit,  M. P. Coons,  
 A. L. Dempwolff,  Zhengting Gan,  D. Hait,  P. R. Horn,  L. D. Jacobson,  
 I. Kaliman,  J. Kussmann,  A. W. Lange,  Ka Un Lao,  D. S. Levine,  Jie Liu,  
 S. C. McKenzie,  A. F. Morrison,  K. Nanda,  F. Plasser,  D. R. Rehn,  
 M. L. Vidal,  Zhi-Qiang You,  Ying Zhu,  B. Alam,  B. Albrecht,  
 A. Aldossary,  E. Alguire,  J. H. Andersen,  V. Athavale,  D. Barton,  
 K. Begam,  A. Behn,  N. Bellonzi,  Y. A. Bernard,  E. J. Berquist,  
 H. Burton,  A. Carreras,  K. Carter-Fenk,  Romit Chakraborty,  
 Chandrima Chakravarty,  Junhan Chen,  A. D. Chien,  K. D. Closser,  
 V. Cofer-Shabica,  L. Cunha,  S. Dasgupta,  Jia Deng,  M. de Wergifosse,  
 M. Diedenhofen,  Hainam Do,  S. Ehlert,  Po-Tung Fang,  S. Fatehi,  
 Qingguo Feng,  T. Friedhoff,  B. Ganoe,  J. Gayvert,  Qinghui Ge,  
 G. Gidofalvi,  M. Goldey,  J. Gomes,  C. Gonzalez-Espinoza,  S. Gulania,  
 A. Gunina,  J. A. Gyamfi,  M. W. D. Hanson-Heine,  P. H. P. Harbach,  
 A. W. Hauser,  M. F. Herbst,  M. Hernandez Vera,  M. Hodecker,  
 Z. C. Holden,  S. Houck,  Xunkun Huang,  Kerwin Hui,  B. C. Huynh,  
 K. Ikeda,  M. Ivanov,  Hyunjun Ji,  Zuxin Jin,  Hanjie Jiang,  B. Kaduk,  
 S. Kaehler,  R. Kang,  K. Khistyaev,  Jaehoon Kim,  Yongbin Kim,  
 P. Klunzinger,  Z. Koczor-Benda,  Joong Hoon Koh,  D. Kosenkov,  
 Saikiran Kotaru,  L. Koulias,  T. Kowalczyk,  C. M. Krauter,  K. Kue,  
 A. Kunitsa,  T. Kus,  A. Landau,  K. V. Lawler,  D. Lefrancois,  S. Lehtola,  
 Rain Li,  Shaozhi Li,  Yi-Pei Li,  Jiashu Liang,  M. Liebenthal,  
 Hung-Hsuan Lin,  You-Sheng Lin,  Fenglai Liu,  Kuan-Yu Liu,  
 M. Loipersberger,  A. Luenser,  C. Malbon,  A. Manjanath,  P. Manohar,  
 E. Mansoor,  S. F. Manzer,  Shan-Ping Mao,  A. V. Marenich,  T. Markovich,  
 S. Mason,  F. Matz,  S. A. Maurer,  P. F. McLaughlin,  M. F. S. J. Menger,  
 J.-M. Mewes,  S. A. Mewes,  P. Morgante,  Mohammad Mostafanejad,  
 J. W. Mullinax,  K. J. Oosterbaan,  G. Paran,  V. Parravicini,  
 Alexander C. Paul,  Suranjan K. Paul,  F. Pavosevic,  Zheng Pei,  S. Prager,  
 E. I. Proynov,  E. Ramos,  B. Rana,  A. E. Rask,  A. Rettig,  R. M. Richard,  
 F. Rob,  E. Rossomme,  T. Scheele,  M. Scheurer,  M. Schneider,  
 P. E. Schneider,  N. Sergueev,  S. M. Sharada,  Hengyuan Shen,  
 W. Skomorowski,  D. W. Small,  C. J. Stein,  Yingli Su,  Yu-Chuan Su,  
 E. J. Sundstrom,  Zhen Tao,  J. Thirman,  Hung-Yi Tsai,  T. Tsuchimochi,  
 N. M. Tubman,  C. Utku,  S. P. Veccham,  O. Vydrov,  J. Wenzel,  
 Jonathan Wong,  J. Witte,  A. Yamada,  Chou-Hsun Yang,  Kun Yao,  
 S. Yeganeh,  S. R. Yost,  A. Zech,  F. Zeller,  Igor Ying Zhang,  
 Xing Zhang,  Yu Zhang,  D. Zuev,  A. Aspuru-Guzik,  A. T. Bell,  
 N. A. Besley,  K. B. Bravaya,  B. R. Brooks,  D. Casanova,  Jeng-Da Chai,  
 Hsing-Ta Chen,  S. Coriani,  C. J. Cramer,  A. E. DePrince, III,  
 R. A. DiStasio Jr.,  A. Dreuw,  B. D. Dunietz,  T. R. Furlani,  
 W. A. Goddard III,  S. Grimme,  S. Hammes-Schiffer,  T. Head-Gordon,  
 W. J. Hehre,  Chao-Ping Hsu,  T.-C. Jagau,  Yousung Jung,  A. Klamt,  
 Jing Kong,  D. S. Lambrecht,  Xiangyuan Li,  WanZhen Liang,  N. J. Mayhall,  
 C. W. McCurdy,  J. B. Neaton,  T. Neudecker,  C. Ochsenfeld,  
 J. A. Parkhill,  R. Peverati,  V. A. Rassolov,  Haisheng Ren,  Yihan Shao,  
 L. V. Slipchenko,  R. P. Steele,  J. E. Subotnik,  A. J. W. Thom,  
 A. Tkatchenko,  D. G. Truhlar,  T. Van Voorhis,  Fan Wang,  
 T. A. Wesolowski,  K. B. Whaley,  H. L. Woodcock III,  P. M. Zimmerman,  
 S. Faraji,  P. M. W. Gill,  M. Head-Gordon,  J. M. Herbert,  A. I. Krylov

 Contributors to earlier versions of Q-Chem not listed above: 
 R. D. Adamson,  B. Austin,  R. Baer,  J. Baker,  G. J. O. Beran,  
 K. Brandhorst,  S. T. Brown,  E. F. C. Byrd,  Arup K. Chakraborty,  
 G. K. L. Chan,  Chun-Min Chang,  Yunqing Chen,  C.-L. Cheng,  
 Siu Hung Chien,  D. M. Chipman,  D. L. Crittenden,  H. Dachsel,  
 R. J. Doerksen,  A. D. Dutoi,  R. G. Edgar,  J. Fosso-Tande,  
 L. Fusti-Molnar,  D. Ghosh,  A. Ghysels,  A. Golubeva-Zadorozhnaya,  
 J. Gonthier,  M. S. Gordon,  S. R. Gwaltney,  G. Hawkins,  J. E. Herr,  
 A. Heyden,  S. Hirata,  E. G. Hohenstein,  G. Kedziora,  F. J. Keil,  
 C. Kelley,  Jihan Kim,  R. A. King,  R. Z. Khaliullin,  P. P. Korambath,  
 W. Kurlancheek,  A. Laurent,  A. M. Lee,  M. S. Lee,  S. V. Levchenko,  
 Ching Yeh Lin,  D. Liotard,  E. Livshits,  R. C. Lochan,  I. Lotan,  
 L. A. Martinez-Martinez,  P. E. Maslen,  N. Nair,  D. P. O'Neill,  
 D. Neuhauser,  E. Neuscamman,  C. M. Oana,  R. Olivares-Amaya,  R. Olson,  
 T. M. Perrine,  B. Peters,  P. A. Pieniazek,  A. Prociuk,  Y. M. Rhee,  
 J. Ritchie,  M. A. Rohrdanz,  E. Rosta,  N. J. Russ,  H. F. Schaefer III,  
 M. W. Schmidt,  N. E. Schultz,  S. Sharma,  N. Shenvi,  C. D. Sherrill,  
 A. C. Simmonett,  A. Sodt,  T. Stein,  D. Stuck,  K. S. Thanthiriwatte,  
 V. Vanovschi,  L. Vogt,  Tao Wang,  A. Warshel,  M. A. Watson,  
 C. F. Williams,  Q. Wu,  X. Xu,  Jun Yang,  W. Zhang,  Yan Zhao

   Please cite Q-Chem as follows:
  "Software for the frontiers of quantum chemistry:
   An overview of developments in the Q-Chem 5 package"
   J. Chem. Phys. 155, 084801 (2021)
   https://doi.org/10.1063/5.0055522 (open access)

 Q-Chem 6.0.1 for Intel X86 EM64T Linux

 Parts of Q-Chem use Armadillo 9.900.5 (Nocturnal Misbehaviour).
 http://arma.sourceforge.net/

 Q-Chem begins on Wed Jun 21 09:04:01 2023  

 Host: atlas-169
0

     Scratch files written to ./qchem63732//
 Processing $rem in /scratch/abel/SOFTWARE/qchem/config/preferences:
 Processing $rem in /dipc/acebg/.qchemrc:

 Checking the input file for inconsistencies... 	...done.

--------------------------------------------------------------
User input:
--------------------------------------------------------------
$comment
 RAS-SF CALCULATION
$end

$molecule
 READ nh.molecule
$end

$rem
!**CALCULATION TYPE***     
JOBTYPE            sp    
EXCHANGE           HF
CORRELATION        RASCI    !RASCI=Casanova; RASCI2=Zimmerman
BASIS              def2-TZVP

!***SCF REFERENCE***
!SKIP_SCFMAN        FALSE
UNRESTRICTED       FALSE
!SCF_GUESS          core
!SCF_GUESS_MIX      FALSE
!SCF_GUESS_ALWAYS   FALSE
MAX_SCF_CYCLES     500
!SCF_CONVERGENCE    8
!SCF_ALGORITHM      DIIS !DIIS,DM,DIIS_DM,GDM,DIIS_GDM,GD

!SYMMETRY           TRUE !use of symmetry for calculating integrals
!SYM_IGNORE         FALSE !turn off using symmetry
!SYM_TOL            5 !tolerance for determining point group

!THRESH             14
SCF_FINAL_PRINT     1 !0,1,2,3

!****RAS-SF****
RAS_ROOTS          20       !number of RAS-CI roots to be computed
SET_ITER           150     !number of iterations in RASCI
RAS_ELEC           8       !number of electrons in RAS2
RAS_ELEC_ALPHA     5       !spin-α electrons in RAS2 
RAS_ELEC_BETA      3      !spin-β electrons in RAS2

RAS_ACT            7       !number of orbitals in RAS2 
RAS_ACT_ORB   [1, 2, 3, 4, 5, 6, 7]  !user-selected RAS2 orbitals
RAS_OCC            0       !number of orbitals in RAS1
!N_FROZEN_CORE      0     !Number of frozen core orbitals
!N_FROZEN_VIRTUAL   0      !Number of frozen virtual orbitals

RAS_DO_HOLE        TRUE   !presence of hole excitations in RAS-CI wave function
RAS_DO_PART        TRUE   !presence of particle excitations
!RAS_AMPL_PRINT     10     !threshold (×10 2 ) for the CI amplitudes

!RAS_GUESS_CS       0      !number of closed shell guess conﬁgurations
!RAS_SPIN_MULT      0      !spin multiplicity: 0=any, 2n+1=defined 
!RAS_SRDFT          FALSE  !short-range density functional RAS-CI
!RAS_NFRAG          0     !fragments of excitation analysis in RASCI

RAS_PRINT          2      !level of information
RAS_NATORB         TRUE   !computation of the natural orbital occupancies
!RAS_NATORB_STATE  0      !Saves NO of i RAS computed state in .fchk ﬁle
!RAS_FOD            TRUE

!****RAS-SOC****
CALC_SOC           TRUE   !calculate SOC for EOM-CC, RAS-CI, ADC, TDDFT/TDA and TDDFT
!RAS_SOC_2E        TRUE   !two-electron mean-ﬁeld contribution, default=true
RAS_SOC_SYM_DENS   TRUE   !averaging of α and β densities

!****MEMORY****
MEM_TOTAL          60000 !Default 2000 MB
MEM_STATIC         16000  !Default 64 MB

!**Molecular Properties and Analysis **                                                                                          
!GUI                2
STATE_ANALYSIS     TRUE
MOLDEN_FORMAT      TRUE
PRINT_ORBITALS     20
$end                                           

--------------------------------------------------------------
 ----------------------------------------------------------------
             Standard Nuclear Orientation (Angstroms)
    I     Atom           X                Y                Z
 ----------------------------------------------------------------
    1      N       0.0000000000     0.0000000000    -0.1295250000
    2      H       0.0000000000     0.0000000000     0.9066750000
 ----------------------------------------------------------------
 Molecular Point Group                 C2v   NOp =  4
 Largest Abelian Subgroup              C2v   NOp =  4
 Nuclear Repulsion Energy =           3.57483157 hartrees
 There are        5 alpha and        3 beta electrons
 Requested basis set is def2-TZVP
 There are 15 shells and 37 basis functions

 Q-Chem warning in module libmdc/get_mega.C, line 167:

 Allowed MEM_STATIC has been capped at MEM_STATIC=8191.
 Reduce the value of MEM_STATIC to silence this warning.


 Total QAlloc Memory Limit  60000 MB
 Mega-Array Size      8007 MB
 MEM_STATIC part      8191 MB


                       Distance Matrix (Angstroms)
             N (  1)
   H (  2)  1.036200
 
 A cutoff of  1.0D-09 yielded    120 shell pairs
 There are       756 function pairs (       990 Cartesian)
 Smallest overlap matrix eigenvalue = 7.92E-03

 Scale SEOQF with 1.000000e+00/1.000000e+00/1.000000e+00

 Standard Electronic Orientation quadrupole field applied
 Nucleus-field energy     =    -0.0000000010 hartrees
 Guess from superposition of atomic densities
 Warning:  Energy on first SCF cycle will be non-variational
 SAD guess density has 8.000000 electrons

 -----------------------------------------------------------------------
  General SCF calculation program by
  Eric Jon Sundstrom, Paul Horn, Yuezhi Mao, Dmitri Zuev, Alec White,
  David Stuck, Shaama M.S., Shane Yost, Joonho Lee, David Small,
  Daniel Levine, Susi Lehtola, Hugh Burton, Evgeny Epifanovsky,
  Bang C. Huynh
 -----------------------------------------------------------------------
 Hartree-Fock
 Orthonormalizing orbitals
 A restricted open-shell SCF calculation will be
 performed using GDM
 SCF converges when RMS gradient is below 1.0e-05
 ---------------------------------------
  Cycle       Energy        RMS Gradient
 ---------------------------------------
    1     -54.8699534210      2.12e-01   Descent step
    2     -54.9645825002      7.24e-02   Normal BFGS step
    3     -54.9749076107      7.32e-03   Normal BFGS step
    4     -54.9750500706      2.21e-03   Normal BFGS step
    5     -54.9750598361      3.02e-04   Normal BFGS step
    6     -54.9750600368      6.25e-05   Normal BFGS step
    7     -54.9750600525      2.84e-05   Normal BFGS step
    8     -54.9750600548      7.66e-06  Convergence criterion met
The disked orbital energies are calculated using alpha and beta Focks
 ---------------------------------------
 Alpha HF Exchange    Energy =  -4.00407646764088
 Beta HF Exchange     Energy =  -2.91824793559959
 Nuclear Attraction   Energy =   0.00000000000000
 One-Electron (alpha) Energy = -46.02191488198879
 One-Electron (beta)  Energy = -35.60130795758230
 Total Coulomb        Energy =  29.99565561637414
 Final Alpha MO Eigenvalues
            1           2           3           4           5           6
    1 -15.6370037  -1.1538936  -0.5926885  -0.5374489  -0.5374489   0.1438757
            7           8           9          10          11          12
    1   0.4341770   0.4563987   0.4563987   0.4767601   0.6361650   1.1444744
           13          14          15          16          17          18
    1   1.1444744   1.1977205   1.1977205   1.4711100   2.1048374   2.1048374
           19          20          21          22          23          24
    1   2.1980373   2.2468561   2.3610511   2.3610511   2.7057604   3.1922197
           25          26          27          28          29          30
    1   4.2012999   4.2012999   4.1947019   4.1947019   4.5391584   4.5391584
           31          32          33          34          35          36
    1   4.7772054   4.7772054   4.9115018   4.9115018   5.1102651   5.7963178
           37
    1  32.4905269
 Final Beta MO Eigenvalues
            1           2           3           4           5           6
    1 -15.5822329  -0.9289304  -0.5069134   0.1828706   0.1828706   0.1567547
            7           8           9          10          11          12
    1   0.4629832   0.5347373   0.5347373   0.5058087   0.6681778   1.2199018
           13          14          15          16          17          18
    1   1.2199018   1.3364970   1.3364970   1.5160047   2.1427876   2.1427876
           19          20          21          22          23          24
    1   2.2508996   2.2792157   2.4846002   2.4846002   2.7363297   3.2206019
           25          26          27          28          29          30
    1   4.2738924   4.2738924   4.2957214   4.2957214   4.5995384   4.5995384
           31          32          33          34          35          36
    1   4.9324800   4.9324800   4.9897643   4.9897643   5.1715899   5.8267964
           37
    1  32.5228101
 SCF time:   CPU 1.05s  wall 2.00s 
<S^2> =          2.000000000
 SCF   energy in the final basis set =      -54.9750600548
 Total energy in the final basis set =      -54.9750600548
  
     ##========================================##
     ||                                        ||
     ||              R A S M A N 2             ||
     ||________________________________________||
     ||                                        ||
     ||  Author:                               ||
     ||                                        ||
     ||        David Casanova (2010)           ||
     ||                                        ||
     ##========================================##
  
Setting single-point xc-functionals (if necessary)

  ***************************************************
  *  RAS-CI Dimensions:                             *
  *                                                 *
  *  Active Elec.:   8 ( 5, 3)   Active Orb.:   7   *
  *  Doubly Occ. :   0           Doubly Vir.:  30   *
  *  Frozen Occ. :   0           Frozen Vir.:   0   *
  *                                                 *
  *  Total CI configurations:     50715             * 
  *    Active configurations:       735             * 
  *      Hole configurations:         0             * 
  *  Particle configurations:     49980             * 
  *                                                 *
  *   Requested states:       20                    *
  *  Spin multiplicity: Any multiplicity            *
  *                                                 *
  ***************************************************
-----------------------------------------
    Memory requirements of RASCI

 Each CI-vector requires      0.39 MiB 
 Max. subspace vectors           3000      

 Reduced Lists                0.00 MiB 
 Excitation Lists             0.00 MiB 
 Excitation Lists Sign        0.00 MiB 
 CI-space (Max)            1237.20 MiB 
 Integrals                    1.19 MiB 
 Memory required (Max)     1237.20 MiB 
 Memory available          7811.55 MiB 

    Disk requirements of RASCI

 Fock matrix                  0.02 MiB 
 2-electron integrals         1.54 MiB 
 CI-space                  2321.55 MiB 
 Disk required             2323.11 MiB 
-----------------------------------------
  
RAS1 HF-like energy:              3.5748315717
 Computing integrals
 Computing J and K matrices
 Computing addressing
 Making amplitude guesses
 
Direct CI diagonalization
 ---------------------------------------------------
 Iter    Rts Conv    Rts Left    Ttl Dev     Max Dev
 ---------------------------------------------------
   1         0          20      0.278788    0.021645
   2         0          20      0.323691    0.031104
   3         0          20      0.410627    0.050324
   4         0          20      0.207750    0.035206
   5         0          20      0.103097    0.011445
   6         0          20      0.107208    0.009306
   7         0          20      0.075697    0.007131
   8         0          20      0.075479    0.006370
   9         0          20      0.062707    0.008257
  10         0          20      0.052590    0.005922
  11         0          20      0.047395    0.005398
  12         0          20      0.040717    0.004846
  13         0          20      0.035949    0.003593
  14         0          20      0.030431    0.003265
  15         0          20      0.027966    0.003012
  16         0          20      0.021556    0.001892
  17         0          20      0.024472    0.004139
  18         0          20      0.017726    0.001930
  19         0          20      0.018795    0.002659
  20         0          20      0.014888    0.001727
  21         0          20      0.016118    0.002356
  22         0          20      0.012262    0.001708
  23         0          20      0.012474    0.002197
  24         0          20      0.010801    0.001535
  25         0          20      0.012719    0.002371
  26         0          20      0.011507    0.001872
  27         0          20      0.010997    0.002063
  28         0          20      0.009827    0.001562
  29         0          20      0.007936    0.001457
  30         0          20      0.007628    0.001359
  31         2          18      0.006434    0.000951
  32         2          18      0.005865    0.001271
  33         2          18      0.009577    0.002257
  34         4          16      0.007872    0.001677
  35         4          16      0.008403    0.001817
  36         4          16      0.006536    0.001290
  37         4          16      0.006500    0.001521
  38         4          16      0.005406    0.000912
  39         5          15      0.005662    0.001482
  40         5          15      0.005878    0.001397
  41         5          15      0.005949    0.001690
  42         5          15      0.004421    0.001168
  43         6          14      0.004516    0.001460
  44         7          13      0.003259    0.000869
  45         7          13      0.003154    0.000816
  46         8          12      0.003705    0.001134
  47         8          12      0.003173    0.000739
  48         8          12      0.002604    0.000839
  49         8          12      0.002099    0.000530
  50         9          11      0.001852    0.000533
  51         9          11      0.001221    0.000328
  52        11           9      0.001121    0.000294
  53        11           9      0.000768    0.000247
  54        12           8      0.000766    0.000189
  55        13           7      0.000544    0.000211
  56        13           7      0.000473    0.000137
  57        13           7      0.000348    0.000121
  58        13           7      0.000253    0.000069
  59        13           7      0.000195    0.000066
  60        13           7      0.000146    0.000043
  61        14           6      0.000128    0.000041
  62        15           5      0.000091    0.000035
  63        16           4      0.000080    0.000028
  64        16           4      0.000068    0.000028
  65        16           4      0.000055    0.000017
  66        16           4      0.000043    0.000018
  67        17           3      0.000029    0.000009
  68        17           3      0.000029    0.000011
  69        18           2      0.000020    0.000006
  70        18           2      0.000020    0.000006
  71        18           2      0.000015    0.000004
  72        18           2      0.000015    0.000003
  73        18           2      0.000013    0.000003
  74        18           2      0.000012    0.000002
  75        18           2      0.000010    0.000002
  76        19           1      0.000009    0.000001
  77        20           0      0.000008    0.000001    Roots Converged
 ---------------------------------------------------
   
**************************************************
 RAS-CI total energy for state   1:    -42.145100405406
  Excitation energy (eV) =  0.000000000000
  State symmetry: B2    (C2v      )
  <S^2>      :  2.0000
  Dipole Moment:   -0.0000 X    -0.0000 Y     4.3734 Z
 NATURAL OCCUPATION NUMBERS (higher than 1.0E-05)
            1           2           3           4           5           6
    1   1.9832295   1.8477644   1.2932026   1.0000120   0.9999009   0.7060955
            7           8           9          10          11
    1   0.1513730   0.0183249   0.0000313   0.0000174   0.0000105
 Created directory ./qchem63732/plots

  Amplitudes : 
  
 | HOLE  | ALPHA   | BETA    | PART  |    AMPLITUDE 
--------------------------------------------------
 |       | 0111100 | 1110000 |  37   |     1.4210602736128E-01
 |       | 0111100 | 1100010 |  37   |     1.9172673256371E-01
 |       | 0111100 | 1010010 |  37   |    -2.2284261869813E-01
 |       | 0111100 | 0111000 |  37   |     3.3306430052770E-01
 |       | 0101110 | 0111000 |  37   |     1.1077381442307E-01
 |       | 0011110 | 0111000 |  37   |    -1.4907214777993E-01
 |       | 0111010 | 0101100 |  37   |    -1.8427994073800E-01
 |       | 0111100 | 0101010 |  37   |    -4.3229522130622E-01
 |       | 0111100 | 0101001 |  37   |     1.5547291573778E-01
 |       | 0111010 | 0011100 |  37   |     1.9916324953275E-01
 |       | 0111100 | 0011010 |  37   |     5.0758483277275E-01
 |       | 0111100 | 0011001 |  37   |    -1.3166284910527E-01
 |       | 0111110 | 0101000 |  37   |    -1.3724146614676E-01
 |       | 0111110 | 0011000 |  37   |     1.5934943546169E-01
--------------------------------------------------
*** Contributions RASCI wfn    Active:   0.04
                                 Hole:   0.00
                                 Part:  99.96

      Mulliken population analysis 
 ---------------------------------------------------
   Atom    Charge (a.u.)   Spin (a.u.)  
 ---------------------------------------------------
   1  N   -0.874905        4.239704 
   2  H   -2.419632        0.526091 
 ---------------------------------------------------
   Sum:   -3.294537        4.765795 
 ---------------------------------------------------
 
  
 NATURAL OCCUPATION NUMBERS (higher than 1.0E-05)
            1           2           3           4           5           6
    1   1.9832295   1.8477644   1.2932026   1.0000120   0.9999009   0.7060955
            7           8           9          10          11
    1   0.1513730   0.0183249   0.0000313   0.0000174   0.0000105
  
*** Unpaired Electrons
 Yamaguchi Nd:         4.46
 Head-Gordon Nu:       3.75
 Head-Gordon Nu_nl:    3.83
  
**************************************************
 RAS-CI total energy for state   2:    -42.052855878201
  Excitation energy (eV) =  2.510101295223
  State symmetry: B1    (C2v      )
  <S^2>      :  2.0000
  Dipole Moment:   -0.0000 X    -0.0000 Y     4.3182 Z
  Trans. Moment:    0.0000 X    -0.0000 Y    -0.0000 Z
  Strength   :  0.000000
  Natural transition orbitals ( 1 -> 2 ):
   e-/hole pair  1 alpha:  ampl =  0.155379 (  2.4%)   [7 : 8]
   e-/hole pair  2 alpha:  ampl =  0.007773 (  0.0%)   [6 : 9]
   e-/hole pair  1 beta :  ampl =  0.873011 ( 76.2%)   [7 : 8]
   e-/hole pair  2 beta :  ampl =  0.001038 (  0.0%)   [6 : 9]
   Sum of square amplitudes: 0.79

 NATURAL OCCUPATION NUMBERS (higher than 1.0E-05)
            1           2           3           4           5           6
    1   1.9980231   1.9850602   1.3053773   0.9998812   0.9978732   0.6939268
            7           8           9          10          11          12
    1   0.0167627   0.0029779   0.0000357   0.0000201   0.0000172   0.0000112
           13
    1   0.0000101

  Amplitudes : 
  
 | HOLE  | ALPHA   | BETA    | PART  |    AMPLITUDE 
--------------------------------------------------
 |       | 0111100 | 0110100 |  37   |     3.6922205314738E-01
 |       | 0101110 | 0110100 |  37   |     1.2387741932368E-01
 |       | 0011110 | 0110100 |  37   |    -1.6566240241788E-01
 |       | 0110110 | 0101100 |  37   |    -2.0928683962217E-01
 |       | 0111100 | 0100110 |  37   |    -4.8421314367709E-01
 |       | 0111100 | 0100101 |  37   |     1.9059102388431E-01
 |       | 0110110 | 0011100 |  37   |     2.2478705377577E-01
 |       | 0111100 | 0010110 |  37   |     5.6645917563638E-01
 |       | 0111100 | 0010101 |  37   |    -1.5405373020795E-01
 |       | 0111110 | 0100100 |  37   |    -1.5104888473470E-01
 |       | 0111110 | 0010100 |  37   |     1.7600971944619E-01
--------------------------------------------------
*** Contributions RASCI wfn    Active:   0.04
                                 Hole:   0.00
                                 Part:  99.96

      Mulliken population analysis 
 ---------------------------------------------------
   Atom    Charge (a.u.)   Spin (a.u.)  
 ---------------------------------------------------
   1  N   -0.886504        4.288813 
   2  H   -2.409617        0.586885 
 ---------------------------------------------------
   Sum:   -3.296121        4.875697 
 ---------------------------------------------------
 
  
 NATURAL OCCUPATION NUMBERS (higher than 1.0E-05)
            1           2           3           4           5           6
    1   1.9980231   1.9850602   1.3053773   0.9998812   0.9978732   0.6939268
            7           8           9          10          11          12
    1   0.0167627   0.0029779   0.0000357   0.0000201   0.0000172   0.0000112
           13
    1   0.0000101
  
*** Unpaired Electrons
 Yamaguchi Nd:         3.89
 Head-Gordon Nu:       3.42
 Head-Gordon Nu_nl:    3.65
  
**************************************************
 RAS-CI total energy for state   3:    -42.050082207902
  Excitation energy (eV) =  2.585576704113
  State symmetry: A2    (C2v      )
  <S^2>      :  2.0000
  Dipole Moment:   -0.0000 X     0.0000 Y     2.9263 Z
  Trans. Moment:    0.8795 X     0.0000 Y     0.0000 Z
  Strength   :  0.048998
  Natural transition orbitals ( 1 -> 3 ):
   e-/hole pair  1 alpha:  ampl =  0.261851 (  6.9%)   [7 : 8]
   e-/hole pair  2 alpha:  ampl =  0.019352 (  0.0%)   [6 : 9]
   e-/hole pair  1 beta :  ampl =  0.804142 ( 64.7%)   [7 : 8]
   e-/hole pair  2 beta :  ampl =  0.034635 (  0.1%)   [6 : 9]
   Sum of square amplitudes: 0.72

 NATURAL OCCUPATION NUMBERS (higher than 1.0E-05)
            1           2           3           4           5           6
    1   1.9979347   1.3057560   1.0148453   1.0011568   1.0000135   0.9836376
            7           8           9          10          11
    1   0.6945660   0.0020215   0.0000191   0.0000159   0.0000116

  Amplitudes : 
  
 | HOLE  | ALPHA   | BETA    | PART  |    AMPLITUDE 
--------------------------------------------------
 |       | 0111100 | 0110010 |  37   |    -1.9641307338515E-01
 |       | 0101101 | 0110010 |  37   |     1.1358986250242E-01
 |       | 0011101 | 0110010 |  37   |    -1.4526166304963E-01
 |       | 0111100 | 0110001 |  37   |    -2.6914515705053E-01
 |       | 0011110 | 0110001 |  37   |     1.0058819283719E-01
 |       | 0110101 | 0101010 |  37   |    -1.1130726786038E-01
 |       | 0110110 | 0101001 |  37   |     1.3797290360820E-01
 |       | 0111001 | 0100110 |  37   |     1.1117391569110E-01
 |       | 0111010 | 0100101 |  37   |    -1.3836219879938E-01
 |       | 0111100 | 0100011 |  37   |    -4.6390481296235E-01
 |       | 0110101 | 0011010 |  37   |     1.1688679252725E-01
 |       | 0110110 | 0011001 |  37   |    -1.4949574309181E-01
 |       | 0111001 | 0010110 |  37   |    -1.1822911343068E-01
 |       | 0111010 | 0010101 |  37   |     1.4836343241605E-01
 |       | 0111100 | 0010011 |  37   |     5.1254322852288E-01
 |       | 0111110 | 0010001 |  37   |    -1.1409586017591E-01
 |       | 0111101 | 0100010 |  37   |    -1.2783376690819E-01
 |       | 0111101 | 0010010 |  37   |     1.3216565951499E-01
--------------------------------------------------
*** Contributions RASCI wfn    Active:   0.04
                                 Hole:   0.00
                                 Part:  99.96

      Mulliken population analysis 
 ---------------------------------------------------
   Atom    Charge (a.u.)   Spin (a.u.)  
 ---------------------------------------------------
   1  N   -0.907197        4.121047 
   2  H   -2.388579        0.454039 
 ---------------------------------------------------
   Sum:   -3.295776        4.575086 
 ---------------------------------------------------
 
  
 NATURAL OCCUPATION NUMBERS (higher than 1.0E-05)
            1           2           3           4           5           6
    1   1.9979347   1.3057560   1.0148453   1.0011568   1.0000135   0.9836376
            7           8           9          10          11
    1   0.6945660   0.0020215   0.0000191   0.0000159   0.0000116
  
*** Unpaired Electrons
 Yamaguchi Nd:         5.82
 Head-Gordon Nu:       5.36
 Head-Gordon Nu_nl:    5.64
  
**************************************************
 RAS-CI total energy for state   4:    -41.957755859058
  Excitation energy (eV) =  5.097904479406
  State symmetry: B2    (C2v      )
  <S^2>      :  2.0000
  Dipole Moment:    0.0000 X     0.0000 Y    -0.3834 Z
  Trans. Moment:    0.0000 X    -0.0000 Y    -0.2541 Z
  Strength   :  0.008061
  Natural transition orbitals ( 1 -> 4 ):
   e-/hole pair  1 alpha:  ampl =  0.249882 (  6.2%)   [7 : 8]
   e-/hole pair  2 alpha:  ampl =  0.021007 (  0.0%)   [6 : 9]
   e-/hole pair  1 beta :  ampl =  0.753337 ( 56.8%)   [7 : 8]
   e-/hole pair  2 beta :  ampl =  0.026592 (  0.1%)   [6 : 9]
   Sum of square amplitudes: 0.63

 NATURAL OCCUPATION NUMBERS (higher than 1.0E-05)
            1           2           3           4           5           6
    1   1.9920691   1.8010931   1.0732062   1.0000168   0.9998960   0.9240307
            7           8           9          10          11
    1   0.1991715   0.0104232   0.0000306   0.0000177   0.0000164

  Amplitudes : 
  
 | HOLE  | ALPHA   | BETA    | PART  |    AMPLITUDE 
--------------------------------------------------
 |       | 0111100 | 1100010 |  37   |    -1.1360018666807E-01
 |       | 0111100 | 1100001 |  37   |    -2.6687729653359E-01
 |       | 0111100 | 1010010 |  37   |     1.0626643905042E-01
 |       | 0111100 | 1010001 |  37   |     2.6048098498393E-01
 |       | 0101101 | 0111000 |  37   |    -1.6194949219374E-01
 |       | 0011101 | 0111000 |  37   |     1.5411908142506E-01
 |       | 0111001 | 0101100 |  37   |     1.6257086699883E-01
 |       | 0111100 | 0101010 |  37   |     1.7613416439091E-01
 |       | 0111100 | 0101001 |  37   |     4.8941479133808E-01
 |       | 0111001 | 0011100 |  37   |    -1.4616079056687E-01
 |       | 0111100 | 0011010 |  37   |    -1.4611177634727E-01
 |       | 0111100 | 0011001 |  37   |    -4.4984183951177E-01
 |       | 0111101 | 0101000 |  37   |     1.6489443214482E-01
 |       | 0111101 | 0011000 |  37   |    -1.4956196751922E-01
--------------------------------------------------
*** Contributions RASCI wfn    Active:   0.03
                                 Hole:   0.00
                                 Part:  99.97

      Mulliken population analysis 
 ---------------------------------------------------
   Atom    Charge (a.u.)   Spin (a.u.)  
 ---------------------------------------------------
   1  N   -2.469352        3.324368 
   2  H   -0.828733        1.340540 
 ---------------------------------------------------
   Sum:   -3.298085        4.664908 
 ---------------------------------------------------
 
  
 NATURAL OCCUPATION NUMBERS (higher than 1.0E-05)
            1           2           3           4           5           6
    1   1.9920691   1.8010931   1.0732062   1.0000168   0.9998960   0.9240307
            7           8           9          10          11
    1   0.1991715   0.0104232   0.0000306   0.0000177   0.0000164
  
*** Unpaired Electrons
 Yamaguchi Nd:         4.74
 Head-Gordon Nu:       4.27
 Head-Gordon Nu_nl:    4.24
  
**************************************************
 RAS-CI total energy for state   5:    -41.952177233350
  Excitation energy (eV) =  5.249706608383
  State symmetry: A1    (C2v      )
  <S^2>      :  2.0000
  Dipole Moment:   -0.0000 X    -0.0000 Y     0.9642 Z
  Trans. Moment:    0.0000 X     0.1020 Y    -0.0000 Z
  Strength   :  0.001338
  Natural transition orbitals ( 1 -> 5 ):
   e-/hole pair  1 alpha:  ampl =  0.298280 (  8.9%)   [7 : 8]
   e-/hole pair  2 alpha:  ampl =  0.008895 (  0.0%)   [6 : 9]
   e-/hole pair  1 beta :  ampl =  0.837460 ( 70.1%)   [7 : 8]
   e-/hole pair  2 beta :  ampl =  0.007123 (  0.0%)   [6 : 9]
   Sum of square amplitudes: 0.79

 NATURAL OCCUPATION NUMBERS (higher than 1.0E-05)
            1           2           3           4           5           6
    1   1.9968206   1.9675515   1.8035448   0.9998654   0.9994355   0.1942165
            7           8           9          10          11          12
    1   0.0349458   0.0034880   0.0000383   0.0000278   0.0000150   0.0000146
           13
    1   0.0000123

  Amplitudes : 
  
 | HOLE  | ALPHA   | BETA    | PART  |    AMPLITUDE 
--------------------------------------------------
 |       | 0111100 | 1100100 |  37   |    -3.7301825365981E-01
 |       | 0111100 | 1010100 |  37   |     3.5921102697096E-01
 |       | 1101100 | 0110100 |  37   |    -1.0841082119137E-01
 |       | 1011100 | 0110100 |  37   |     1.1495088135914E-01
 |       | 1110100 | 0101100 |  37   |     1.3692528487201E-01
 |       | 0111100 | 0101100 |  37   |     5.4917633613994E-01
 |       | 1110100 | 0011100 |  37   |    -1.2765323046142E-01
 |       | 0111100 | 0011100 |  37   |    -5.1410568414544E-01
 |       | 0111100 | 0001110 |  37   |     1.4878093083195E-01
 |       | 1111100 | 0100100 |  37   |    -1.2768214759643E-01
 |       | 1111100 | 0010100 |  37   |     1.1660691515040E-01
--------------------------------------------------
*** Contributions RASCI wfn    Active:   0.03
                                 Hole:   0.00
                                 Part:  99.97

      Mulliken population analysis 
 ---------------------------------------------------
   Atom    Charge (a.u.)   Spin (a.u.)  
 ---------------------------------------------------
   1  N   -2.427341        3.541959 
   2  H   -0.871240        1.515288 
 ---------------------------------------------------
   Sum:   -3.298581        5.057247 
 ---------------------------------------------------
 
  
 NATURAL OCCUPATION NUMBERS (higher than 1.0E-05)
            1           2           3           4           5           6
    1   1.9968206   1.9675515   1.8035448   0.9998654   0.9994355   0.1942165
            7           8           9          10          11          12
    1   0.0349458   0.0034880   0.0000383   0.0000278   0.0000150   0.0000146
           13
    1   0.0000123
  
*** Unpaired Electrons
 Yamaguchi Nd:         2.85
 Head-Gordon Nu:       2.46
 Head-Gordon Nu_nl:    2.26
  
**************************************************
 RAS-CI total energy for state   6:    -41.822530176353
  Excitation energy (eV) =  8.777582521981
  State symmetry: B1    (C2v      )
  <S^2>      :  2.0000
  Dipole Moment:   -0.0000 X     0.0000 Y    -0.2926 Z
  Trans. Moment:   -0.0000 X     0.0000 Y    -0.0000 Z
  Strength   :  0.000000
  Natural transition orbitals ( 1 -> 6 ):
   e-/hole pair  1 alpha:  ampl =  0.037121 (  0.1%)   [7 : 8]
   e-/hole pair  2 alpha:  ampl =  0.000983 (  0.0%)   [6 : 9]
   e-/hole pair  1 beta :  ampl =  0.027967 (  0.1%)   [7 : 8]
   e-/hole pair  2 beta :  ampl =  0.001631 (  0.0%)   [6 : 9]
   Sum of square amplitudes: 0.00

 NATURAL OCCUPATION NUMBERS (higher than 1.0E-05)
            1           2           3           4           5           6
    1   1.9990652   1.9869731   1.0928576   0.9998588   0.9992134   0.8943593
            7           8           9          10          11          12
    1   0.0228281   0.0047203   0.0000334   0.0000274   0.0000207   0.0000146

  Amplitudes : 
  
 | HOLE  | ALPHA   | BETA    | PART  |    AMPLITUDE 
--------------------------------------------------
 |       | 0111100 | 0110100 |  37   |     1.0269503906828E-01
 |       | 0101101 | 0110100 |  37   |    -1.9780128921496E-01
 |       | 0011101 | 0110100 |  37   |     1.8166469032241E-01
 |       | 0110110 | 0101100 |  37   |     1.3773856166156E-01
 |       | 0110101 | 0101100 |  37   |     1.8679318805613E-01
 |       | 0111100 | 0100110 |  37   |     2.3588479728074E-01
 |       | 0111100 | 0100101 |  37   |     5.8111524070680E-01
 |       | 0110110 | 0011100 |  37   |    -1.2345735488067E-01
 |       | 0110101 | 0011100 |  37   |    -1.6604762131571E-01
 |       | 0111100 | 0010110 |  37   |    -1.9834421793918E-01
 |       | 0111100 | 0010101 |  37   |    -5.2459860954961E-01
 |       | 0111100 | 0000111 |  37   |    -1.1168206152289E-01
 |       | 0111101 | 0100100 |  37   |     1.9652076343551E-01
 |       | 0111101 | 0010100 |  37   |    -1.7688629791126E-01
--------------------------------------------------
*** Contributions RASCI wfn    Active:   0.03
                                 Hole:   0.00
                                 Part:  99.97

      Mulliken population analysis 
 ---------------------------------------------------
   Atom    Charge (a.u.)   Spin (a.u.)  
 ---------------------------------------------------
   1  N   -2.424152        3.362769 
   2  H   -0.875742        1.423144 
 ---------------------------------------------------
   Sum:   -3.299895        4.785913 
 ---------------------------------------------------
 
  
 NATURAL OCCUPATION NUMBERS (higher than 1.0E-05)
            1           2           3           4           5           6
    1   1.9990652   1.9869731   1.0928576   0.9998588   0.9992134   0.8943593
            7           8           9          10          11          12
    1   0.0228281   0.0047203   0.0000334   0.0000274   0.0000207   0.0000146
  
*** Unpaired Electrons
 Yamaguchi Nd:         4.06
 Head-Gordon Nu:       3.84
 Head-Gordon Nu_nl:    3.96
  
**************************************************
 RAS-CI total energy for state   7:    -41.729099115470
  Excitation energy (eV) = 11.319971041299
  State symmetry: B2    (C2v      )
  <S^2>      :  2.0000
  Dipole Moment:   -0.0000 X     0.0000 Y     4.2980 Z
  Trans. Moment:    0.0000 X    -0.0000 Y     0.0487 Z
  Strength   :  0.000657
  Natural transition orbitals ( 1 -> 7 ):
   e-/hole pair  1 alpha:  ampl =  0.187428 (  3.5%)   [7 : 8]
   e-/hole pair  2 alpha:  ampl =  0.091112 (  0.8%)   [6 : 9]
   e-/hole pair  1 beta :  ampl =  0.785629 ( 61.7%)   [7 : 8]
   e-/hole pair  2 beta :  ampl =  0.053064 (  0.3%)   [6 : 9]
   Sum of square amplitudes: 0.67

 NATURAL OCCUPATION NUMBERS (higher than 1.0E-05)
            1           2           3           4           5           6
    1   1.9802783   1.5063738   1.2728064   1.0000118   0.9998718   0.7229778
            7           8           9          10          11          12
    1   0.4912561   0.0262954   0.0000361   0.0000263   0.0000193   0.0000118

  Amplitudes : 
  
 | HOLE  | ALPHA   | BETA    | PART  |    AMPLITUDE 
--------------------------------------------------
 |       | 0111100 | 1110000 |  37   |     2.7545104436537E-01
 |       | 0110110 | 1101000 |  37   |    -1.5826317329080E-01
 |       | 0111100 | 1100010 |  37   |     3.7572493587965E-01
 |       | 0111100 | 1100001 |  37   |    -1.2966652229667E-01
 |       | 0110110 | 1011000 |  37   |     1.6741658992560E-01
 |       | 0111100 | 1010010 |  37   |    -4.4386272473161E-01
 |       | 0111100 | 1010001 |  37   |     1.2682601912237E-01
 |       | 0111100 | 0111000 |  37   |    -1.3551723985374E-01
 |       | 1111000 | 0110100 |  37   |    -1.3155031890584E-01
 |       | 1101100 | 0110010 |  37   |     1.1566077911345E-01
 |       | 1011100 | 0110010 |  37   |    -1.1427727100266E-01
 |       | 0111010 | 0101100 |  37   |     1.4178128442067E-01
 |       | 0111100 | 0101010 |  37   |     2.3494498970534E-01
 |       | 1111000 | 0100110 |  37   |     1.4443788108472E-01
 |       | 0111010 | 0011100 |  37   |    -1.3769841489442E-01
 |       | 0111100 | 0011010 |  37   |    -2.5813592985923E-01
 |       | 1111000 | 0010110 |  37   |    -1.6912926353882E-01
 |       | 1111100 | 0010010 |  37   |    -1.0608009052484E-01
 |       | 0111110 | 1010000 |  37   |    -1.0412145179053E-01
--------------------------------------------------
*** Contributions RASCI wfn    Active:   0.03
                                 Hole:   0.00
                                 Part:  99.97

      Mulliken population analysis 
 ---------------------------------------------------
   Atom    Charge (a.u.)   Spin (a.u.)  
 ---------------------------------------------------
   1  N   -0.887957        4.189611 
   2  H   -2.409139        0.530809 
 ---------------------------------------------------
   Sum:   -3.297097        4.720420 
 ---------------------------------------------------
 
  
 NATURAL OCCUPATION NUMBERS (higher than 1.0E-05)
            1           2           3           4           5           6
    1   1.9802783   1.5063738   1.2728064   1.0000118   0.9998718   0.7229778
            7           8           9          10          11          12
    1   0.4912561   0.0262954   0.0000361   0.0000263   0.0000193   0.0000118
  
*** Unpaired Electrons
 Yamaguchi Nd:         5.42
 Head-Gordon Nu:       4.48
 Head-Gordon Nu_nl:    4.82
  
**************************************************
 RAS-CI total energy for state   8:    -41.712522423682
  Excitation energy (eV) = 11.771045774807
  State symmetry: A1    (C2v      )
  <S^2>      :  2.0000
  Dipole Moment:   -0.0000 X     0.0000 Y     3.5530 Z
  Trans. Moment:    0.0000 X    -0.2735 Y     0.0000 Z
  Strength   :  0.021574
  Natural transition orbitals ( 1 -> 8 ):
   e-/hole pair  1 alpha:  ampl =  0.407204 ( 16.6%)   [7 : 8]
   e-/hole pair  2 alpha:  ampl =  0.016964 (  0.0%)   [6 : 9]
   e-/hole pair  1 beta :  ampl =  0.213649 (  4.6%)   [7 : 8]
   e-/hole pair  2 beta :  ampl =  0.024204 (  0.1%)   [6 : 9]
   Sum of square amplitudes: 0.21

 NATURAL OCCUPATION NUMBERS (higher than 1.0E-05)
            1           2           3           4           5           6
    1   1.9904117   1.7240068   1.5008812   1.0052163   0.9996985   0.4708962
            7           8           9          10          11          12
    1   0.2627701   0.0458612   0.0001254   0.0000315   0.0000278   0.0000259
           13
    1   0.0000242

  Amplitudes : 
  
 | HOLE  | ALPHA   | BETA    | PART  |    AMPLITUDE 
--------------------------------------------------
 |       | 0111010 | 0101010 |  37   |    -4.1977300656316E-01
 |       | 0111001 | 0101010 |  37   |    -2.2130043603542E-01
 |       | 0111010 | 0101001 |  37   |    -3.4917556788982E-01
 |       | 0110110 | 0100110 |  37   |     2.3870473971645E-01
 |       | 0110101 | 0100110 |  37   |     1.2690099929731E-01
 |       | 0110110 | 0100101 |  37   |     1.9097369411893E-01
 |       | 0111010 | 0011010 |  37   |     4.1333850461473E-01
 |       | 0111001 | 0011010 |  37   |     2.1811984582256E-01
 |       | 0111010 | 0011001 |  37   |     3.2307156926803E-01
 |       | 0110110 | 0010110 |  37   |    -2.3534298515636E-01
 |       | 0110101 | 0010110 |  37   |    -1.2465336509231E-01
 |       | 0110110 | 0010101 |  37   |    -1.7516323624681E-01
--------------------------------------------------
*** Contributions RASCI wfn    Active:   0.00
                                 Hole:   0.00
                                 Part: 100.00

      Mulliken population analysis 
 ---------------------------------------------------
   Atom    Charge (a.u.)   Spin (a.u.)  
 ---------------------------------------------------
   1  N   -0.441878        3.235545 
   2  H   -2.863193        1.963564 
 ---------------------------------------------------
   Sum:   -3.305071        5.199110 
 ---------------------------------------------------
 
  
 NATURAL OCCUPATION NUMBERS (higher than 1.0E-05)
            1           2           3           4           5           6
    1   1.9904117   1.7240068   1.5008812   1.0052163   0.9996985   0.4708962
            7           8           9          10          11          12
    1   0.2627701   0.0458612   0.0001254   0.0000315   0.0000278   0.0000259
           13
    1   0.0000242
  
*** Unpaired Electrons
 Yamaguchi Nd:         4.51
 Head-Gordon Nu:       3.56
 Head-Gordon Nu_nl:    3.52
  
**************************************************
 RAS-CI total energy for state   9:    -41.705046401511
  Excitation energy (eV) = 11.974478688439
  State symmetry: A2    (C2v      )
  <S^2>      :  2.0000
  Dipole Moment:    0.0000 X     0.0000 Y     3.6318 Z
  Trans. Moment:   -0.1673 X     0.0000 Y    -0.0000 Z
  Strength   :  0.008214
  Natural transition orbitals ( 1 -> 9 ):
   e-/hole pair  1 alpha:  ampl =  0.346984 ( 12.0%)   [7 : 8]
   e-/hole pair  2 alpha:  ampl =  0.008160 (  0.0%)   [6 : 9]
   e-/hole pair  1 beta :  ampl =  0.171544 (  2.9%)   [7 : 8]
   e-/hole pair  2 beta :  ampl =  0.015785 (  0.0%)   [6 : 9]
   Sum of square amplitudes: 0.15

 NATURAL OCCUPATION NUMBERS (higher than 1.0E-05)
            1           2           3           4           5           6
    1   1.9944442   1.7430126   1.0061585   1.0000140   0.9996924   0.9880521
            7           8           9          10          11          12
    1   0.2451756   0.0231852   0.0001444   0.0000280   0.0000268   0.0000265
           13
    1   0.0000148

  Amplitudes : 
  
 | HOLE  | ALPHA   | BETA    | PART  |    AMPLITUDE 
--------------------------------------------------
 |       | 0110110 | 0101010 |  37   |     3.5581845616262E-01
 |       | 0110101 | 0101010 |  37   |     1.8822170182807E-01
 |       | 0110110 | 0101001 |  37   |     2.8210941599989E-01
 |       | 0111010 | 0100110 |  37   |     3.4805753970574E-01
 |       | 0111001 | 0100110 |  37   |     1.8223926823634E-01
 |       | 0111010 | 0100101 |  37   |     2.7037106012149E-01
 |       | 0110110 | 0011010 |  37   |    -3.5092023865663E-01
 |       | 0110101 | 0011010 |  37   |    -1.8585407094551E-01
 |       | 0110110 | 0011001 |  37   |    -2.5852224759992E-01
 |       | 0111010 | 0010110 |  37   |    -3.4388746299719E-01
 |       | 0111001 | 0010110 |  37   |    -1.7875891867907E-01
 |       | 0111010 | 0010101 |  37   |    -2.4878654848441E-01
--------------------------------------------------
*** Contributions RASCI wfn    Active:   0.00
                                 Hole:   0.00
                                 Part: 100.00

      Mulliken population analysis 
 ---------------------------------------------------
   Atom    Charge (a.u.)   Spin (a.u.)  
 ---------------------------------------------------
   1  N   -0.405775        3.322112 
   2  H   -2.899418        1.914878 
 ---------------------------------------------------
   Sum:   -3.305193        5.236990 
 ---------------------------------------------------
 
  
 NATURAL OCCUPATION NUMBERS (higher than 1.0E-05)
            1           2           3           4           5           6
    1   1.9944442   1.7430126   1.0061585   1.0000140   0.9996924   0.9880521
            7           8           9          10          11          12
    1   0.2451756   0.0231852   0.0001444   0.0000280   0.0000268   0.0000265
           13
    1   0.0000148
  
*** Unpaired Electrons
 Yamaguchi Nd:         4.94
 Head-Gordon Nu:       4.51
 Head-Gordon Nu_nl:    4.39
  
**************************************************
 RAS-CI total energy for state  10:    -41.678220402947
  Excitation energy (eV) = 12.704451249192
  State symmetry: A1    (C2v      )
  <S^2>      :  2.0000
  Dipole Moment:   -0.0000 X    -0.0000 Y     4.5910 Z
  Trans. Moment:    0.0000 X    -0.1986 Y    -0.0000 Z
  Strength   :  0.012278
  Natural transition orbitals ( 1 -> 10 ):
   e-/hole pair  1 alpha:  ampl =  0.601857 ( 36.2%)   [7 : 8]
   e-/hole pair  2 alpha:  ampl =  0.015092 (  0.0%)   [6 : 9]
   e-/hole pair  1 beta :  ampl =  0.200748 (  4.0%)   [7 : 8]
   e-/hole pair  2 beta :  ampl =  0.028139 (  0.1%)   [6 : 9]
   Sum of square amplitudes: 0.40

 NATURAL OCCUPATION NUMBERS (higher than 1.0E-05)
            1           2           3           4           5           6
    1   1.9909122   1.4910475   1.4787564   0.9999948   0.9823725   0.5250214
            7           8           9          10          11          12
    1   0.4946906   0.0369484   0.0001285   0.0000268   0.0000256   0.0000253
           13          14
    1   0.0000179   0.0000114

  Amplitudes : 
  
 | HOLE  | ALPHA   | BETA    | PART  |    AMPLITUDE 
--------------------------------------------------
 |       | 0111010 | 0111000 |  37   |     3.3109892288373E-01
 |       | 0111001 | 0111000 |  37   |     1.3477962202199E-01
 |       | 0101011 | 0111000 |  37   |    -1.8762466451750E-01
 |       | 0011011 | 0111000 |  37   |     2.2054626683146E-01
 |       | 0110110 | 0110100 |  37   |    -1.9086249427761E-01
 |       | 0100111 | 0110100 |  37   |     1.0217938325207E-01
 |       | 0010111 | 0110100 |  37   |    -1.2132675078074E-01
 |       | 0111010 | 0101010 |  37   |    -2.2862015203604E-01
 |       | 0111010 | 0101001 |  37   |     3.5546235104513E-01
 |       | 0110110 | 0100110 |  37   |     1.7358119905819E-01
 |       | 0110110 | 0100101 |  37   |    -1.7290028150347E-01
 |       | 0111010 | 0011010 |  37   |     2.7811409397922E-01
 |       | 0111010 | 0011001 |  37   |    -3.6112779577777E-01
 |       | 0110110 | 0010110 |  37   |    -2.0007409878807E-01
 |       | 0110110 | 0010101 |  37   |     1.7921640938075E-01
 |       | 0111011 | 0101000 |  37   |     2.2589622367570E-01
 |       | 0111011 | 0011000 |  37   |    -2.1195555383589E-01
 |       | 0110111 | 0100100 |  37   |    -1.2352231398410E-01
 |       | 0110111 | 0010100 |  37   |     1.1708695834199E-01
--------------------------------------------------
*** Contributions RASCI wfn    Active:   0.01
                                 Hole:   0.00
                                 Part:  99.99

      Mulliken population analysis 
 ---------------------------------------------------
   Atom    Charge (a.u.)   Spin (a.u.)  
 ---------------------------------------------------
   1  N   -0.334932        2.399732 
   2  H   -2.969248        1.995939 
 ---------------------------------------------------
   Sum:   -3.304180        4.395671 
 ---------------------------------------------------
 
  
 NATURAL OCCUPATION NUMBERS (higher than 1.0E-05)
            1           2           3           4           5           6
    1   1.9909122   1.4910475   1.4787564   0.9999948   0.9823725   0.5250214
            7           8           9          10          11          12
    1   0.4946906   0.0369484   0.0001285   0.0000268   0.0000256   0.0000253
           13          14
    1   0.0000179   0.0000114
  
*** Unpaired Electrons
 Yamaguchi Nd:         5.14
 Head-Gordon Nu:       4.08
 Head-Gordon Nu_nl:    4.33
  
**************************************************
 RAS-CI total energy for state  11:    -41.671401437333
  Excitation energy (eV) = 12.890004744227
  State symmetry: A2    (C2v      )
  <S^2>      :  2.0000
  Dipole Moment:   -0.0000 X    -0.0000 Y     4.4575 Z
  Trans. Moment:   -0.0532 X    -0.0000 Y     0.0000 Z
  Strength   :  0.000894
  Natural transition orbitals ( 1 -> 11 ):
   e-/hole pair  1 alpha:  ampl =  0.477762 ( 22.8%)   [7 : 8]
   e-/hole pair  2 alpha:  ampl =  0.040581 (  0.2%)   [6 : 9]
   e-/hole pair  1 beta :  ampl =  0.161711 (  2.6%)   [7 : 8]
   e-/hole pair  2 beta :  ampl =  0.102149 (  1.0%)   [6 : 9]
   Sum of square amplitudes: 0.27

 NATURAL OCCUPATION NUMBERS (higher than 1.0E-05)
            1           2           3           4           5           6
    1   1.9936539   1.4686283   1.0054213   1.0000097   0.9998792   0.9709505
            7           8           9          10          11          12
    1   0.5256210   0.0355707   0.0001440   0.0000277   0.0000271   0.0000223
           13          14
    1   0.0000111   0.0000109

  Amplitudes : 
  
 | HOLE  | ALPHA   | BETA    | PART  |    AMPLITUDE 
--------------------------------------------------
 |       | 0110110 | 0111000 |  37   |    -2.6818991944712E-01
 |       | 0110101 | 0111000 |  37   |    -1.0794700747628E-01
 |       | 0100111 | 0111000 |  37   |     1.5352388200764E-01
 |       | 0010111 | 0111000 |  37   |    -1.7976259923246E-01
 |       | 0111010 | 0110100 |  37   |    -2.7261974175246E-01
 |       | 0111001 | 0110100 |  37   |    -1.0805721358683E-01
 |       | 0101011 | 0110100 |  37   |     1.5366021945671E-01
 |       | 0011011 | 0110100 |  37   |    -1.7894361176077E-01
 |       | 0110110 | 0101010 |  37   |     1.8584557190568E-01
 |       | 0110110 | 0101001 |  37   |    -2.9638325239210E-01
 |       | 0111010 | 0100110 |  37   |     1.9265647219403E-01
 |       | 0111010 | 0100101 |  37   |    -2.8782589961805E-01
 |       | 0110110 | 0011010 |  37   |    -2.2560134043521E-01
 |       | 0110110 | 0011001 |  37   |     3.0199867909314E-01
 |       | 0111010 | 0010110 |  37   |    -2.3251240427477E-01
 |       | 0111010 | 0010101 |  37   |     2.9132870379509E-01
 |       | 0111011 | 0100100 |  37   |    -1.8360720819370E-01
 |       | 0111011 | 0010100 |  37   |     1.7232860813555E-01
 |       | 0110111 | 0101000 |  37   |    -1.8335683422650E-01
 |       | 0110111 | 0011000 |  37   |     1.7279216376830E-01
--------------------------------------------------
*** Contributions RASCI wfn    Active:   0.01
                                 Hole:   0.00
                                 Part:  99.99

      Mulliken population analysis 
 ---------------------------------------------------
   Atom    Charge (a.u.)   Spin (a.u.)  
 ---------------------------------------------------
   1  N   -0.409541        2.353442 
   2  H   -2.894892        2.059187 
 ---------------------------------------------------
   Sum:   -3.304433        4.412629 
 ---------------------------------------------------
 
  
 NATURAL OCCUPATION NUMBERS (higher than 1.0E-05)
            1           2           3           4           5           6
    1   1.9936539   1.4686283   1.0054213   1.0000097   0.9998792   0.9709505
            7           8           9          10          11          12
    1   0.5256210   0.0355707   0.0001440   0.0000277   0.0000271   0.0000223
           13          14
    1   0.0000111   0.0000109
  
*** Unpaired Electrons
 Yamaguchi Nd:         5.64
 Head-Gordon Nu:       5.06
 Head-Gordon Nu_nl:    5.21
  
**************************************************
 RAS-CI total energy for state  12:    -41.668226388666
  Excitation energy (eV) = 12.976402214208
  State symmetry: B1    (C2v      )
  <S^2>      :  2.0000
  Dipole Moment:   -0.0000 X    -0.0000 Y     4.2134 Z
  Trans. Moment:    0.0000 X     0.0000 Y    -0.0000 Z
  Strength   :  0.000000
  Natural transition orbitals ( 1 -> 12 ):
   e-/hole pair  1 alpha:  ampl =  0.242408 (  5.9%)   [7 : 8]
   e-/hole pair  2 alpha:  ampl =  0.011849 (  0.0%)   [6 : 9]
   e-/hole pair  1 beta :  ampl =  0.251305 (  6.3%)   [7 : 8]
   e-/hole pair  2 beta :  ampl =  0.024325 (  0.1%)   [6 : 9]
   Sum of square amplitudes: 0.12

 NATURAL OCCUPATION NUMBERS (higher than 1.0E-05)
            1           2           3           4           5           6
    1   1.9817371   1.9783988   1.0825836   0.9997111   0.9840532   0.9145713
            7           8           9          10          11          12
    1   0.0390285   0.0196325   0.0000970   0.0000661   0.0000333   0.0000319
           13
    1   0.0000260

  Amplitudes : 
  
 | HOLE  | ALPHA   | BETA    | PART  |    AMPLITUDE 
--------------------------------------------------
 |       | 0110110 | 1100100 |  37   |     3.1162343174129E-01
 |       | 0110110 | 1010100 |  37   |    -3.0806902926789E-01
 |       | 1100110 | 0110100 |  37   |     1.1936385887030E-01
 |       | 1010110 | 0110100 |  37   |    -1.3116573715755E-01
 |       | 0111100 | 0110100 |  37   |    -1.6582592507253E-01
 |       | 0101110 | 0110100 |  37   |    -3.1665736066348E-01
 |       | 0011110 | 0110100 |  37   |     2.3508403910736E-01
 |       | 0110110 | 0101100 |  37   |    -4.7499658990374E-01
 |       | 0110110 | 0011100 |  37   |     4.2758479884070E-01
 |       | 1110110 | 0100100 |  37   |     1.4474827212271E-01
 |       | 1110110 | 0010100 |  37   |    -1.3466160001291E-01
 |       | 0111110 | 0100100 |  37   |     1.7366793856664E-01
 |       | 0111110 | 0010100 |  37   |    -2.3258571033267E-01
--------------------------------------------------
*** Contributions RASCI wfn    Active:   0.02
                                 Hole:   0.00
                                 Part:  99.98

      Mulliken population analysis 
 ---------------------------------------------------
   Atom    Charge (a.u.)   Spin (a.u.)  
 ---------------------------------------------------
   1  N   -0.909719        1.778335 
   2  H   -2.394527        2.704529 
 ---------------------------------------------------
   Sum:   -3.304246        4.482864 
 ---------------------------------------------------
 
  
 NATURAL OCCUPATION NUMBERS (higher than 1.0E-05)
            1           2           3           4           5           6
    1   1.9817371   1.9783988   1.0825836   0.9997111   0.9840532   0.9145713
            7           8           9          10          11          12
    1   0.0390285   0.0196325   0.0000970   0.0000661   0.0000333   0.0000319
           13
    1   0.0000260
  
*** Unpaired Electrons
 Yamaguchi Nd:         4.18
 Head-Gordon Nu:       3.91
 Head-Gordon Nu_nl:    3.98
  
**************************************************
 RAS-CI total energy for state  13:    -41.665108548993
  Excitation energy (eV) = 13.061242948291
  State symmetry: B2    (C2v      )
  <S^2>      :  2.0000
  Dipole Moment:   -0.0000 X     0.0000 Y     4.2240 Z
  Trans. Moment:    0.0000 X    -0.0000 Y     0.0088 Z
  Strength   :  0.000025
  Natural transition orbitals ( 1 -> 13 ):
   e-/hole pair  1 alpha:  ampl =  0.234687 (  5.5%)   [7 : 8]
   e-/hole pair  2 alpha:  ampl =  0.197103 (  3.9%)   [6 : 9]
   e-/hole pair  1 beta :  ampl =  0.244111 (  6.0%)   [7 : 8]
   e-/hole pair  2 beta :  ampl =  0.234688 (  5.5%)   [6 : 9]
   Sum of square amplitudes: 0.24

 NATURAL OCCUPATION NUMBERS (higher than 1.0E-05)
            1           2           3           4           5           6
    1   1.9767701   1.7996698   1.1335949   1.0000399   0.9996819   0.8653903
            7           8           9          10          11          12
    1   0.1995212   0.0250191   0.0001244   0.0000505   0.0000365   0.0000295
           13          14          15
    1   0.0000234   0.0000148   0.0000113

  Amplitudes : 
  
 | HOLE  | ALPHA   | BETA    | PART  |    AMPLITUDE 
--------------------------------------------------
 |       | 0110110 | 1101000 |  37   |    -1.2440809454333E-01
 |       | 0111010 | 1100100 |  37   |    -2.4163208014312E-01
 |       | 0110110 | 1011000 |  37   |     1.3571229066641E-01
 |       | 0111010 | 1010100 |  37   |     2.2978295541720E-01
 |       | 0111100 | 0111000 |  37   |     2.5506816338022E-01
 |       | 0101110 | 0111000 |  37   |     3.2209957973701E-01
 |       | 0011110 | 0111000 |  37   |    -2.2999500601047E-01
 |       | 0111010 | 0101100 |  37   |     4.8663910649988E-01
 |       | 0111010 | 0011100 |  37   |    -4.2878422286411E-01
 |       | 1111010 | 0100100 |  37   |    -1.1476664279936E-01
 |       | 0111110 | 0101000 |  37   |    -1.5242784161555E-01
 |       | 0111110 | 0011000 |  37   |     2.3217381645265E-01
--------------------------------------------------
*** Contributions RASCI wfn    Active:   0.03
                                 Hole:   0.00
                                 Part:  99.97

      Mulliken population analysis 
 ---------------------------------------------------
   Atom    Charge (a.u.)   Spin (a.u.)  
 ---------------------------------------------------
   1  N   -0.915805        1.852561 
   2  H   -2.388821        2.677615 
 ---------------------------------------------------
   Sum:   -3.304626        4.530176 
 ---------------------------------------------------
 
  
 NATURAL OCCUPATION NUMBERS (higher than 1.0E-05)
            1           2           3           4           5           6
    1   1.9767701   1.7996698   1.1335949   1.0000399   0.9996819   0.8653903
            7           8           9          10          11          12
    1   0.1995212   0.0250191   0.0001244   0.0000505   0.0000365   0.0000295
           13          14          15
    1   0.0000234   0.0000148   0.0000113
  
*** Unpaired Electrons
 Yamaguchi Nd:         4.78
 Head-Gordon Nu:       4.18
 Head-Gordon Nu_nl:    4.19
  
**************************************************
 RAS-CI total energy for state  14:    -41.660133546048
  Excitation energy (eV) = 13.196619666174
  State symmetry: A2    (C2v      )
  <S^2>      :  2.0000
  Dipole Moment:   -0.0000 X     0.0000 Y     1.0161 Z
  Trans. Moment:    0.4036 X    -0.0000 Y     0.0000 Z
  Strength   :  0.052661
  Natural transition orbitals ( 1 -> 14 ):
   e-/hole pair  1 alpha:  ampl =  0.252692 (  6.4%)   [7 : 8]
   e-/hole pair  2 alpha:  ampl =  0.078323 (  0.6%)   [6 : 9]
   e-/hole pair  1 beta :  ampl =  0.761481 ( 58.0%)   [7 : 8]
   e-/hole pair  2 beta :  ampl =  0.036796 (  0.1%)   [6 : 9]
   Sum of square amplitudes: 0.65

 NATURAL OCCUPATION NUMBERS (higher than 1.0E-05)
            1           2           3           4           5           6
    1   1.9714935   1.9667147   1.0045723   1.0000148   0.9998621   0.9844785
            7           8           9          10          11          12
    1   0.0507097   0.0220280   0.0000364   0.0000231   0.0000205   0.0000118
           13
    1   0.0000105

  Amplitudes : 
  
 | HOLE  | ALPHA   | BETA    | PART  |    AMPLITUDE 
--------------------------------------------------
 |       | 0111100 | 1101000 |  37   |     5.9606908281671E-01
 |       | 0111100 | 1011000 |  37   |    -5.6891241895368E-01
 |       | 0111100 | 1001010 |  37   |    -1.5582342947790E-01
 |       | 1101100 | 0111000 |  37   |     1.9060043596455E-01
 |       | 1011100 | 0111000 |  37   |    -1.7430881692205E-01
 |       | 1111000 | 0101100 |  37   |    -2.3351591940186E-01
 |       | 1111000 | 0011100 |  37   |     2.2315672683191E-01
 |       | 1111100 | 0101000 |  37   |     1.7195272750130E-01
 |       | 1111100 | 0011000 |  37   |    -1.7144687516161E-01
--------------------------------------------------
*** Contributions RASCI wfn    Active:   0.03
                                 Hole:   0.00
                                 Part:  99.97

      Mulliken population analysis 
 ---------------------------------------------------
   Atom    Charge (a.u.)   Spin (a.u.)  
 ---------------------------------------------------
   1  N   -2.386554        3.433232 
   2  H   -0.912846        1.403254 
 ---------------------------------------------------
   Sum:   -3.299400        4.836486 
 ---------------------------------------------------
 
  
 NATURAL OCCUPATION NUMBERS (higher than 1.0E-05)
            1           2           3           4           5           6
    1   1.9714935   1.9667147   1.0045723   1.0000148   0.9998621   0.9844785
            7           8           9          10          11          12
    1   0.0507097   0.0220280   0.0000364   0.0000231   0.0000205   0.0000118
           13
    1   0.0000105
  
*** Unpaired Electrons
 Yamaguchi Nd:         4.26
 Head-Gordon Nu:       4.11
 Head-Gordon Nu_nl:    4.02
  
**************************************************
 RAS-CI total energy for state  15:    -41.657803410670
  Excitation energy (eV) = 13.260025875803
  State symmetry: A1    (C2v      )
  <S^2>      :  2.0000
  Dipole Moment:    0.0000 X     0.0000 Y     3.5760 Z
  Trans. Moment:   -0.0000 X    -0.2227 Y    -0.0000 Z
  Strength   :  0.016111
  Natural transition orbitals ( 1 -> 15 ):
   e-/hole pair  1 alpha:  ampl =  0.270163 (  7.3%)   [7 : 8]
   e-/hole pair  2 alpha:  ampl =  0.034530 (  0.1%)   [6 : 9]
   e-/hole pair  1 beta :  ampl =  0.113384 (  1.3%)   [7 : 8]
   e-/hole pair  2 beta :  ampl =  0.064642 (  0.4%)   [6 : 9]
   Sum of square amplitudes: 0.09

 NATURAL OCCUPATION NUMBERS (higher than 1.0E-05)
            1           2           3           4           5           6
    1   1.9562808   1.6995181   1.5646772   1.0028148   0.9997685   0.4825793
            7           8           9          10          11          12
    1   0.2678008   0.0264242   0.0000261   0.0000248   0.0000237   0.0000227
           13          14
    1   0.0000122   0.0000102

  Amplitudes : 
  
 | HOLE  | ALPHA   | BETA    | PART  |    AMPLITUDE 
--------------------------------------------------
 |       | 0111010 | 0101010 |  37   |    -2.3866882140244E-01
 |       | 0111001 | 0101010 |  37   |    -1.2037453709325E-01
 |       | 0111010 | 0101001 |  37   |    -1.5124701221464E-01
 |       | 0110110 | 0100110 |  37   |    -4.1689042601481E-01
 |       | 0110101 | 0100110 |  37   |    -2.2849130236828E-01
 |       | 0110110 | 0100101 |  37   |    -3.6923835886784E-01
 |       | 0111010 | 0011010 |  37   |     2.3704791521046E-01
 |       | 0111001 | 0011010 |  37   |     1.1849296948709E-01
 |       | 0111010 | 0011001 |  37   |     1.3600143492234E-01
 |       | 0110110 | 0010110 |  37   |     4.0274547878724E-01
 |       | 0110101 | 0010110 |  37   |     2.2090857224464E-01
 |       | 0110110 | 0010101 |  37   |     3.3836812450482E-01
--------------------------------------------------
*** Contributions RASCI wfn    Active:   0.01
                                 Hole:   0.00
                                 Part:  99.99

      Mulliken population analysis 
 ---------------------------------------------------
   Atom    Charge (a.u.)   Spin (a.u.)  
 ---------------------------------------------------
   1  N   -0.454572        3.263860 
   2  H   -2.850698        1.962831 
 ---------------------------------------------------
   Sum:   -3.305269        5.226691 
 ---------------------------------------------------
 
  
 NATURAL OCCUPATION NUMBERS (higher than 1.0E-05)
            1           2           3           4           5           6
    1   1.9562808   1.6995181   1.5646772   1.0028148   0.9997685   0.4825793
            7           8           9          10          11          12
    1   0.2678008   0.0264242   0.0000261   0.0000248   0.0000237   0.0000227
           13          14
    1   0.0000122   0.0000102
  
*** Unpaired Electrons
 Yamaguchi Nd:         4.53
 Head-Gordon Nu:       3.55
 Head-Gordon Nu_nl:    3.49
  
**************************************************
 RAS-CI total energy for state  16:    -41.621651168175
  Excitation energy (eV) = 14.243778445880
  State symmetry: A1    (C2v      )
  <S^2>      :  2.0000
  Dipole Moment:   -0.0000 X     0.0000 Y     4.5364 Z
  Trans. Moment:   -0.0000 X    -0.1765 Y     0.0000 Z
  Strength   :  0.010871
  Natural transition orbitals ( 1 -> 16 ):
   e-/hole pair  1 alpha:  ampl =  0.355888 ( 12.7%)   [7 : 8]
   e-/hole pair  2 alpha:  ampl =  0.010650 (  0.0%)   [6 : 9]
   e-/hole pair  1 beta :  ampl =  0.109631 (  1.2%)   [7 : 8]
   e-/hole pair  2 beta :  ampl =  0.078328 (  0.6%)   [6 : 9]
   Sum of square amplitudes: 0.14

 NATURAL OCCUPATION NUMBERS (higher than 1.0E-05)
            1           2           3           4           5           6
    1   1.9640958   1.5370752   1.4817124   1.0000222   0.9766830   0.5307279
            7           8           9          10          11          12
    1   0.4894317   0.0201167   0.0000256   0.0000243   0.0000218   0.0000178
           13          14
    1   0.0000119   0.0000113

  Amplitudes : 
  
 | HOLE  | ALPHA   | BETA    | PART  |    AMPLITUDE 
--------------------------------------------------
 |       | 0111010 | 0111000 |  37   |     1.8231977672733E-01
 |       | 0101011 | 0111000 |  37   |    -1.0222456150867E-01
 |       | 0011011 | 0111000 |  37   |     1.2114660003485E-01
 |       | 0110110 | 0110100 |  37   |     3.3474632034086E-01
 |       | 0110101 | 0110100 |  37   |     1.3840345770843E-01
 |       | 0100111 | 0110100 |  37   |    -1.9217514390229E-01
 |       | 0010111 | 0110100 |  37   |     2.2334542884810E-01
 |       | 0111010 | 0101010 |  37   |    -1.3384627629021E-01
 |       | 0111010 | 0101001 |  37   |     1.7890119129394E-01
 |       | 0110110 | 0100110 |  37   |    -2.4428288825466E-01
 |       | 0110110 | 0100101 |  37   |     3.5584558324990E-01
 |       | 0111010 | 0011010 |  37   |     1.5765370396550E-01
 |       | 0111010 | 0011001 |  37   |    -1.8302148448400E-01
 |       | 0110110 | 0010110 |  37   |     2.8785740926052E-01
 |       | 0110110 | 0010101 |  37   |    -3.6230349255414E-01
 |       | 0111011 | 0101000 |  37   |     1.2489526349671E-01
 |       | 0111011 | 0011000 |  37   |    -1.1655751198772E-01
 |       | 0110111 | 0100100 |  37   |     2.2940782504225E-01
 |       | 0110111 | 0010100 |  37   |    -2.1504685541021E-01
--------------------------------------------------
*** Contributions RASCI wfn    Active:   0.01
                                 Hole:   0.00
                                 Part:  99.99

      Mulliken population analysis 
 ---------------------------------------------------
   Atom    Charge (a.u.)   Spin (a.u.)  
 ---------------------------------------------------
   1  N   -0.370510        2.378998 
   2  H   -2.933933        2.008909 
 ---------------------------------------------------
   Sum:   -3.304444        4.387906 
 ---------------------------------------------------
 
  
 NATURAL OCCUPATION NUMBERS (higher than 1.0E-05)
            1           2           3           4           5           6
    1   1.9640958   1.5370752   1.4817124   1.0000222   0.9766830   0.5307279
            7           8           9          10          11          12
    1   0.4894317   0.0201167   0.0000256   0.0000243   0.0000218   0.0000178
           13          14
    1   0.0000119   0.0000113
  
*** Unpaired Electrons
 Yamaguchi Nd:         5.11
 Head-Gordon Nu:       4.03
 Head-Gordon Nu_nl:    4.26
  
**************************************************
 RAS-CI total energy for state  17:    -41.580145339728
  Excitation energy (eV) = 15.373209501563
  State symmetry: A2    (C2v      )
  <S^2>      :  2.0000
  Dipole Moment:    0.0000 X    -0.0000 Y     5.1213 Z
  Trans. Moment:    0.3419 X     0.0000 Y    -0.0000 Z
  Strength   :  0.044017
  Natural transition orbitals ( 1 -> 17 ):
   e-/hole pair  1 alpha:  ampl =  0.186321 (  3.5%)   [7 : 8]
   e-/hole pair  2 alpha:  ampl =  0.083391 (  0.7%)   [6 : 9]
   e-/hole pair  1 beta :  ampl =  0.850676 ( 72.4%)   [7 : 8]
   e-/hole pair  2 beta :  ampl =  0.018645 (  0.0%)   [6 : 9]
   Sum of square amplitudes: 0.77

 NATURAL OCCUPATION NUMBERS (higher than 1.0E-05)
            1           2           3           4           5           6
    1   1.9873521   1.9485419   1.0187472   1.0000322   0.9950114   0.9864042
            7           8           9          10          11          12
    1   0.0565153   0.0072210   0.0000490   0.0000348   0.0000322   0.0000260

  Amplitudes : 
  
 | HOLE  | ALPHA   | BETA    | PART  |    AMPLITUDE 
--------------------------------------------------
 |       | 0110110 | 0111000 |  37   |    -2.7903758274484E-01
 |       | 0110101 | 0111000 |  37   |     1.3571449204402E-01
 |       | 0111010 | 0110100 |  37   |     2.7096344302024E-01
 |       | 0111001 | 0110100 |  37   |    -1.4544227433720E-01
 |       | 0111100 | 0110010 |  37   |     7.2881133362083E-01
 |       | 0111100 | 0110001 |  37   |    -3.9047043583506E-01
 |       | 0111100 | 0010011 |  37   |     1.0079078810947E-01
 |       | 0111110 | 0110000 |  37   |     1.7881029720997E-01
 |       | 0111101 | 0110000 |  37   |    -1.0931367432917E-01
--------------------------------------------------
*** Contributions RASCI wfn    Active:   0.03
                                 Hole:   0.00
                                 Part:  99.97

      Mulliken population analysis 
 ---------------------------------------------------
   Atom    Charge (a.u.)   Spin (a.u.)  
 ---------------------------------------------------
   1  N   -0.860245        4.348067 
   2  H   -2.431649        0.558611 
 ---------------------------------------------------
   Sum:   -3.291895        4.906678 
 ---------------------------------------------------
 
  
 NATURAL OCCUPATION NUMBERS (higher than 1.0E-05)
            1           2           3           4           5           6
    1   1.9873521   1.9485419   1.0187472   1.0000322   0.9950114   0.9864042
            7           8           9          10          11          12
    1   0.0565153   0.0072210   0.0000490   0.0000348   0.0000322   0.0000260
  
*** Unpaired Electrons
 Yamaguchi Nd:         4.25
 Head-Gordon Nu:       4.09
 Head-Gordon Nu_nl:    4.02
  
**************************************************
 RAS-CI total energy for state  18:    -41.553729584412
  Excitation energy (eV) = 16.092018775590
  State symmetry: A1    (C2v      )
  <S^2>      :  2.0000
  Dipole Moment:   -0.0000 X    -0.0000 Y     5.4318 Z
  Trans. Moment:   -0.0000 X     0.1606 Y    -0.0000 Z
  Strength   :  0.010167
  Natural transition orbitals ( 1 -> 18 ):
   e-/hole pair  1 alpha:  ampl =  0.720909 ( 52.0%)   [7 : 8]
   e-/hole pair  2 alpha:  ampl =  0.017606 (  0.0%)   [6 : 9]
   e-/hole pair  1 beta :  ampl =  0.172837 (  3.0%)   [7 : 8]
   e-/hole pair  2 beta :  ampl =  0.024514 (  0.1%)   [6 : 9]
   Sum of square amplitudes: 0.55

 NATURAL OCCUPATION NUMBERS (higher than 1.0E-05)
            1           2           3           4           5           6
    1   1.9916959   1.6720731   1.4743084   0.9997655   0.9903630   0.4993439
            7           8           9          10          11          12
    1   0.3342344   0.0379524   0.0001301   0.0000292   0.0000259   0.0000250
           13          14
    1   0.0000170   0.0000113

  Amplitudes : 
  
 | HOLE  | ALPHA   | BETA    | PART  |    AMPLITUDE 
--------------------------------------------------
 |       | 0111001 | 0111000 |  37   |    -3.0691799894979E-01
 |       | 0101011 | 0111000 |  37   |     1.4631847955197E-01
 |       | 0011011 | 0111000 |  37   |    -1.4395929998090E-01
 |       | 0110101 | 0110100 |  37   |     1.8030955016124E-01
 |       | 0111010 | 0101010 |  37   |    -2.8091463615368E-01
 |       | 0111001 | 0101010 |  37   |     3.8630862707129E-01
 |       | 0110110 | 0100110 |  37   |     1.6071105563705E-01
 |       | 0110101 | 0100110 |  37   |    -2.2474039421760E-01
 |       | 0111010 | 0011010 |  37   |     3.0022758960205E-01
 |       | 0111001 | 0011010 |  37   |    -3.9757862003359E-01
 |       | 0111001 | 0011001 |  37   |     1.1592081486185E-01
 |       | 0110110 | 0010110 |  37   |    -1.6909536922792E-01
 |       | 0110101 | 0010110 |  37   |     2.3182314484031E-01
 |       | 0111011 | 0101000 |  37   |    -1.4585362372011E-01
 |       | 0111011 | 0011000 |  37   |     1.5849635907410E-01
--------------------------------------------------
*** Contributions RASCI wfn    Active:   0.03
                                 Hole:   0.00
                                 Part:  99.97

      Mulliken population analysis 
 ---------------------------------------------------
   Atom    Charge (a.u.)   Spin (a.u.)  
 ---------------------------------------------------
   1  N   -0.382918        3.994435 
   2  H   -2.912574        0.807115 
 ---------------------------------------------------
   Sum:   -3.295492        4.801550 
 ---------------------------------------------------
 
  
 NATURAL OCCUPATION NUMBERS (higher than 1.0E-05)
            1           2           3           4           5           6
    1   1.9916959   1.6720731   1.4743084   0.9997655   0.9903630   0.4993439
            7           8           9          10          11          12
    1   0.3342344   0.0379524   0.0001301   0.0000292   0.0000259   0.0000250
           13          14
    1   0.0000170   0.0000113
  
*** Unpaired Electrons
 Yamaguchi Nd:         4.72
 Head-Gordon Nu:       3.72
 Head-Gordon Nu_nl:    3.78
  
**************************************************
 RAS-CI total energy for state  19:    -41.547110838875
  Excitation energy (eV) = 16.272124005106
  State symmetry: A2    (C2v      )
  <S^2>      :  2.0000
  Dipole Moment:   -0.0000 X     0.0000 Y     5.4131 Z
  Trans. Moment:    0.1062 X    -0.0000 Y     0.0000 Z
  Strength   :  0.004496
  Natural transition orbitals ( 1 -> 19 ):
   e-/hole pair  1 alpha:  ampl =  0.586185 ( 34.4%)   [7 : 8]
   e-/hole pair  2 alpha:  ampl =  0.023786 (  0.1%)   [6 : 9]
   e-/hole pair  1 beta :  ampl =  0.135329 (  1.8%)   [7 : 8]
   e-/hole pair  2 beta :  ampl =  0.020216 (  0.0%)   [6 : 9]
   Sum of square amplitudes: 0.36

 NATURAL OCCUPATION NUMBERS (higher than 1.0E-05)
            1           2           3           4           5           6
    1   1.9953810   1.6693179   1.0000043   0.9997613   0.9908141   0.9865501
            7           8           9          10          11          12
    1   0.3392418   0.0186549   0.0001472   0.0000270   0.0000267   0.0000245
           13          14
    1   0.0000132   0.0000109

  Amplitudes : 
  
 | HOLE  | ALPHA   | BETA    | PART  |    AMPLITUDE 
--------------------------------------------------
 |       | 0110101 | 0111000 |  37   |     2.5763350576252E-01
 |       | 0100111 | 0111000 |  37   |    -1.2375066178440E-01
 |       | 0010111 | 0111000 |  37   |     1.2309420189442E-01
 |       | 0111001 | 0110100 |  37   |     2.5093803136237E-01
 |       | 0101011 | 0110100 |  37   |    -1.2817471095901E-01
 |       | 0011011 | 0110100 |  37   |     1.2429844514099E-01
 |       | 0110110 | 0101010 |  37   |     2.2296002147507E-01
 |       | 0110101 | 0101010 |  37   |    -3.2537253487271E-01
 |       | 0111010 | 0100110 |  37   |     2.3899547687324E-01
 |       | 0111001 | 0100110 |  37   |    -3.1256324537111E-01
 |       | 0110110 | 0011010 |  37   |    -2.3738093117524E-01
 |       | 0110101 | 0011010 |  37   |     3.3432302245232E-01
 |       | 0111010 | 0010110 |  37   |    -2.5213371428781E-01
 |       | 0111001 | 0010110 |  37   |     3.2257846646479E-01
 |       | 0111011 | 0100100 |  37   |     1.2564734902291E-01
 |       | 0111011 | 0010100 |  37   |    -1.3565939715025E-01
 |       | 0110111 | 0101000 |  37   |     1.2546997389482E-01
 |       | 0110111 | 0011000 |  37   |    -1.3484180880816E-01
--------------------------------------------------
*** Contributions RASCI wfn    Active:   0.03
                                 Hole:   0.00
                                 Part:  99.97

      Mulliken population analysis 
 ---------------------------------------------------
   Atom    Charge (a.u.)   Spin (a.u.)  
 ---------------------------------------------------
   1  N   -0.388070        4.002700 
   2  H   -2.907634        0.813192 
 ---------------------------------------------------
   Sum:   -3.295704        4.815892 
 ---------------------------------------------------
 
  
 NATURAL OCCUPATION NUMBERS (higher than 1.0E-05)
[...]
    15    1.958035896377e-15
    16    3.002096688742e-17
    17    7.040005586483e-03
    18   -5.418762763623e-17
    19   -2.443540146224e-17
    20   -1.035599753092e-14
    21   -4.161803940629e-16
    22   -8.473305746782e-03
    23    3.900772342597e-16
    24    2.928837921848e-16
    25   -1.771158596344e-15
    26   -2.104105817519e-17
    27   -1.338729419227e-03
    28    1.231186730480e-17
    29   -9.113657496686e-18
    30   -1.271425179553e-16
    31   -4.357367243514e-13
    32    4.940347348177e-15
    33    1.133257364372e-13
    34    2.865295585387e-14
    35    7.180095800061e-17
    36    9.058829683272e-03
    37   -8.183622444008e-15
Sym=X
Ene= 0.476760
Spin=Alpha
Occup=0
     1    3.842983572331e-03
     2    2.880783288907e-03
     3    3.505091064894e-02
     4   -4.971977491437e-01
     5    2.352560446480e+00
     6   -1.048926051503e-14
     7    1.315608671690e-14
     8    6.247244482419e-02
     9   -3.425920382661e-14
    10    4.360161126724e-14
    11    2.725700737115e-01
    12    5.753349740908e-14
    13   -7.323708034734e-14
    14    1.678888901207e+00
    15   -3.356758938299e-02
    16   -3.508007587683e-16
    17    3.004814521562e-16
    18    1.140846921810e-11
    19    6.577940635383e-17
    20    1.792134712520e-01
    21    6.037123798931e-16
    22   -5.414214181422e-16
    23   -9.794702796494e-11
    24   -6.643303664877e-17
    25    3.021592404572e-02
    26    1.133571130908e-16
    27   -2.194457278859e-16
    28   -3.951495811493e-12
    29    3.257132857665e-18
    30   -9.098128555331e-17
    31   -4.043379882970e-17
    32   -8.625534445480e-02
    33   -2.001846604056e+00
    34   -6.540462383793e-01
    35   -2.900394077674e-16
    36    6.939923236563e-16
    37    1.409908869907e-01
Sym=X
Ene= 0.636165
Spin=Alpha
Occup=0
     1    3.331669703645e-02
     2    7.081835976280e-02
     3    1.036215604532e-01
     4   -1.605462036276e+00
     5    2.597061172366e+00
     6    2.980730401838e-16
     7    2.883240918952e-16
     8   -2.989356428474e-01
     9    3.125439640239e-17
    10   -2.209598981367e-16
    11   -1.029144093331e+00
    12   -6.356342286830e-16
    13   -2.868819258515e-16
    14    1.568274460474e+00
    15   -2.864829344545e-03
    16    1.052336476149e-16
    17   -4.835652948012e-17
    18    5.053189831385e-12
    19   -5.006838056480e-17
    20   -3.817785431501e-02
    21   -3.070547772102e-16
    22    1.504858783177e-16
    23   -3.671955985958e-11
    24    2.581278321489e-17
    25   -1.562333708663e-02
    26   -6.302413350173e-17
    27   -1.400907723437e-16
    28    1.391022346197e-12
    29    2.287309927426e-17
    30   -4.742215871744e-17
    31    7.485024061774e-17
    32    9.109193626051e-02
    33    1.031138025205e+00
    34   -2.335262932622e+00
    35    3.680641845932e-16
    36    1.345076901789e-16
    37   -6.285511097659e-02
Sym=X
Ene= 1.144474
Spin=Alpha
Occup=0
     1    1.416252428265e-17
     2    8.668822295884e-17
     3   -1.572840457877e-16
     4    2.859331530675e-16
     5   -3.886773177052e-16
     6   -5.455556044413e-02
     7    1.270528880332e-15
     8   -3.113469373151e-16
     9   -2.161658014456e-02
    10   -2.067265752333e-15
    11    7.687424755503e-16
    12   -6.151181678507e-02
    13    1.401839527706e-19
    14   -1.108582393658e-15
    15    1.751640999290e-16
    16   -1.443568787547e-02
    17    1.104752250577e-16
    18   -8.107022870183e-17
    19   -1.879338425524e-16
    20    4.660779281002e-16
    21    8.597934038679e-01
    22    7.790707505116e-15
    23   -1.796252063116e-15
    24    1.068124135314e-14
    25    2.872286283439e-17
    26    5.512798287817e-03
    27    6.836784082116e-17
    28    2.903387875611e-17
    29    3.011677717166e-16
    30    8.174895647258e-13
    31    4.293692802281e-16
    32    7.893239922514e-16
    33   -7.524445231493e-16
    34    7.494835113355e-16
    35    2.500113310670e-01
    36    1.611293834903e-15
    37    2.442237394453e-16
Sym=X
Ene= 1.144474
Spin=Alpha
Occup=0
     1   -8.969636323268e-18
     2    7.491282721711e-18
     3    3.377161910359e-16
     4   -1.455423594108e-15
     5    1.831215331349e-16
     6   -3.567567248564e-16
     7    5.455556044972e-02
     8    3.334252746921e-16
     9   -8.698821904021e-16
    10    2.161658016113e-02
    11   -1.323658200702e-15
    12    9.816514700450e-16
    13    6.151181674413e-02
    14   -4.327338454224e-16
    15   -5.946908847302e-17
    16   -2.637986176039e-16
    17    1.443568788779e-02
    18    9.792882762182e-17
    19   -2.426711567550e-17
    20   -1.496760512666e-15
    21    5.922095225232e-15
    22   -8.597934038925e-01
    23   -2.906724257012e-15
    24   -1.258766034429e-14
    25   -5.936289832247e-17
    26    2.181940196166e-16
    27   -5.512798289243e-03
    28   -1.068591418703e-16
    29   -2.982241408282e-16
    30    9.846432220578e-17
    31   -8.176991341195e-13
    32   -1.351613005284e-15
    33    4.822078914719e-15
    34   -1.765229541159e-15
    35    8.058603697542e-16
    36   -2.500113310391e-01
    37   -2.849788274530e-16
Sym=X
Ene= 1.197721
Spin=Alpha
Occup=0
     1   -5.373128624576e-17
     2   -1.069757444788e-16
     3    1.007251197534e-15
     4   -1.779338210004e-15
     5   -5.115806461002e-16
     6    2.253914710020e-16
     7    3.212948315416e-17
     8    3.186117474388e-16
     9   -1.925331688859e-15
    10   -4.854147739946e-16
    11   -1.448986174722e-15
    12    6.704821984321e-16
    13   -1.314214674746e-15
    14   -2.657660716064e-16
    15    5.368179323570e-17
    16    3.322009908338e-16
    17   -1.346668396456e-16
    18    3.307688011225e-15
    19    2.239945594014e-02
    20   -1.100301396600e-15
    21    9.623240460593e-15
    22    1.150673378314e-14
    23   -1.516654115258e-13
    24   -1.011400585270e+00
    25    2.279644093998e-17
    26   -3.004040080717e-16
    27    2.149914448939e-16
    28   -1.867672774761e-15
    29   -1.194094570460e-02
    30   -3.156629479688e-17
    31    2.691872383910e-17
    32   -2.859771778713e-16
    33    2.842581866573e-15
    34   -4.099817885481e-16
    35    2.650170302947e-15
    36    3.077855692158e-15
    37   -6.908887478048e-16
Sym=X
Ene= 1.197721
Spin=Alpha
Occup=0
     1    3.412777188936e-12
     2    1.567409282494e-11
     3   -1.110189860953e-10
     4    2.733920099618e-10
     5   -7.055953029206e-10
     6    1.878514138721e-16
     7   -1.936419950036e-18
     8    1.472142661481e-11
     9   -3.011504204670e-16
    10    8.574956104763e-16
    11   -1.128838561055e-10
    12    2.402533296415e-16
    13   -1.368149671851e-15
    14   -3.171957972641e-10
    15    1.170379509669e-11
    16    1.960902089330e-16
    17    3.807635232652e-17
    18    2.239945594014e-02
    19   -3.425767898083e-15
    20   -2.432859438407e-10
    21   -1.816170929541e-15
    22    2.969842053924e-15
    23   -1.011400585270e+00
    24    1.522181276289e-13
    25   -1.442517524151e-11
    26    1.412703387054e-16
    27    1.458208856953e-16
    28   -1.194094570460e-02
    29    1.715006044507e-15
    30    2.434325407034e-17
    31    3.324279779295e-16
    32   -1.217536065764e-11
    33    5.013311273769e-10
    34    1.929358009612e-10
    35   -4.262370163421e-16
    36    1.497940256861e-16
    37   -6.140159039066e-11
Sym=X
Ene= 1.471110
Spin=Alpha
Occup=0
     1    9.628419253426e-05
     2   -4.567312878883e-03
     3    2.638082399278e-01
     4   -9.168440757941e-01
     5   -1.025345416127e+00
     6    9.393715965579e-16
     7    6.013886509542e-16
     8    7.385649617751e-02
     9   -1.071142935376e-15
    10   -1.115204429437e-15
    11   -8.997801324834e-01
    12   -6.118889596688e-17
    13    6.260578225451e-16
    14   -9.875011694297e-01
    15    1.320837616123e-02
    16   -5.708557274307e-17
    17   -1.408580315298e-16
    18   -4.345416756543e-13
    19   -3.868244908101e-16
    20   -1.597161000355e+00
    21    3.987913502472e-16
    22    1.821001406507e-15
    23    1.416333303705e-10
    24    8.555194191349e-16
    25   -1.101293365871e-01
    26    1.669653638109e-17
    27   -2.270103071981e-17
    28    2.352231220201e-12
    29    2.437221982748e-16
    30    1.279549577880e-16
    31    1.794718477794e-19
    32   -2.496940156986e-01
    33    3.022031882170e+00
    34   -1.663528157335e-01
    35    5.534179409557e-16
    36    8.490543025303e-17
    37   -4.742233370521e-01
Sym=X
Ene= 2.104837
Spin=Alpha
Occup=0
     1    1.190655496203e-16
     2    3.142100601684e-16
     3   -2.449278591993e-15
     4    5.532842955658e-15
     5   -7.686658054364e-15
     6   -4.285616170260e-01
     7   -7.707367933435e-15
     8   -5.760637489710e-15
     9    3.363153743867e-01
    10   -3.729867231587e-15
    11    8.081804750470e-15
    12   -3.747913961844e-01
    13   -1.193740303818e-14
    14   -6.433681259365e-15
    15    7.823522089315e-17
    16    2.234696020402e-02
    17    1.137350313552e-16
    18   -6.176635684571e-16
    19    1.918292141998e-16
    20   -9.868680233524e-16
    21   -7.628355357575e-01
    22   -4.533600871017e-14
    23    3.773331671116e-16
    24   -1.124759984930e-15
    25    2.168338897654e-16
    26    2.077710438792e-02
    27    1.473204382853e-15
    28    1.563681897841e-17
    29    3.046137215891e-16
    30   -8.090042079519e-13
    31    9.289242177725e-16
    32    1.924278707157e-15
    33   -3.491439009267e-15
    34    6.977208439712e-15
    35    1.096390644823e+00
    36    6.506322309261e-14
    37   -8.252785437211e-16
Sym=X
Ene= 2.104837
Spin=Alpha
Occup=0
     1    1.605766575897e-15
     2    5.490811368782e-15
     3   -4.011851695290e-14
     4    6.469585299837e-14
     5   -2.559038859214e-14
     6   -2.512865878378e-14
     7    4.285616171018e-01
     8    7.528321000460e-15
     9    2.046758724691e-14
    10   -3.363153744215e-01
    11    3.577576888549e-15
    12   -1.985621411217e-14
    13    3.747913961396e-01
    14    1.990861068091e-15
    15   -1.948056257845e-16
    16    2.120713848942e-15
    17   -2.234696021002e-02
    18    5.323173600774e-18
    19    2.571668687010e-16
    20    6.982128854784e-15
    21   -4.204456064989e-14
    22    7.628355357300e-01
    23    7.097893680234e-16
    24    8.693643106296e-16
    25    8.958787748670e-16
    26    1.033560613668e-15
    27   -2.077710438169e-02
    28   -8.470931973047e-17
    29   -6.247332590557e-16
    30   -6.879512656044e-16
    31    8.064577005919e-13
    32   -6.078152327263e-16
    33   -2.069026436267e-14
    34    1.036572674616e-14
    35    5.636550254318e-14
    36   -1.096390644805e+00
    37    9.844739076615e-15
Sym=X
Ene= 2.198037
Spin=Alpha
Occup=0
     1    1.069713687144e-01
     2    3.715395151877e-01
     3   -2.772788824393e+00
     4    4.862758978438e+00
     5   -2.488821101717e+00
     6    3.308628919257e-15
     7   -3.006210050976e-15
     8   -2.195138659094e-01
     9   -4.519374751994e-15
    10    1.277622700016e-15
    11    1.217838224069e+00
    12    2.217523940907e-15
    13   -3.169895970501e-15
    14   -4.727546029158e-01
    15    1.854316514836e-02
    16    2.327622902281e-16
    17    1.499328112118e-16
    18    5.888223921841e-12
    19    1.607427709668e-16
    20    1.892757475975e-01
    21    2.318267096163e-16
    22   -9.083358453180e-15
    23    3.743936313370e-11
    24   -6.627998474378e-16
    25    1.422415810843e-01
    26   -3.281787859386e-16
    27    1.715555987929e-17
    28    1.618016261789e-12
    29    1.063547963198e-16
    30    2.556504895212e-16
    31    2.308256851764e-16
    32    5.723293747416e-01
    33   -2.098975400631e+00
    34    1.431667698852e+00
    35   -9.896284369459e-16
    36    1.225059021626e-14
    37    6.854336921100e-01
Sym=X
Ene= 2.246856
Spin=Alpha
Occup=0
     1   -6.008519097164e-02
     2   -2.090468033897e-01
     3    1.170933421657e+00
     4   -7.585207713414e-01
     5    4.733128921267e-01
     6    1.202536469654e-15
     7    1.823088580911e-15
     8   -8.723492452641e-01
     9   -7.319759903937e-16
    10   -2.396781700267e-16
    11    1.794944034183e+00
    12    1.240786754272e-15
    13    2.836301603025e-15
    14   -4.428972728416e-01
    15    1.668113939231e-02
    16    1.874878658240e-16
    17   -1.774972919520e-16
    18   -2.452364982189e-12
    19   -2.134937119344e-16
    20    1.166512593109e-01
    21    2.243869440935e-15
    22    7.308872223131e-15
    23   -8.300644078843e-12
    24   -1.013604380067e-16
    25    1.401071895723e-01
    26   -8.936864953914e-17
    27   -5.530721898645e-16
    28   -4.179869777448e-12
    29    1.554109954136e-16
    30   -2.518792438284e-17
    31   -2.958730624232e-17
    32    6.216126756117e-01
    33   -1.751838803596e+00
    34    5.768484381032e-01
    35   -4.377839902460e-15
    36   -1.194402528483e-14
    37    6.269837983570e-01
Sym=X
Ene= 2.361051
Spin=Alpha
Occup=0
     1   -1.394108853017e-16
     2   -5.603884265512e-16
     3    7.306397667133e-15
     4   -1.965292382758e-14
     5    3.824080222943e-15
     6    1.181139885329e+00
     7   -4.199449761457e-14
     8   -1.779897630486e-15
     9   -1.643547635080e+00
    10    6.012581383295e-14
    11   -7.240706186106e-15
    12    6.123684046915e-01
    13   -2.237044168072e-14
    14   -2.191854737335e-15
    15    3.459137406618e-16
    16    1.706795490996e-02
    17   -1.101269462856e-15
    18   -3.494269749479e-16
    19   -5.853728320635e-17
    20   -3.898305582431e-15
    21   -3.008470873015e-01
    22    1.246239829405e-14
    23    4.825711408250e-16
    24    1.137921884684e-15
    25   -9.893735959521e-16
    26    3.034363325897e-02
    27   -1.315871295153e-15
    28    6.122677775067e-16
    29    2.081119592578e-16
    30    1.481555037123e-11
    31   -5.378130116682e-16
    32   -3.033436652992e-16
    33    1.364605056900e-14
    34   -1.486190005598e-15
    35    4.964442011842e-01
    36   -2.043262003278e-14
    37   -1.016231703600e-14
Sym=X
Ene= 2.361051
Spin=Alpha
Occup=0
     1   -3.570527950558e-16
     2   -1.093873312250e-15
     3    9.779102282702e-15
     4   -1.768065234293e-14
     5    7.265900409666e-15
     6    5.079665732640e-14
     7    1.181139885334e+00
     8    4.112764984423e-16
     9   -6.631205458872e-14
    10   -1.643547635000e+00
    11   -4.019019072898e-15
    12    2.826377674926e-14
    13    6.123684045944e-01
    14   -8.131225291597e-17
    15    7.495485227529e-16
    16   -1.203445776734e-15
    17    1.706795491472e-02
    18    1.149317793750e-16
    19   -1.045008313932e-15
    20   -3.126201104383e-15
    21   -9.963343626691e-16
    22   -3.008470873348e-01
    23   -4.320049854146e-16
    24    1.570160906859e-15
    25    2.150652679119e-16
    26    1.187993884073e-15
    27    3.034363326478e-02
    28    4.803664443863e-16
    29   -7.136122498665e-16
    30    5.226154888903e-16
    31    1.480914694381e-11
    32    3.833137708259e-15
    33    2.267509542354e-15
    34   -9.957383530502e-16
    35    1.859399949549e-15
    36    4.964442012405e-01
    37   -3.550292589965e-15
Sym=X
Ene= 2.705760
Spin=Alpha
Occup=0
     1    3.905662459182e-02
     2    1.328116251022e-01
     3   -6.191298087842e-01
     4   -4.807673583273e-02
     5   -9.988537657257e-01
     6   -2.701291525380e-15
     7    2.754068561057e-15
     8   -8.822993120074e-01
     9    3.844914150484e-15
    10   -3.021313158183e-15
    11    1.424036556465e-01
    12   -2.870100685070e-16
    13    2.008216645301e-15
    14   -8.535570923089e-01
    15   -5.886021679704e-03
    16    1.457437634012e-15
    17   -1.812250188861e-15
    18    1.498928326857e-13
    19    3.433306532006e-16
    20   -3.528392478177e-01
    21    2.104384767855e-15
    22    3.035925803463e-15
    23    7.630823784681e-14
    24   -3.405920934005e-16
    25   -2.453434926386e-01
    26   -3.331064978541e-15
    27   -1.707820612473e-16
    28   -1.366002625950e-11
    29   -1.396530408479e-16
    30    6.739245906406e-17
    31    2.191338950296e-16
    32   -5.715296572174e-01
    33    1.882339297130e+00
    34    2.558162329438e-01
    35   -4.118369402533e-15
    36   -2.852465781108e-15
    37   -1.173026714195e+00
Sym=X
Ene= 3.192220
Spin=Alpha
Occup=0
     1   -3.629814915982e-04
     2    2.436777469624e-02
     3   -1.018402537749e+00
     4    3.365360880812e+00
     5   -4.532392072094e-01
     6    2.410955493054e-15
     7    2.113439921536e-15
     8   -3.123295950123e-01
     9   -2.746829649129e-15
    10   -3.547738198248e-15
    11    2.766179265517e+00
    12    2.314365747993e-15
    13    1.054768080588e-15
    14   -1.214600931018e-01
    15   -1.702075704240e-01
    16   -5.632414837703e-15
    17    6.882632322696e-15
    18   -5.124165531037e-12
    19   -1.272620615703e-15
    20    1.558591453271e+00
    21    4.955073305585e-15
    22   -4.785400688943e-15
    23   -1.080137678553e-12
    24    1.738641377940e-16
    25   -1.347660021116e-01
    26    1.038936513654e-14
    27    3.770036933595e-15
    28   -2.765142715358e-11
    29    1.879516916275e-16
    30    3.524093924876e-16
    31    9.435025000931e-16
    32   -8.575014679525e-01
    33   -2.770335980218e+00
    34    5.597363849330e-01
    35   -3.195232627668e-15
    36    3.086400393465e-15
    37    1.977209233255e+00
Sym=X
Ene= 4.201300
Spin=Alpha
Occup=0
     1   -1.022879391938e-16
     2    1.135312415100e-16
     3    4.026968045588e-16
     4   -1.252193731298e-15
     5   -6.875807092316e-16
     6    5.364072678048e-16
     7   -2.787245750334e-15
     8    9.395706275798e-17
     9   -7.052125728939e-16
    10    3.590063033960e-15
    11   -1.016333457461e-15
    12   -3.955724169079e-16
    13   -1.095685400442e-15
    14   -8.849291288646e-16
    15    1.368858860385e-15
    16   -2.375619269276e-16
    17   -9.146538896779e-16
    18    3.753104733462e-15
    19   -3.761207798519e-02
    20   -2.475419495308e-15
    21   -1.875227189028e-16
    22    1.280261410567e-15
    23   -1.043886792328e-15
    24    3.089277211120e-02
    25   -1.109078995792e-15
    26   -1.370987708169e-15
    27    2.763152595159e-15
    28   -4.521437477895e-14
    29   -9.994198959148e-01
    30   -1.948895587351e-13
    31   -7.284132211926e-13
    32    1.156287821104e-15
    33    1.872094688524e-15
    34   -8.795618854931e-17
    35    1.696842109605e-15
    36   -9.209727228204e-16
    37   -8.896477006450e-17
Sym=X
Ene= 4.201300
Spin=Alpha
Occup=0
     1   -2.232737326912e-13
     2   -1.576487967451e-12
     3    3.847477564152e-11
     4   -1.119165154210e-10
     5    2.029541308826e-11
     6    1.477581076225e-15
     7    5.083451964969e-16
     8    2.409627867443e-11
     9   -2.881249694732e-15
    10   -2.053483477876e-17
    11   -1.120097391839e-10
    12    6.882113418039e-16
    13    5.666509211601e-16
    14    1.085230804733e-11
    15    8.127079093290e-12
    16   -1.606653207333e-15
    17   -1.146442304857e-15
    18   -3.761207798518e-02
    19    5.862789366397e-16
    20   -5.617442652766e-11
    21   -6.700969175133e-16
    22    2.245957116762e-15
    23    3.089277211119e-02
    24   -5.616878761151e-16
    25   -5.366889854528e-12
    26   -5.398820657100e-15
    27    6.880467599405e-15
    28   -9.994198959148e-01
    29    4.453837472440e-14
    30   -3.826927406438e-13
    31    1.989796299496e-13
    32    4.173412612975e-11
    33    8.400888445212e-11
    34   -2.299247409506e-11
    35    3.200616951322e-15
    36   -2.973124050055e-15
    37   -5.441998193923e-11
[5D7F]

======= END OF MOLDEN-FORMATTED INPUT FILE =======


        *************************************************************
        *                                                           *
        *  Thank you very much for using Q-Chem.  Have a nice day.  *
        *                                                           *
        *************************************************************


