                  Welcome to Q-Chem
     A Quantum Leap Into The Future Of Chemistry


 Q-Chem 6.0 (devel), Q-Chem, Inc., Pleasanton, CA (2022)

 E. Epifanovsky,  A. T. B. Gilbert,  Xintian Feng,  Joonho Lee,  Yuezhi Mao,  
 N. Mardirossian,  P. Pokhilko,  A. White,  M. Wormit,  M. P. Coons,  
 A. L. Dempwolff,  Zhengting Gan,  D. Hait,  P. R. Horn,  L. D. Jacobson,  
 I. Kaliman,  J. Kussmann,  A. W. Lange,  Ka Un Lao,  D. S. Levine,  Jie Liu,  
 S. C. McKenzie,  A. F. Morrison,  K. Nanda,  F. Plasser,  D. R. Rehn,  
 M. L. Vidal,  Zhi-Qiang You,  Ying Zhu,  B. Alam,  B. Albrecht,  
 A. Aldossary,  E. Alguire,  J. H. Andersen,  V. Athavale,  D. Barton,  
 K. Begam,  A. Behn,  N. Bellonzi,  Y. A. Bernard,  E. J. Berquist,  
 H. Burton,  A. Carreras,  K. Carter-Fenk,  Romit Chakraborty,  
 Chandrima Chakravarty,  Junhan Chen,  A. D. Chien,  K. D. Closser,  
 V. Cofer-Shabica,  L. Cunha,  S. Dasgupta,  Jia Deng,  M. de Wergifosse,  
 M. Diedenhofen,  Hainam Do,  S. Ehlert,  Po-Tung Fang,  S. Fatehi,  
 Qingguo Feng,  T. Friedhoff,  B. Ganoe,  J. Gayvert,  Qinghui Ge,  
 G. Gidofalvi,  M. Goldey,  J. Gomes,  C. Gonzalez-Espinoza,  S. Gulania,  
 A. Gunina,  J. A. Gyamfi,  M. W. D. Hanson-Heine,  P. H. P. Harbach,  
 A. W. Hauser,  M. F. Herbst,  M. Hernandez Vera,  M. Hodecker,  
 Z. C. Holden,  S. Houck,  Xunkun Huang,  Kerwin Hui,  B. C. Huynh,  
 K. Ikeda,  M. Ivanov,  Hyunjun Ji,  Zuxin Jin,  Hanjie Jiang,  B. Kaduk,  
 S. Kaehler,  R. Kang,  K. Khistyaev,  Jaehoon Kim,  Yongbin Kim,  
 P. Klunzinger,  Z. Koczor-Benda,  Joong Hoon Koh,  D. Kosenkov,  
 Saikiran Kotaru,  L. Koulias,  T. Kowalczyk,  C. M. Krauter,  K. Kue,  
 A. Kunitsa,  T. Kus,  A. Landau,  K. V. Lawler,  D. Lefrancois,  S. Lehtola,  
 Rain Li,  Shaozhi Li,  Yi-Pei Li,  Jiashu Liang,  M. Liebenthal,  
 Hung-Hsuan Lin,  You-Sheng Lin,  Fenglai Liu,  Kuan-Yu Liu,  
 M. Loipersberger,  A. Luenser,  C. Malbon,  A. Manjanath,  P. Manohar,  
 E. Mansoor,  S. F. Manzer,  Shan-Ping Mao,  A. V. Marenich,  T. Markovich,  
 S. Mason,  F. Matz,  S. A. Maurer,  P. F. McLaughlin,  M. F. S. J. Menger,  
 J.-M. Mewes,  S. A. Mewes,  P. Morgante,  Mohammad Mostafanejad,  
 J. W. Mullinax,  K. J. Oosterbaan,  G. Paran,  V. Parravicini,  
 Alexander C. Paul,  Suranjan K. Paul,  F. Pavosevic,  Zheng Pei,  S. Prager,  
 E. I. Proynov,  E. Ramos,  B. Rana,  A. E. Rask,  A. Rettig,  R. M. Richard,  
 F. Rob,  E. Rossomme,  T. Scheele,  M. Scheurer,  M. Schneider,  
 P. E. Schneider,  N. Sergueev,  S. M. Sharada,  Hengyuan Shen,  
 W. Skomorowski,  D. W. Small,  C. J. Stein,  Yingli Su,  Yu-Chuan Su,  
 E. J. Sundstrom,  Zhen Tao,  J. Thirman,  Hung-Yi Tsai,  T. Tsuchimochi,  
 N. M. Tubman,  C. Utku,  S. P. Veccham,  O. Vydrov,  J. Wenzel,  
 Jonathan Wong,  J. Witte,  A. Yamada,  Chou-Hsun Yang,  Kun Yao,  
 S. Yeganeh,  S. R. Yost,  A. Zech,  F. Zeller,  Igor Ying Zhang,  
 Xing Zhang,  Yu Zhang,  D. Zuev,  A. Aspuru-Guzik,  A. T. Bell,  
 N. A. Besley,  K. B. Bravaya,  B. R. Brooks,  D. Casanova,  Jeng-Da Chai,  
 Hsing-Ta Chen,  S. Coriani,  C. J. Cramer,  A. E. DePrince, III,  
 R. A. DiStasio Jr.,  A. Dreuw,  B. D. Dunietz,  T. R. Furlani,  
 W. A. Goddard III,  S. Grimme,  S. Hammes-Schiffer,  T. Head-Gordon,  
 W. J. Hehre,  Chao-Ping Hsu,  T.-C. Jagau,  Yousung Jung,  A. Klamt,  
 Jing Kong,  D. S. Lambrecht,  Xiangyuan Li,  WanZhen Liang,  N. J. Mayhall,  
 C. W. McCurdy,  J. B. Neaton,  T. Neudecker,  C. Ochsenfeld,  
 J. A. Parkhill,  R. Peverati,  V. A. Rassolov,  Haisheng Ren,  Yihan Shao,  
 L. V. Slipchenko,  R. P. Steele,  J. E. Subotnik,  A. J. W. Thom,  
 A. Tkatchenko,  D. G. Truhlar,  T. Van Voorhis,  Fan Wang,  
 T. A. Wesolowski,  K. B. Whaley,  H. L. Woodcock III,  P. M. Zimmerman,  
 S. Faraji,  P. M. W. Gill,  M. Head-Gordon,  J. M. Herbert,  A. I. Krylov

 Contributors to earlier versions of Q-Chem not listed above: 
 R. D. Adamson,  B. Austin,  R. Baer,  J. Baker,  G. J. O. Beran,  
 K. Brandhorst,  S. T. Brown,  E. F. C. Byrd,  Arup K. Chakraborty,  
 G. K. L. Chan,  Chun-Min Chang,  Yunqing Chen,  C.-L. Cheng,  
 Siu Hung Chien,  D. M. Chipman,  D. L. Crittenden,  H. Dachsel,  
 R. J. Doerksen,  A. D. Dutoi,  R. G. Edgar,  J. Fosso-Tande,  
 L. Fusti-Molnar,  D. Ghosh,  A. Ghysels,  A. Golubeva-Zadorozhnaya,  
 J. Gonthier,  M. S. Gordon,  S. R. Gwaltney,  G. Hawkins,  J. E. Herr,  
 A. Heyden,  S. Hirata,  E. G. Hohenstein,  G. Kedziora,  F. J. Keil,  
 C. Kelley,  Jihan Kim,  R. A. King,  R. Z. Khaliullin,  P. P. Korambath,  
 W. Kurlancheek,  A. Laurent,  A. M. Lee,  M. S. Lee,  S. V. Levchenko,  
 Ching Yeh Lin,  D. Liotard,  E. Livshits,  R. C. Lochan,  I. Lotan,  
 L. A. Martinez-Martinez,  P. E. Maslen,  N. Nair,  D. P. O'Neill,  
 D. Neuhauser,  E. Neuscamman,  C. M. Oana,  R. Olivares-Amaya,  R. Olson,  
 T. M. Perrine,  B. Peters,  P. A. Pieniazek,  A. Prociuk,  Y. M. Rhee,  
 J. Ritchie,  M. A. Rohrdanz,  E. Rosta,  N. J. Russ,  H. F. Schaefer III,  
 M. W. Schmidt,  N. E. Schultz,  S. Sharma,  N. Shenvi,  C. D. Sherrill,  
 A. C. Simmonett,  A. Sodt,  T. Stein,  D. Stuck,  K. S. Thanthiriwatte,  
 V. Vanovschi,  L. Vogt,  Tao Wang,  A. Warshel,  M. A. Watson,  
 C. F. Williams,  Q. Wu,  X. Xu,  Jun Yang,  W. Zhang,  Yan Zhao

   Please cite Q-Chem as follows:
  "Software for the frontiers of quantum chemistry:
   An overview of developments in the Q-Chem 5 package"
   J. Chem. Phys. 155, 084801 (2021)
   https://doi.org/10.1063/5.0055522 (open access)

 Q-Chem 6.0.1 for Intel X86 EM64T Linux

 Parts of Q-Chem use Armadillo 9.900.5 (Nocturnal Misbehaviour).
 http://arma.sourceforge.net/

 Q-Chem begins on Mon Sep 25 15:12:02 2023  

 Host: atlas-207
0

     Scratch files written to ./qchem238967//
 Processing $rem in /scratch/abel/SOFTWARE/qchem/config/preferences:
 Processing $rem in /dipc/acebg/.qchemrc:

 Checking the input file for inconsistencies... 	...done.

--------------------------------------------------------------
User input:
--------------------------------------------------------------
$comment
 RAS-SF CALCULATION
$end

$molecule
 READ o2.molecule
$end

$rem
!**CALCULATION TYPE***     
JOBTYPE            sp    
EXCHANGE           HF
CORRELATION        RASCI    !RASCI=Casanova; RASCI2=Zimmerman
BASIS              def2-TZVP

!***SCF REFERENCE***
!SKIP_SCFMAN        FALSE
UNRESTRICTED       FALSE
!SCF_GUESS          core
!SCF_GUESS_MIX      FALSE
!SCF_GUESS_ALWAYS   FALSE
MAX_SCF_CYCLES     500
!SCF_CONVERGENCE    8
SCF_ALGORITHM      DIIS_GDM !DIIS,DM,DIIS_DM,GDM,DIIS_GDM,GD

!SYMMETRY           TRUE !use of symmetry for calculating integrals
!SYM_IGNORE         FALSE !turn off using symmetry
!SYM_TOL            5 !tolerance for determining point group

!THRESH             14
SCF_FINAL_PRINT     1 !0,1,2,3

!****RAS-SF****
RAS_ROOTS          20       !number of RAS-CI roots to be computed
SET_ITER           150     !number of iterations in RASCI
RAS_ELEC           8       !number of electrons in RAS2
!RAS_ELEC_ALPHA     5       !spin-α electrons in RAS2 
!RAS_ELEC_BETA      3      !spin-β electrons in RAS2

RAS_ACT            6       !number of orbitals in RAS2 
!RAS_ACT_ORB   [5,6,7,8,9,10]  !user-selected RAS2 orbitals
RAS_OCC            4       !number of orbitals in RAS1
!N_FROZEN_CORE      0     !Number of frozen core orbitals
!N_FROZEN_VIRTUAL   0      !Number of frozen virtual orbitals

RAS_DO_HOLE        TRUE   !presence of hole excitations in RAS-CI wave function
RAS_DO_PART        TRUE   !presence of particle excitations
!RAS_AMPL_PRINT     10     !threshold (×10 2 ) for the CI amplitudes

!RAS_GUESS_CS       0      !number of closed shell guess conﬁgurations
RAS_SPIN_MULT      0      !spin multiplicity: 0=any, 2n+1=defined 
!RAS_SRDFT          FALSE  !short-range density functional RAS-CI
!RAS_NFRAG          0     !fragments of excitation analysis in RASCI

RAS_PRINT          2      !level of information
RAS_NATORB         TRUE   !computation of the natural orbital occupancies
!RAS_NATORB_STATE  0      !Saves NO of i RAS computed state in .fchk ﬁle
!RAS_FOD            TRUE

!****RAS-SOC****
CALC_SOC           TRUE   !calculate SOC for EOM-CC, RAS-CI, ADC, TDDFT/TDA and TDDFT
!RAS_SOC_2E        TRUE   !two-electron mean-ﬁeld contribution, default=true
RAS_SOC_SYM_DENS   TRUE   !averaging of α and β densities

!****MEMORY****
MEM_TOTAL          60000 !Default 2000 MB
MEM_STATIC         16000  !Default 64 MB

!**Molecular Properties and Analysis **                                                                                          
!GUI                2
STATE_ANALYSIS     TRUE
MOLDEN_FORMAT      TRUE
PRINT_ORBITALS     20
$end                                           

--------------------------------------------------------------
 ----------------------------------------------------------------
             Standard Nuclear Orientation (Angstroms)
    I     Atom           X                Y                Z
 ----------------------------------------------------------------
    1      O       0.0000000000     0.0000000000    -0.6037600000
    2      O       0.0000000000     0.0000000000     0.6037600000
 ----------------------------------------------------------------
 Molecular Point Group                 D2h   NOp =  8
 Largest Abelian Subgroup              D2h   NOp =  8
 Nuclear Repulsion Energy =          28.04702323 hartrees
 There are        9 alpha and        7 beta electrons
 Requested basis set is def2-TZVP
 There are 22 shells and 62 basis functions

 Q-Chem warning in module libmdc/get_mega.C, line 167:

 Allowed MEM_STATIC has been capped at MEM_STATIC=8191.
 Reduce the value of MEM_STATIC to silence this warning.


 Total QAlloc Memory Limit  60000 MB
 Mega-Array Size      8007 MB
 MEM_STATIC part      8191 MB


                       Distance Matrix (Angstroms)
             O (  1)
   O (  2)  1.207520
 
 A cutoff of  1.0D-09 yielded    252 shell pairs
 There are      2052 function pairs (      2795 Cartesian)
 Smallest overlap matrix eigenvalue = 1.88E-03

 Scale SEOQF with 1.000000e+00/1.000000e+00/1.000000e+00

 Standard Electronic Orientation quadrupole field applied
 Nucleus-field energy     =    -0.0000000062 hartrees
 Guess from superposition of atomic densities
 Warning:  Energy on first SCF cycle will be non-variational
 SAD guess density has 16.000000 electrons

 -----------------------------------------------------------------------
  General SCF calculation program by
  Eric Jon Sundstrom, Paul Horn, Yuezhi Mao, Dmitri Zuev, Alec White,
  David Stuck, Shaama M.S., Shane Yost, Joonho Lee, David Small,
  Daniel Levine, Susi Lehtola, Hugh Burton, Evgeny Epifanovsky,
  Bang C. Huynh
 -----------------------------------------------------------------------
 Hartree-Fock
 Orthonormalizing orbitals
 A restricted open-shell SCF calculation will be
 performed using DIIS, GDM
 SCF converges when RMS gradient is below 1.0e-05
 ---------------------------------------
  Cycle       Energy         DIIS error
 ---------------------------------------
    1    -146.1400372979      2.09e-01  
    2    -149.3700578447      7.03e-02  
    3    -149.4812053005      5.80e-02  
    4    -149.6572070788      7.12e-03  Done DIIS. Switching to GDM
 ---------------------------------------
  Cycle       Energy        RMS Gradient
 ---------------------------------------
    1    -149.6572070788      3.24e-02   Normal BFGS step
    2    -149.6598871013      1.33e-02   Normal BFGS step
    3    -149.6602953023      1.20e-03   Normal BFGS step
    4    -149.6602995691      2.83e-04   Normal BFGS step
    5    -149.6602997700      2.04e-05   Normal BFGS step
    6    -149.6602997734      4.50e-06  Convergence criterion met
The disked orbital energies are calculated using alpha and beta Focks
 ---------------------------------------
 Alpha HF Exchange    Energy =  -8.91933950170810
 Beta HF Exchange     Energy =  -7.37145748668577
 Nuclear Attraction   Energy =   0.00000000000000
 One-Electron (alpha) Energy = -140.42924599636137
 One-Electron (beta)  Energy = -121.21465911081526
 Total Coulomb        Energy = 100.22737909800853
 Final Alpha MO Eigenvalues
            1           2           3           4           5           6
    1 -20.7505223 -20.7499110  -1.7033388  -1.1885854  -0.7698400  -0.8219753
            7           8           9          10          11          12
    1  -0.8219752  -0.5321271  -0.5321271   0.3381557   0.4686970   0.5152922
           13          14          15          16          17          18
    1   0.5152922   0.5730151   0.6215618   0.6215618   0.6457636   0.8987179
           19          20          21          22          23          24
    1   1.4427469   1.4427469   1.5324709   1.5324709   1.8586974   1.8586974
           25          26          27          28          29          30
    1   2.0960139   2.3808380   2.3808380   2.4271520   2.7563303   2.7563304
           31          32          33          34          35          36
    1   2.8485613   3.0816948   3.1066527   3.1066527   3.2770698   4.6313507
           37          38          39          40          41          42
    1   4.9767064   4.9767064   5.0273381   5.0273381   5.3131640   5.3131640
           43          44          45          46          47          48
    1   5.4130718   5.5602967   5.5602967   6.1176369   6.1176369   6.4971799
           49          50          51          52          53          54
    1   6.4971799   6.7116510   6.7116510   6.7609163   6.7609163   6.8255015
           55          56          57          58          59          60
    1   6.8759072   6.8759072   7.6553830   7.6553830   7.9313718   9.1362519
           61          62
    1  44.4809610  45.0219005
 Final Beta MO Eigenvalues
            1           2           3           4           5           6
    1 -20.7094725 -20.7081789  -1.5953837  -1.0080554  -0.7010890  -0.5890796
            7           8           9          10          11          12
    1  -0.5890796   0.1099457   0.1099452   0.3740181   0.4883126   0.5559881
           13          14          15          16          17          18
    1   0.5559881   0.5792396   0.6665329   0.6665325   0.6939137   0.9217086
           19          20          21          22          23          24
    1   1.5041446   1.5041446   1.5982027   1.5982027   1.9538404   1.9538404
           25          26          27          28          29          30
    1   2.1298458   2.4396661   2.4396661   2.4538984   2.8527837   2.8527837
           31          32          33          34          35          36
    1   2.8919416   3.1238940   3.1890471   3.1890471   3.3098010   4.6615023
           37          38          39          40          41          42
    1   5.0153634   5.0153634   5.0587293   5.0587293   5.3708128   5.3708128
           43          44          45          46          47          48
    1   5.4534937   5.6229902   5.6229902   6.1691010   6.1691010   6.6015063
           49          50          51          52          53          54
    1   6.6015063   6.8083982   6.8083982   6.8212054   6.8212054   6.8670189
           55          56          57          58          59          60
    1   6.9315658   6.9315658   7.6857586   7.6857586   7.9605242   9.1618089
           61          62
    1  44.5040184  45.0441365
 SCF time:   CPU 1.54s  wall 2.00s 
<S^2> =          2.000000000
 SCF   energy in the final basis set =     -149.6602997734
 Total energy in the final basis set =     -149.6602997734
  
     ##========================================##
     ||                                        ||
     ||              R A S M A N 2             ||
     ||________________________________________||
     ||                                        ||
     ||  Author:                               ||
     ||                                        ||
     ||        David Casanova (2010)           ||
     ||                                        ||
     ##========================================##
  
Setting single-point xc-functionals (if necessary)

  ***************************************************
  *  RAS-CI Dimensions:                             *
  *                                                 *
  *  Active Elec.:   8 ( 4, 4)   Active Orb.:   6   *
  *  Doubly Occ. :   4           Doubly Vir.:  52   *
  *  Frozen Occ. :   0           Frozen Vir.:   0   *
  *                                                 *
  *  Total CI configurations:     32145             * 
  *    Active configurations:       225             * 
  *      Hole configurations:       720             * 
  *  Particle configurations:     31200             * 
  *                                                 *
  *   Requested states:       20                    *
  *  Spin multiplicity: Any multiplicity            *
  *                                                 *
  ***************************************************
-----------------------------------------
    Memory requirements of RASCI

 Each CI-vector requires      0.25 MiB 
 Max. subspace vectors           3000      

 Reduced Lists                0.00 MiB 
 Excitation Lists             0.00 MiB 
 Excitation Lists Sign        0.00 MiB 
 CI-space (Max)             809.33 MiB 
 Integrals                    2.59 MiB 
 Memory required (Max)      809.34 MiB 
 Memory available          7811.55 MiB 

    Disk requirements of RASCI

 Fock matrix                  0.06 MiB 
 2-electron integrals         3.31 MiB 
 CI-space                  1471.48 MiB 
 Disk required             1474.85 MiB 
-----------------------------------------
  
RAS1 HF-like energy:           -129.0590489284
 Computing integrals
 Computing J and K matrices
 Computing addressing
 Making amplitude guesses
 
Direct CI diagonalization
 ---------------------------------------------------
 Iter    Rts Conv    Rts Left    Ttl Dev     Max Dev
 ---------------------------------------------------
   1         0          20      0.054461    0.003984
   2         0          20      0.027227    0.001894
   3         0          20      0.020863    0.001629
   4         0          20      0.015894    0.001586
   5         0          20      0.012850    0.001367
   6         0          20      0.011313    0.001508
   7         0          20      0.006041    0.001134
   8         0          20      0.005862    0.001089
   9         0          20      0.005442    0.001094
  10         0          20      0.003954    0.000873
  11         0          20      0.003915    0.001275
  12         0          20      0.002427    0.000725
  13         0          20      0.004174    0.002295
  14         0          20      0.005221    0.001552
  15         0          20      0.005957    0.002819
  16         0          20      0.007088    0.003067
  17         4          16      0.008422    0.003253
  18         4          16      0.007692    0.003403
  19         4          16      0.007199    0.002785
  20         8          12      0.003587    0.001654
  21         9          11      0.002569    0.001289
  22        11           9      0.002323    0.001413
  23        13           7      0.001771    0.001135
  24        14           6      0.001501    0.001041
  25        16           4      0.000789    0.000536
  26        16           4      0.000673    0.000441
  27        16           4      0.000685    0.000524
  28        16           4      0.000629    0.000524
  29        16           4      0.003307    0.002487
  30        16           4      0.003666    0.002895
  31        16           4      0.002214    0.001613
  32        16           4      0.002064    0.001419
  33        16           4      0.002424    0.001610
  34        16           4      0.001778    0.001149
  35        16           4      0.001306    0.000813
  36        16           4      0.000818    0.000502
  37        16           4      0.000804    0.000494
  38        18           2      0.000670    0.000408
  39        18           2      0.000377    0.000229
  40        18           2      0.000334    0.000203
  41        18           2      0.000319    0.000196
  42        18           2      0.000225    0.000136
  43        18           2      0.000176    0.000106
  44        18           2      0.000092    0.000052
  45        18           2      0.000090    0.000051
  46        19           1      0.000075    0.000041
  47        18           2      0.000047    0.000023
  48        19           1      0.000040    0.000018
  49        18           2      0.000031    0.000012
  50        17           3      0.000027    0.000009
  51        17           3      0.000027    0.000009
  52        18           2      0.000019    0.000004
  53        18           2      0.000017    0.000002
  54        19           1      0.000016    0.000001
  55        19           1      0.000015    0.000001
  56        20           0      0.000014    0.000001    Roots Converged
 ---------------------------------------------------
   
**************************************************
 RAS-CI total energy for state   1:   -149.782253434062
  Excitation energy (eV) =  0.000000000000
  State symmetry: B1g   (D2h      )
  <S^2>      :  2.0000
  Dipole Moment:    0.0000 X     0.0000 Y     0.0000 Z
 NATURAL OCCUPATION NUMBERS (higher than 1.0E-05)
            1           2           3           4           5           6
    1   2.0000000   1.9999995   1.9985662   1.9983542   1.9749438   1.9660014
            7           8           9          10          11          12
    1   1.9660014   1.0242383   1.0242383   0.0236119   0.0065380   0.0065380
           13          14          15          16          17          18
    1   0.0045726   0.0015463   0.0015463   0.0007376   0.0003983   0.0003983
           19          20          21          22          23          24
    1   0.0002837   0.0002837   0.0001277   0.0001218   0.0001218   0.0001150
           25          26          27          28          29          30
    1   0.0001150   0.0000914   0.0000529   0.0000529   0.0000422   0.0000422
           31          32          33          34          35          36
    1   0.0000377   0.0000330   0.0000330   0.0000259   0.0000258   0.0000258
           37          38          39          40          41          42
    1   0.0000185   0.0000185   0.0000164   0.0000164   0.0000113   0.0000113
           43          44
    1   0.0000108   0.0000108
 Created directory ./qchem238967/plots

  Amplitudes : 
  
 | HOLE  | ALPHA  | BETA   | PART  |    AMPLITUDE 
--------------------------------------------------
 |       | 111100 | 111010 |       |    -6.8703877430496E-01
 |       | 111010 | 111100 |       |     6.8703877430505E-01
--------------------------------------------------
*** Contributions RASCI wfn    Active:  96.13
                                 Hole:   0.34
                                 Part:   3.53

      Mulliken population analysis 
 ---------------------------------------------------
   Atom    Charge (a.u.)   Spin (a.u.)  
 ---------------------------------------------------
   1  O   -0.000000       -0.000000 
   2  O   -0.000000       -0.000000 
 ---------------------------------------------------
   Sum:   -0.000000        0.000000 
 ---------------------------------------------------
 
  
 NATURAL OCCUPATION NUMBERS (higher than 1.0E-05)
            1           2           3           4           5           6
    1   2.0000000   1.9999995   1.9985662   1.9983542   1.9749438   1.9660014
            7           8           9          10          11          12
    1   1.9660014   1.0242383   1.0242383   0.0236119   0.0065380   0.0065380
           13          14          15          16          17          18
    1   0.0045726   0.0015463   0.0015463   0.0007376   0.0003983   0.0003983
           19          20          21          22          23          24
    1   0.0002837   0.0002837   0.0001277   0.0001218   0.0001218   0.0001150
           25          26          27          28          29          30
    1   0.0001150   0.0000914   0.0000529   0.0000529   0.0000422   0.0000422
           31          32          33          34          35          36
    1   0.0000377   0.0000330   0.0000330   0.0000259   0.0000258   0.0000258
           37          38          39          40          41          42
    1   0.0000185   0.0000185   0.0000164   0.0000164   0.0000113   0.0000113
           43          44
    1   0.0000108   0.0000108
  
*** Unpaired Electrons
 Yamaguchi Nd:         2.28
 Head-Gordon Nu:       2.10
 Head-Gordon Nu_nl:    2.01
  
**************************************************
 RAS-CI total energy for state   2:   -149.739702495071
  Excitation energy (eV) =  1.157869960514
  State symmetry: Ag    (D2h      )
  <S^2>      :  0.0000
  Dipole Moment:   -0.0000 X    -0.0000 Y     0.0000 Z
  Trans. Moment:    0.0000 X    -0.0000 Y     0.0000 Z
  Strength   :  0.000000
  Natural transition orbitals ( 1 -> 2 ):
   e-/hole pair  1:  ampl =  0.675935 ( 45.7%)   [6 : 7]
   e-/hole pair  2:  ampl =  0.675935 ( 45.7%)   [5 : 8]
   Sum of square amplitudes: 0.92

 NATURAL OCCUPATION NUMBERS (higher than 1.0E-05)
            1           2           3           4           5           6
    1   2.0000000   1.9999994   1.9999952   1.9982808   1.9779883   1.9511056
            7           8           9          10          11          12
    1   1.9511055   1.0414205   1.0414195   0.0202611   0.0039688   0.0039667
           13          14          15          16          17          18
    1   0.0039667   0.0016774   0.0016774   0.0008540   0.0004563   0.0002107
           19          20          21          22          23          24
    1   0.0001911   0.0001613   0.0001613   0.0001420   0.0001378   0.0001378
           25          26          27          28          29          30
    1   0.0001205   0.0000983   0.0000533   0.0000533   0.0000476   0.0000455
           31          32          33          34          35          36
    1   0.0000349   0.0000349   0.0000342   0.0000256   0.0000224   0.0000203
           37          38          39          40
    1   0.0000203   0.0000177   0.0000172   0.0000172

  Amplitudes : 
  
 | HOLE  | ALPHA  | BETA   | PART  |    AMPLITUDE 
--------------------------------------------------
 |       | 111100 | 111100 |       |     6.7657591370543E-01
 |       | 111010 | 111010 |       |    -6.7657558090848E-01
 |       | 110110 | 110110 |       |    -1.2293143797675E-01
 |       | 101110 | 101110 |       |     1.2293134637590E-01
--------------------------------------------------
*** Contributions RASCI wfn    Active:  96.92
                                 Hole:   0.20
                                 Part:   2.88

      Mulliken population analysis 
 ---------------------------------------------------
   Atom    Charge (a.u.)   Spin (a.u.)  
 ---------------------------------------------------
   1  O   -0.000000       -0.000000 
   2  O   -0.000000        0.000000 
 ---------------------------------------------------
   Sum:   -0.000000        0.000000 
 ---------------------------------------------------
 
  
 NATURAL OCCUPATION NUMBERS (higher than 1.0E-05)
            1           2           3           4           5           6
    1   2.0000000   1.9999994   1.9999952   1.9982808   1.9779883   1.9511056
            7           8           9          10          11          12
    1   1.9511055   1.0414205   1.0414195   0.0202611   0.0039688   0.0039667
           13          14          15          16          17          18
    1   0.0039667   0.0016774   0.0016774   0.0008540   0.0004563   0.0002107
           19          20          21          22          23          24
    1   0.0001911   0.0001613   0.0001613   0.0001420   0.0001378   0.0001378
           25          26          27          28          29          30
    1   0.0001205   0.0000983   0.0000533   0.0000533   0.0000476   0.0000455
           31          32          33          34          35          36
    1   0.0000349   0.0000349   0.0000342   0.0000256   0.0000224   0.0000203
           37          38          39          40
    1   0.0000203   0.0000177   0.0000172   0.0000172
  
*** Unpaired Electrons
 Yamaguchi Nd:         2.31
 Head-Gordon Nu:       2.08
 Head-Gordon Nu_nl:    2.02
  
**************************************************
 RAS-CI total energy for state   3:   -149.739702493548
  Excitation energy (eV) =  1.157870001957
  State symmetry: B1g   (D2h      )
  <S^2>      :  0.0000
  Dipole Moment:    0.0000 X    -0.0000 Y     0.0000 Z
  Trans. Moment:    0.0000 X     0.0000 Y    -0.0000 Z
  Strength   :  0.000000
  Natural transition orbitals ( 1 -> 3 ):
   e-/hole pair  1:  ampl =  0.675936 ( 45.7%)   [6 : 7]
   e-/hole pair  2:  ampl =  0.675934 ( 45.7%)   [5 : 8]
   Sum of square amplitudes: 0.92

 NATURAL OCCUPATION NUMBERS (higher than 1.0E-05)
            1           2           3           4           5           6
    1   2.0000000   1.9999994   1.9999952   1.9982807   1.9779874   1.9511073
            7           8           9          10          11          12
    1   1.9511070   1.0414200   1.0414157   0.0202615   0.0039694   0.0039667
           13          14          15          16          17          18
    1   0.0039667   0.0016778   0.0016778   0.0008540   0.0004562   0.0002107
           19          20          21          22          23          24
    1   0.0001911   0.0001613   0.0001613   0.0001420   0.0001378   0.0001378
           25          26          27          28          29          30
    1   0.0001205   0.0000983   0.0000533   0.0000533   0.0000476   0.0000455
           31          32          33          34          35          36
    1   0.0000349   0.0000349   0.0000342   0.0000256   0.0000224   0.0000203
           37          38          39          40
    1   0.0000203   0.0000177   0.0000172   0.0000172

  Amplitudes : 
  
 | HOLE  | ALPHA  | BETA   | PART  |    AMPLITUDE 
--------------------------------------------------
 |       | 111100 | 111010 |       |     6.7657582523668E-01
 |       | 111010 | 111100 |       |     6.7657582523659E-01
 |       | 110110 | 101110 |       |    -1.2292651516075E-01
 |       | 101110 | 110110 |       |    -1.2292651516074E-01
--------------------------------------------------
*** Contributions RASCI wfn    Active:  96.92
                                 Hole:   0.20
                                 Part:   2.88

      Mulliken population analysis 
 ---------------------------------------------------
   Atom    Charge (a.u.)   Spin (a.u.)  
 ---------------------------------------------------
   1  O   -0.000000       -0.000000 
   2  O   -0.000000       -0.000000 
 ---------------------------------------------------
   Sum:   -0.000000       -0.000000 
 ---------------------------------------------------
 
  
 NATURAL OCCUPATION NUMBERS (higher than 1.0E-05)
            1           2           3           4           5           6
    1   2.0000000   1.9999994   1.9999952   1.9982807   1.9779874   1.9511073
            7           8           9          10          11          12
    1   1.9511070   1.0414200   1.0414157   0.0202615   0.0039694   0.0039667
           13          14          15          16          17          18
    1   0.0039667   0.0016778   0.0016778   0.0008540   0.0004562   0.0002107
           19          20          21          22          23          24
    1   0.0001911   0.0001613   0.0001613   0.0001420   0.0001378   0.0001378
           25          26          27          28          29          30
    1   0.0001205   0.0000983   0.0000533   0.0000533   0.0000476   0.0000455
           31          32          33          34          35          36
    1   0.0000349   0.0000349   0.0000342   0.0000256   0.0000224   0.0000203
           37          38          39          40
    1   0.0000203   0.0000177   0.0000172   0.0000172
  
*** Unpaired Electrons
 Yamaguchi Nd:         2.31
 Head-Gordon Nu:       2.08
 Head-Gordon Nu_nl:    2.02
  
**************************************************
 RAS-CI total energy for state   4:   -149.706118367439
  Excitation energy (eV) =  2.071740569682
  State symmetry: Ag    (D2h      )
  <S^2>      :  0.0000
  Dipole Moment:    0.0000 X    -0.0000 Y     0.0000 Z
  Trans. Moment:   -0.0000 X    -0.0000 Y    -0.0000 Z
  Strength   :  0.000000
  Natural transition orbitals ( 1 -> 4 ):
   e-/hole pair  1:  ampl =  0.666464 ( 44.4%)   [6 : 7]
   e-/hole pair  2:  ampl =  0.666463 ( 44.4%)   [5 : 8]
   Sum of square amplitudes: 0.89

 NATURAL OCCUPATION NUMBERS (higher than 1.0E-05)
            1           2           3           4           5           6
    1   2.0000000   1.9999994   1.9999820   1.9976583   1.9740109   1.9316800
            7           8           9          10          11          12
    1   1.9316797   1.0650928   1.0650884   0.0198482   0.0044171   0.0020203
           13          14          15          16          17          18
    1   0.0020203   0.0018169   0.0018169   0.0003768   0.0003768   0.0002087
           19          20          21          22          23          24
    1   0.0002087   0.0001724   0.0001594   0.0001594   0.0001570   0.0001378
           25          26          27          28          29          30
    1   0.0001378   0.0001367   0.0000918   0.0000918   0.0000665   0.0000602
           31          32          33          34          35          36
    1   0.0000602   0.0000273   0.0000273   0.0000269   0.0000269   0.0000255
           37          38          39          40          41          42
    1   0.0000255   0.0000188   0.0000188   0.0000180   0.0000106   0.0000106

  Amplitudes : 
  
 | HOLE  | ALPHA  | BETA   | PART  |    AMPLITUDE 
--------------------------------------------------
 |       | 111100 | 111100 |       |     6.7508730117354E-01
 |       | 111010 | 111010 |       |     6.7508741144825E-01
 |       | 110110 | 110110 |       |    -1.6382698786922E-01
 |       | 101110 | 101110 |       |    -1.6382700397398E-01
--------------------------------------------------
*** Contributions RASCI wfn    Active:  97.29
                                 Hole:   0.24
                                 Part:   2.47

      Mulliken population analysis 
 ---------------------------------------------------
   Atom    Charge (a.u.)   Spin (a.u.)  
 ---------------------------------------------------
   1  O   -0.000000       -0.000000 
   2  O   -0.000000       -0.000000 
 ---------------------------------------------------
   Sum:   -0.000000        0.000000 
 ---------------------------------------------------
 
  
 NATURAL OCCUPATION NUMBERS (higher than 1.0E-05)
            1           2           3           4           5           6
    1   2.0000000   1.9999994   1.9999820   1.9976583   1.9740109   1.9316800
            7           8           9          10          11          12
    1   1.9316797   1.0650928   1.0650884   0.0198482   0.0044171   0.0020203
           13          14          15          16          17          18
    1   0.0020203   0.0018169   0.0018169   0.0003768   0.0003768   0.0002087
           19          20          21          22          23          24
    1   0.0002087   0.0001724   0.0001594   0.0001594   0.0001570   0.0001378
           25          26          27          28          29          30
    1   0.0001378   0.0001367   0.0000918   0.0000918   0.0000665   0.0000602
           31          32          33          34          35          36
    1   0.0000602   0.0000273   0.0000273   0.0000269   0.0000269   0.0000255
           37          38          39          40          41          42
    1   0.0000255   0.0000188   0.0000188   0.0000180   0.0000106   0.0000106
  
*** Unpaired Electrons
 Yamaguchi Nd:         2.38
 Head-Gordon Nu:       2.07
 Head-Gordon Nu_nl:    2.02
  
**************************************************
 RAS-CI total energy for state   5:   -149.540609871745
  Excitation energy (eV) =  6.575455879386
  State symmetry: Au    (D2h      )
  <S^2>      :  0.0000
  Dipole Moment:    0.0000 X     0.0000 Y     0.0000 Z
  Trans. Moment:   -0.0000 X     0.0000 Y    -0.0000 Z
  Strength   :  0.000000
  Natural transition orbitals ( 1 -> 5 ):
   e-/hole pair  1:  ampl =  0.484791 ( 23.5%)   [6 : 7]
   e-/hole pair  2:  ampl =  0.484791 ( 23.5%)   [5 : 8]
   Sum of square amplitudes: 0.48

 NATURAL OCCUPATION NUMBERS (higher than 1.0E-05)
            1           2           3           4           5           6
    1   2.0000000   1.9999999   1.9999848   1.9979331   1.9905762   1.5014765
            7           8           9          10          11          12
    1   1.5014763   1.4928411   1.4928408   0.0105129   0.0029083   0.0029083
           13          14          15          16          17          18
    1   0.0022172   0.0006123   0.0006123   0.0005188   0.0005188   0.0003445
           19          20          21          22          23          24
    1   0.0003445   0.0001549   0.0001384   0.0001384   0.0001266   0.0000926
           25          26          27          28          29          30
    1   0.0000926   0.0000887   0.0000887   0.0000753   0.0000753   0.0000464
           31          32          33          34          35          36
    1   0.0000428   0.0000428   0.0000263   0.0000253   0.0000253   0.0000155
           37          38          39
    1   0.0000155   0.0000114   0.0000114

  Amplitudes : 
  
 | HOLE  | ALPHA  | BETA   | PART  |    AMPLITUDE 
--------------------------------------------------
 |       | 111100 | 101110 |       |    -4.9501749243117E-01
 |       | 111010 | 110110 |       |     4.9501749614434E-01
 |       | 110110 | 111010 |       |     4.9501749614468E-01
 |       | 101110 | 111100 |       |    -4.9501749243079E-01
--------------------------------------------------
*** Contributions RASCI wfn    Active:  98.16
                                 Hole:   0.23
                                 Part:   1.61

      Mulliken population analysis 
 ---------------------------------------------------
   Atom    Charge (a.u.)   Spin (a.u.)  
 ---------------------------------------------------
   1  O   -0.000000       -0.000000 
   2  O   -0.000000        0.000000 
 ---------------------------------------------------
   Sum:   -0.000000       -0.000000 
 ---------------------------------------------------
 
  
 NATURAL OCCUPATION NUMBERS (higher than 1.0E-05)
            1           2           3           4           5           6
    1   2.0000000   1.9999999   1.9999848   1.9979331   1.9905762   1.5014765
            7           8           9          10          11          12
    1   1.5014763   1.4928411   1.4928408   0.0105129   0.0029083   0.0029083
           13          14          15          16          17          18
    1   0.0022172   0.0006123   0.0006123   0.0005188   0.0005188   0.0003445
           19          20          21          22          23          24
    1   0.0003445   0.0001549   0.0001384   0.0001384   0.0001266   0.0000926
           25          26          27          28          29          30
    1   0.0000926   0.0000887   0.0000887   0.0000753   0.0000753   0.0000464
           31          32          33          34          35          36
    1   0.0000428   0.0000428   0.0000263   0.0000253   0.0000253   0.0000155
           37          38          39
    1   0.0000155   0.0000114   0.0000114
  
*** Unpaired Electrons
 Yamaguchi Nd:         3.08
 Head-Gordon Nu:       2.05
 Head-Gordon Nu_nl:    2.27
  
**************************************************
 RAS-CI total energy for state   6:   -149.533949675823
  Excitation energy (eV) =  6.756689031272
  Warning: not all configurations have same symmetry
  State symmetry: *B1u   (D2h      )
  <S^2>      :  2.0000
  Dipole Moment:   -0.0000 X     0.0000 Y    -0.0000 Z
  Trans. Moment:   -0.0000 X    -0.0000 Y    -0.0000 Z
  Strength   :  0.000000
  Natural transition orbitals ( 1 -> 6 ):
   e-/hole pair  1:  ampl =  0.487104 ( 23.7%)   [6 : 7]
   e-/hole pair  2:  ampl =  0.487102 ( 23.7%)   [5 : 8]
   Sum of square amplitudes: 0.48

 NATURAL OCCUPATION NUMBERS (higher than 1.0E-05)
            1           2           3           4           5           6
    1   2.0000000   2.0000000   1.9992555   1.9983609   1.9907926   1.4995543
            7           8           9          10          11          12
    1   1.4995499   1.4959229   1.4959184   0.0107115   0.0018327   0.0013273
           13          14          15          16          17          18
    1   0.0013273   0.0008393   0.0008393   0.0006474   0.0004817   0.0004059
           19          20          21          22          23          24
    1   0.0003426   0.0003220   0.0003220   0.0002579   0.0001031   0.0001031
           25          26          27          28          29          30
    1   0.0000968   0.0000968   0.0000699   0.0000699   0.0000641   0.0000632
           31          32          33          34          35          36
    1   0.0000548   0.0000427   0.0000335   0.0000292   0.0000266   0.0000266
           37          38          39          40
    1   0.0000203   0.0000186   0.0000163   0.0000163

  Amplitudes : 
  
 | HOLE  | ALPHA  | BETA   | PART  |    AMPLITUDE 
--------------------------------------------------
 |       | 111100 | 110110 |       |    -1.8292635933453E-01
 |       | 111100 | 101110 |       |     4.6051228637003E-01
 |       | 111010 | 110110 |       |     4.6051245018730E-01
 |       | 111010 | 101110 |       |     1.8292409644209E-01
 |       | 110110 | 111100 |       |     1.8292635933454E-01
 |       | 110110 | 111010 |       |    -4.6051245018695E-01
 |       | 101110 | 111100 |       |    -4.6051228637036E-01
 |       | 101110 | 111010 |       |    -1.8292409644209E-01
--------------------------------------------------
*** Contributions RASCI wfn    Active:  98.35
                                 Hole:   0.25
                                 Part:   1.39

      Mulliken population analysis 
 ---------------------------------------------------
   Atom    Charge (a.u.)   Spin (a.u.)  
 ---------------------------------------------------
   1  O   -0.000000        0.000000 
   2  O   -0.000000       -0.000000 
 ---------------------------------------------------
   Sum:   -0.000000       -0.000000 
 ---------------------------------------------------
 
  
 NATURAL OCCUPATION NUMBERS (higher than 1.0E-05)
            1           2           3           4           5           6
    1   2.0000000   2.0000000   1.9992555   1.9983609   1.9907926   1.4995543
            7           8           9          10          11          12
    1   1.4995499   1.4959229   1.4959184   0.0107115   0.0018327   0.0013273
           13          14          15          16          17          18
    1   0.0013273   0.0008393   0.0008393   0.0006474   0.0004817   0.0004059
           19          20          21          22          23          24
    1   0.0003426   0.0003220   0.0003220   0.0002579   0.0001031   0.0001031
           25          26          27          28          29          30
    1   0.0000968   0.0000968   0.0000699   0.0000699   0.0000641   0.0000632
           31          32          33          34          35          36
    1   0.0000548   0.0000427   0.0000335   0.0000292   0.0000266   0.0000266
           37          38          39          40
    1   0.0000203   0.0000186   0.0000163   0.0000163
  
*** Unpaired Electrons
 Yamaguchi Nd:         3.07
 Head-Gordon Nu:       2.04
 Head-Gordon Nu_nl:    2.26
  
**************************************************
 RAS-CI total energy for state   7:   -149.533949675823
  Excitation energy (eV) =  6.756689031273
  Warning: not all configurations have same symmetry
  State symmetry: *B1u   (D2h      )
  <S^2>      :  2.0000
  Dipole Moment:    0.0000 X    -0.0000 Y    -0.0000 Z
  Trans. Moment:   -0.0000 X     0.0000 Y    -0.0000 Z
  Strength   :  0.000000
  Natural transition orbitals ( 1 -> 7 ):
   e-/hole pair  1:  ampl =  0.487104 ( 23.7%)   [6 : 7]
   e-/hole pair  2:  ampl =  0.487103 ( 23.7%)   [5 : 8]
   Sum of square amplitudes: 0.48

 NATURAL OCCUPATION NUMBERS (higher than 1.0E-05)
            1           2           3           4           5           6
    1   2.0000000   2.0000000   1.9992555   1.9983609   1.9907926   1.4995526
            7           8           9          10          11          12
    1   1.4995516   1.4959211   1.4959202   0.0107115   0.0018327   0.0013273
           13          14          15          16          17          18
    1   0.0013273   0.0008393   0.0008393   0.0006474   0.0004817   0.0004059
           19          20          21          22          23          24
    1   0.0003426   0.0003220   0.0003220   0.0002579   0.0001031   0.0001031
           25          26          27          28          29          30
    1   0.0000968   0.0000968   0.0000699   0.0000699   0.0000641   0.0000632
           31          32          33          34          35          36
    1   0.0000548   0.0000427   0.0000335   0.0000292   0.0000266   0.0000266
           37          38          39          40
    1   0.0000203   0.0000186   0.0000163   0.0000163

  Amplitudes : 
  
 | HOLE  | ALPHA  | BETA   | PART  |    AMPLITUDE 
--------------------------------------------------
 |       | 111100 | 110110 |       |    -4.6051218018393E-01
 |       | 111100 | 101110 |       |    -1.8292540167348E-01
 |       | 111010 | 110110 |       |    -1.8292505410331E-01
 |       | 111010 | 101110 |       |     4.6051255637593E-01
 |       | 110110 | 111100 |       |     4.6051218018392E-01
 |       | 110110 | 111010 |       |     1.8292505410316E-01
 |       | 101110 | 111100 |       |     1.8292540167357E-01
 |       | 101110 | 111010 |       |    -4.6051255637589E-01
--------------------------------------------------
*** Contributions RASCI wfn    Active:  98.35
                                 Hole:   0.25
                                 Part:   1.39

      Mulliken population analysis 
 ---------------------------------------------------
   Atom    Charge (a.u.)   Spin (a.u.)  
 ---------------------------------------------------
   1  O   -0.000000        0.000000 
   2  O   -0.000000       -0.000000 
 ---------------------------------------------------
   Sum:   -0.000000        0.000000 
 ---------------------------------------------------
 
  
 NATURAL OCCUPATION NUMBERS (higher than 1.0E-05)
            1           2           3           4           5           6
    1   2.0000000   2.0000000   1.9992555   1.9983609   1.9907926   1.4995526
            7           8           9          10          11          12
    1   1.4995516   1.4959211   1.4959202   0.0107115   0.0018327   0.0013273
           13          14          15          16          17          18
    1   0.0013273   0.0008393   0.0008393   0.0006474   0.0004817   0.0004059
           19          20          21          22          23          24
    1   0.0003426   0.0003220   0.0003220   0.0002579   0.0001031   0.0001031
           25          26          27          28          29          30
    1   0.0000968   0.0000968   0.0000699   0.0000699   0.0000641   0.0000632
           31          32          33          34          35          36
    1   0.0000548   0.0000427   0.0000335   0.0000292   0.0000266   0.0000266
           37          38          39          40
    1   0.0000203   0.0000186   0.0000163   0.0000163
  
*** Unpaired Electrons
 Yamaguchi Nd:         3.07
 Head-Gordon Nu:       2.04
 Head-Gordon Nu_nl:    2.26
  
**************************************************
 RAS-CI total energy for state   8:   -149.528456471817
  Excitation energy (eV) =  6.906166717467
  State symmetry: B1u   (D2h      )
  <S^2>      :  2.0000
  Dipole Moment:    0.0000 X    -0.0000 Y    -0.0000 Z
  Trans. Moment:   -0.0000 X     0.0000 Y    -0.0000 Z
  Strength   :  0.000000
  Natural transition orbitals ( 1 -> 8 ):
   e-/hole pair  1:  ampl =  0.486234 ( 23.6%)   [6 : 7]
   e-/hole pair  2:  ampl =  0.486232 ( 23.6%)   [5 : 8]
   Sum of square amplitudes: 0.48

 NATURAL OCCUPATION NUMBERS (higher than 1.0E-05)
            1           2           3           4           5           6
    1   2.0000000   2.0000000   1.9992533   1.9982776   1.9907284   1.4992411
            7           8           9          10          11          12
    1   1.4992366   1.4966012   1.4965967   0.0108640   0.0018271   0.0009054
           13          14          15          16          17          18
    1   0.0009054   0.0008443   0.0008443   0.0006511   0.0004775   0.0004775
           19          20          21          22          23          24
    1   0.0003256   0.0003256   0.0002606   0.0002606   0.0001211   0.0001211
           25          26          27          28          29          30
    1   0.0001166   0.0001166   0.0000691   0.0000691   0.0000635   0.0000607
           31          32          33          34          35          36
    1   0.0000607   0.0000596   0.0000441   0.0000300   0.0000270   0.0000270
           37          38          39          40
    1   0.0000206   0.0000206   0.0000168   0.0000168

  Amplitudes : 
  
 | HOLE  | ALPHA  | BETA   | PART  |    AMPLITUDE 
--------------------------------------------------
 |       | 111100 | 110110 |       |     4.9561884598646E-01
 |       | 111010 | 101110 |       |     4.9561932336263E-01
 |       | 110110 | 111100 |       |    -4.9561884598648E-01
 |       | 101110 | 111010 |       |    -4.9561932336260E-01
--------------------------------------------------
*** Contributions RASCI wfn    Active:  98.40
                                 Hole:   0.26
                                 Part:   1.34

      Mulliken population analysis 
 ---------------------------------------------------
   Atom    Charge (a.u.)   Spin (a.u.)  
 ---------------------------------------------------
   1  O   -0.000000       -0.000000 
   2  O   -0.000000       -0.000000 
 ---------------------------------------------------
   Sum:   -0.000000       -0.000000 
 ---------------------------------------------------
 
  
 NATURAL OCCUPATION NUMBERS (higher than 1.0E-05)
            1           2           3           4           5           6
    1   2.0000000   2.0000000   1.9992533   1.9982776   1.9907284   1.4992411
            7           8           9          10          11          12
    1   1.4992366   1.4966012   1.4965967   0.0108640   0.0018271   0.0009054
           13          14          15          16          17          18
    1   0.0009054   0.0008443   0.0008443   0.0006511   0.0004775   0.0004775
           19          20          21          22          23          24
    1   0.0003256   0.0003256   0.0002606   0.0002606   0.0001211   0.0001211
           25          26          27          28          29          30
    1   0.0001166   0.0001166   0.0000691   0.0000691   0.0000635   0.0000607
           31          32          33          34          35          36
    1   0.0000607   0.0000596   0.0000441   0.0000300   0.0000270   0.0000270
           37          38          39          40
    1   0.0000206   0.0000206   0.0000168   0.0000168
  
*** Unpaired Electrons
 Yamaguchi Nd:         3.07
 Head-Gordon Nu:       2.04
 Head-Gordon Nu_nl:    2.26
  
**************************************************
 RAS-CI total energy for state   9:   -149.469506321359
  Excitation energy (eV) =  8.510281926267
  Warning: not all configurations have same symmetry
  State symmetry: *B2g   (D2h      )
  <S^2>      :  2.0000
  Dipole Moment:   -0.0000 X     0.0000 Y     0.0000 Z
  Trans. Moment:   -0.0000 X    -0.0000 Y     0.0000 Z
  Strength   :  0.000000
  Natural transition orbitals ( 1 -> 9 ):
   e-/hole pair  1:  ampl =  0.684743 ( 46.9%)   [6 : 7]
   e-/hole pair  2:  ampl =  0.043354 (  0.2%)   [5 : 8]
   Sum of square amplitudes: 0.47

 NATURAL OCCUPATION NUMBERS (higher than 1.0E-05)
            1           2           3           4           5           6
    1   1.9999997   1.9999997   1.9988811   1.9953699   1.9894094   1.9845881
            7           8           9          10          11          12
    1   1.9619086   1.0267989   1.0098041   0.0116072   0.0061655   0.0044650
           13          14          15          16          17          18
    1   0.0037673   0.0016615   0.0012570   0.0010410   0.0006645   0.0005059
           19          20          21          22          23          24
    1   0.0004895   0.0003600   0.0002036   0.0001570   0.0001547   0.0001133
           25          26          27          28          29          30
    1   0.0001119   0.0000547   0.0000540   0.0000472   0.0000372   0.0000366
           31          32          33          34          35          36
    1   0.0000344   0.0000308   0.0000292   0.0000288   0.0000282   0.0000247
           37          38          39          40
    1   0.0000224   0.0000210   0.0000171   0.0000101

  Amplitudes : 
  
 | HOLE  | ALPHA  | BETA   | PART  |    AMPLITUDE 
--------------------------------------------------
 |       | 111100 | 011110 |       |    -5.1436523859480E-01
 |       | 111010 | 011110 |       |     4.6008218588824E-01
 |       | 011110 | 111100 |       |     5.1436523859482E-01
 |       | 011110 | 111010 |       |    -4.6008218588835E-01
--------------------------------------------------
*** Contributions RASCI wfn    Active:  95.47
                                 Hole:   1.72
                                 Part:   2.81

      Mulliken population analysis 
 ---------------------------------------------------
   Atom    Charge (a.u.)   Spin (a.u.)  
 ---------------------------------------------------
   1  O   -0.000000       -0.000000 
   2  O   -0.000000        0.000000 
 ---------------------------------------------------
   Sum:   -0.000000        0.000000 
 ---------------------------------------------------
 
  
 NATURAL OCCUPATION NUMBERS (higher than 1.0E-05)
            1           2           3           4           5           6
    1   1.9999997   1.9999997   1.9988811   1.9953699   1.9894094   1.9845881
            7           8           9          10          11          12
    1   1.9619086   1.0267989   1.0098041   0.0116072   0.0061655   0.0044650
           13          14          15          16          17          18
    1   0.0037673   0.0016615   0.0012570   0.0010410   0.0006645   0.0005059
           19          20          21          22          23          24
    1   0.0004895   0.0003600   0.0002036   0.0001570   0.0001547   0.0001133
           25          26          27          28          29          30
    1   0.0001119   0.0000547   0.0000540   0.0000472   0.0000372   0.0000366
           31          32          33          34          35          36
    1   0.0000344   0.0000308   0.0000292   0.0000288   0.0000282   0.0000247
           37          38          39          40
    1   0.0000224   0.0000210   0.0000171   0.0000101
  
*** Unpaired Electrons
 Yamaguchi Nd:         2.20
 Head-Gordon Nu:       2.07
 Head-Gordon Nu_nl:    2.01
  
**************************************************
 RAS-CI total energy for state  10:   -149.469506252338
  Excitation energy (eV) =  8.510283804408
  Warning: not all configurations have same symmetry
  State symmetry: *B2g   (D2h      )
  <S^2>      :  2.0000
  Dipole Moment:   -0.0000 X    -0.0000 Y    -0.0000 Z
  Trans. Moment:   -0.0000 X     0.0000 Y    -0.0000 Z
  Strength   :  0.000000
  Natural transition orbitals ( 1 -> 10 ):
   e-/hole pair  1:  ampl =  0.684743 ( 46.9%)   [6 : 7]
   e-/hole pair  2:  ampl =  0.043354 (  0.2%)   [5 : 8]
   Sum of square amplitudes: 0.47

 NATURAL OCCUPATION NUMBERS (higher than 1.0E-05)
            1           2           3           4           5           6
    1   1.9999997   1.9999997   1.9988811   1.9953699   1.9894094   1.9845881
            7           8           9          10          11          12
    1   1.9619086   1.0267989   1.0098041   0.0116072   0.0061655   0.0044650
           13          14          15          16          17          18
    1   0.0037673   0.0016616   0.0012570   0.0010410   0.0006645   0.0005059
           19          20          21          22          23          24
    1   0.0004895   0.0003600   0.0002036   0.0001570   0.0001547   0.0001133
           25          26          27          28          29          30
    1   0.0001119   0.0000547   0.0000540   0.0000472   0.0000372   0.0000366
           31          32          33          34          35          36
    1   0.0000344   0.0000308   0.0000292   0.0000288   0.0000282   0.0000247
           37          38          39          40
    1   0.0000224   0.0000210   0.0000171   0.0000101

  Amplitudes : 
  
 | HOLE  | ALPHA  | BETA   | PART  |    AMPLITUDE 
--------------------------------------------------
 |       | 111100 | 011110 |       |    -4.6008215330692E-01
 |       | 111010 | 011110 |       |    -5.1436521305575E-01
 |       | 011110 | 111100 |       |     4.6008215330694E-01
 |       | 011110 | 111010 |       |     5.1436521305592E-01
--------------------------------------------------
*** Contributions RASCI wfn    Active:  95.47
                                 Hole:   1.72
                                 Part:   2.81

      Mulliken population analysis 
 ---------------------------------------------------
   Atom    Charge (a.u.)   Spin (a.u.)  
 ---------------------------------------------------
   1  O   -0.000000        0.000000 
   2  O   -0.000000       -0.000000 
 ---------------------------------------------------
   Sum:   -0.000000        0.000000 
 ---------------------------------------------------
 
  
 NATURAL OCCUPATION NUMBERS (higher than 1.0E-05)
            1           2           3           4           5           6
    1   1.9999997   1.9999997   1.9988811   1.9953699   1.9894094   1.9845881
            7           8           9          10          11          12
    1   1.9619086   1.0267989   1.0098041   0.0116072   0.0061655   0.0044650
           13          14          15          16          17          18
    1   0.0037673   0.0016616   0.0012570   0.0010410   0.0006645   0.0005059
           19          20          21          22          23          24
    1   0.0004895   0.0003600   0.0002036   0.0001570   0.0001547   0.0001133
           25          26          27          28          29          30
    1   0.0001119   0.0000547   0.0000540   0.0000472   0.0000372   0.0000366
           31          32          33          34          35          36
    1   0.0000344   0.0000308   0.0000292   0.0000288   0.0000282   0.0000247
           37          38          39          40
    1   0.0000224   0.0000210   0.0000171   0.0000101
  
*** Unpaired Electrons
 Yamaguchi Nd:         2.20
 Head-Gordon Nu:       2.07
 Head-Gordon Nu_nl:    2.01
  
**************************************************
 RAS-CI total energy for state  11:   -149.447452183028
  Excitation energy (eV) =  9.110405563583
  State symmetry: Au    (D2h      )
  <S^2>      :  2.0000
  Dipole Moment:    0.0000 X    -0.0000 Y     0.0000 Z
  Trans. Moment:   -0.0000 X     0.0000 Y     0.9087 Z
  Strength   :  0.184307
  Natural transition orbitals ( 1 -> 11 ):
   e-/hole pair  1:  ampl =  0.472216 ( 22.3%)   [6 : 7]
   e-/hole pair  2:  ampl =  0.472216 ( 22.3%)   [5 : 8]
   Sum of square amplitudes: 0.53

 NATURAL OCCUPATION NUMBERS (higher than 1.0E-05)
            1           2           3           4           5           6
    1   2.0000000   1.9999992   1.9987799   1.9970715   1.9087603   1.5330019
            7           8           9          10          11          12
    1   1.5330012   1.4348402   1.4348395   0.0922227   0.0226967   0.0226967
           13          14          15          16          17          18
    1   0.0065247   0.0065247   0.0056647   0.0005531   0.0005531   0.0004459
           19          20          21          22          23          24
    1   0.0002994   0.0002994   0.0001719   0.0001719   0.0001204   0.0000908
           25          26          27          28          29          30
    1   0.0000908   0.0000799   0.0000670   0.0000670   0.0000616   0.0000382
           31          32          33          34          35          36
    1   0.0000382   0.0000370   0.0000255   0.0000255   0.0000208   0.0000208
           37          38          39          40
    1   0.0000194   0.0000194   0.0000118   0.0000103

  Amplitudes : 
  
 | HOLE  | ALPHA  | BETA   | PART  |    AMPLITUDE 
--------------------------------------------------
 |       | 111100 | 101110 |       |     4.5831270048366E-01
 |       | 111010 | 110110 |       |    -4.5831266958792E-01
 |       | 110110 | 111010 |       |     4.5831266958799E-01
 |       | 101110 | 111100 |       |    -4.5831270048363E-01
--------------------------------------------------
*** Contributions RASCI wfn    Active:  87.41
                                 Hole:   0.58
                                 Part:  12.01

      Mulliken population analysis 
 ---------------------------------------------------
   Atom    Charge (a.u.)   Spin (a.u.)  
 ---------------------------------------------------
   1  O   -0.000000        0.000000 
   2  O   -0.000000        0.000000 
 ---------------------------------------------------
   Sum:   -0.000000        0.000000 
 ---------------------------------------------------
 
  
 NATURAL OCCUPATION NUMBERS (higher than 1.0E-05)
            1           2           3           4           5           6
    1   2.0000000   1.9999992   1.9987799   1.9970715   1.9087603   1.5330019
            7           8           9          10          11          12
    1   1.5330012   1.4348402   1.4348395   0.0922227   0.0226967   0.0226967
           13          14          15          16          17          18
    1   0.0065247   0.0065247   0.0056647   0.0005531   0.0005531   0.0004459
           19          20          21          22          23          24
    1   0.0002994   0.0002994   0.0001719   0.0001719   0.0001204   0.0000908
           25          26          27          28          29          30
    1   0.0000908   0.0000799   0.0000670   0.0000670   0.0000616   0.0000382
           31          32          33          34          35          36
    1   0.0000382   0.0000370   0.0000255   0.0000255   0.0000208   0.0000208
           37          38          39          40
    1   0.0000194   0.0000194   0.0000118   0.0000103
  
*** Unpaired Electrons
 Yamaguchi Nd:         3.55
 Head-Gordon Nu:       2.32
 Head-Gordon Nu_nl:    2.41
  
**************************************************
 RAS-CI total energy for state  12:   -149.419956919755
  Excitation energy (eV) =  9.858589743651
  Warning: not all configurations have same symmetry
  State symmetry: *B2g   (D2h      )
  <S^2>      :  0.0000
  Dipole Moment:    0.0000 X    -0.0000 Y    -0.0000 Z
  Trans. Moment:    0.0000 X    -0.0000 Y    -0.0000 Z
  Strength   :  0.000000
  Natural transition orbitals ( 1 -> 12 ):
   e-/hole pair  1:  ampl =  0.677589 ( 45.9%)   [6 : 7]
   e-/hole pair  2:  ampl =  0.051570 (  0.3%)   [5 : 8]
   Sum of square amplitudes: 0.46

 NATURAL OCCUPATION NUMBERS (higher than 1.0E-05)
            1           2           3           4           5           6
    1   1.9999999   1.9999998   1.9992665   1.9953300   1.9887694   1.9642881
            7           8           9          10          11          12
    1   1.9482558   1.0422159   1.0318358   0.0110478   0.0040239   0.0037545
           13          14          15          16          17          18
    1   0.0031281   0.0014564   0.0013022   0.0012885   0.0009072   0.0007753
           19          20          21          22          23          24
    1   0.0006510   0.0004962   0.0002332   0.0002001   0.0001321   0.0001205
           25          26          27          28          29          30
    1   0.0000625   0.0000509   0.0000504   0.0000427   0.0000355   0.0000353
           31          32          33          34          35          36
    1   0.0000324   0.0000304   0.0000295   0.0000205   0.0000196   0.0000193
           37          38          39
    1   0.0000190   0.0000167   0.0000104

  Amplitudes : 
  
 | HOLE  | ALPHA  | BETA   | PART  |    AMPLITUDE 
--------------------------------------------------
 |       | 111100 | 011110 |       |     4.8410579382554E-01
 |       | 111010 | 011110 |       |    -4.8343409529190E-01
 |       | 011110 | 111100 |       |     4.8410579382554E-01
 |       | 011110 | 111010 |       |    -4.8343409529176E-01
--------------------------------------------------
*** Contributions RASCI wfn    Active:  93.86
                                 Hole:   3.77
                                 Part:   2.37

      Mulliken population analysis 
 ---------------------------------------------------
   Atom    Charge (a.u.)   Spin (a.u.)  
 ---------------------------------------------------
   1  O   -0.000000       -0.000000 
   2  O   -0.000000       -0.000000 
 ---------------------------------------------------
   Sum:   -0.000000       -0.000000 
 ---------------------------------------------------
 
  
 NATURAL OCCUPATION NUMBERS (higher than 1.0E-05)
            1           2           3           4           5           6
    1   1.9999999   1.9999998   1.9992665   1.9953300   1.9887694   1.9642881
            7           8           9          10          11          12
    1   1.9482558   1.0422159   1.0318358   0.0110478   0.0040239   0.0037545
           13          14          15          16          17          18
    1   0.0031281   0.0014564   0.0013022   0.0012885   0.0009072   0.0007753
           19          20          21          22          23          24
    1   0.0006510   0.0004962   0.0002332   0.0002001   0.0001321   0.0001205
           25          26          27          28          29          30
    1   0.0000625   0.0000509   0.0000504   0.0000427   0.0000355   0.0000353
           31          32          33          34          35          36
    1   0.0000324   0.0000304   0.0000295   0.0000205   0.0000196   0.0000193
           37          38          39
    1   0.0000190   0.0000167   0.0000104
  
*** Unpaired Electrons
 Yamaguchi Nd:         2.26
 Head-Gordon Nu:       2.06
 Head-Gordon Nu_nl:    2.01
  
**************************************************
 RAS-CI total energy for state  13:   -149.419956852144
  Excitation energy (eV) =  9.858591583451
  Warning: not all configurations have same symmetry
  State symmetry: *B2g   (D2h      )
  <S^2>      :  0.0000
  Dipole Moment:   -0.0000 X     0.0000 Y    -0.0000 Z
  Trans. Moment:   -0.0000 X     0.0000 Y     0.0000 Z
  Strength   :  0.000000
  Natural transition orbitals ( 1 -> 13 ):
   e-/hole pair  1:  ampl =  0.677589 ( 45.9%)   [6 : 7]
   e-/hole pair  2:  ampl =  0.051570 (  0.3%)   [5 : 8]
   Sum of square amplitudes: 0.46

 NATURAL OCCUPATION NUMBERS (higher than 1.0E-05)
            1           2           3           4           5           6
    1   1.9999999   1.9999998   1.9992665   1.9953300   1.9887694   1.9642882
            7           8           9          10          11          12
    1   1.9482559   1.0422158   1.0318358   0.0110478   0.0040239   0.0037545
           13          14          15          16          17          18
    1   0.0031280   0.0014565   0.0013022   0.0012885   0.0009072   0.0007753
           19          20          21          22          23          24
    1   0.0006510   0.0004961   0.0002332   0.0002001   0.0001321   0.0001205
           25          26          27          28          29          30
    1   0.0000625   0.0000509   0.0000504   0.0000427   0.0000355   0.0000353
           31          32          33          34          35          36
    1   0.0000324   0.0000304   0.0000295   0.0000205   0.0000196   0.0000193
           37          38          39
    1   0.0000190   0.0000167   0.0000104

  Amplitudes : 
  
 | HOLE  | ALPHA  | BETA   | PART  |    AMPLITUDE 
--------------------------------------------------
 |       | 111100 | 011110 |       |     4.8343407860352E-01
 |       | 111010 | 011110 |       |     4.8410577369895E-01
 |       | 011110 | 111100 |       |     4.8343407860348E-01
 |       | 011110 | 111010 |       |     4.8410577369881E-01
--------------------------------------------------
*** Contributions RASCI wfn    Active:  93.86
                                 Hole:   3.77
                                 Part:   2.37

      Mulliken population analysis 
 ---------------------------------------------------
   Atom    Charge (a.u.)   Spin (a.u.)  
 ---------------------------------------------------
   1  O   -0.000000       -0.000000 
   2  O   -0.000000        0.000000 
 ---------------------------------------------------
   Sum:   -0.000000       -0.000000 
 ---------------------------------------------------
 
  
 NATURAL OCCUPATION NUMBERS (higher than 1.0E-05)
            1           2           3           4           5           6
    1   1.9999999   1.9999998   1.9992665   1.9953300   1.9887694   1.9642882
            7           8           9          10          11          12
    1   1.9482559   1.0422158   1.0318358   0.0110478   0.0040239   0.0037545
           13          14          15          16          17          18
    1   0.0031280   0.0014565   0.0013022   0.0012885   0.0009072   0.0007753
           19          20          21          22          23          24
    1   0.0006510   0.0004961   0.0002332   0.0002001   0.0001321   0.0001205
           25          26          27          28          29          30
    1   0.0000625   0.0000509   0.0000504   0.0000427   0.0000355   0.0000353
           31          32          33          34          35          36
    1   0.0000324   0.0000304   0.0000295   0.0000205   0.0000196   0.0000193
           37          38          39
    1   0.0000190   0.0000167   0.0000104
  
*** Unpaired Electrons
 Yamaguchi Nd:         2.26
 Head-Gordon Nu:       2.06
 Head-Gordon Nu_nl:    2.01
  
**************************************************
 RAS-CI total energy for state  14:   -149.408779894314
  Excitation energy (eV) = 10.162732080180
  Warning: not all configurations have same symmetry
  State symmetry: *B2u   (D2h      )
  <S^2>      :  2.0000
  Dipole Moment:   -0.0000 X    -0.0000 Y    -0.0000 Z
  Trans. Moment:   -0.0539 X     0.0589 Y    -0.0000 Z
  Strength   :  0.001587
  Natural transition orbitals ( 1 -> 14 ):
   e-/hole pair  1:  ampl =  0.666964 ( 44.5%)   [6 : 7]
   e-/hole pair  2:  ampl =  0.062753 (  0.4%)   [5 : 8]
   Sum of square amplitudes: 0.45

 NATURAL OCCUPATION NUMBERS (higher than 1.0E-05)
            1           2           3           4           5           6
    1   1.9999999   1.9999996   1.9989006   1.9915216   1.9776703   1.9558425
            7           8           9          10          11          12
    1   1.8714226   1.0350347   0.9905523   0.1524841   0.0117254   0.0050259
           13          14          15          16          17          18
    1   0.0028310   0.0013693   0.0010208   0.0007646   0.0005999   0.0005819
           19          20          21          22          23          24
    1   0.0003934   0.0003389   0.0003366   0.0002864   0.0002733   0.0002206
           25          26          27          28          29          30
    1   0.0001595   0.0000954   0.0000810   0.0000508   0.0000497   0.0000490
           31          32          33          34          35          36
    1   0.0000425   0.0000402   0.0000363   0.0000323   0.0000296   0.0000170
           37          38          39          40          41          42
    1   0.0000154   0.0000143   0.0000137   0.0000134   0.0000134   0.0000125

  Amplitudes : 
  
 | HOLE  | ALPHA  | BETA   | PART  |    AMPLITUDE 
--------------------------------------------------
 |       | 111100 | 111001 |       |    -4.5137024256211E-01
 |       | 111010 | 111001 |       |     4.1327074010591E-01
 |       | 111001 | 111100 |       |     4.5136025794014E-01
 |       | 111001 | 111010 |       |    -4.1327092971652E-01
 |       | 111000 | 111100 |  17   |     1.8530862133930E-01
 |       | 111100 | 111000 |  17   |    -1.8527854089984E-01
 |       | 111000 | 111010 |  17   |    -1.6965587292667E-01
 |       | 111010 | 111000 |  17   |     1.6965626812885E-01
--------------------------------------------------
*** Contributions RASCI wfn    Active:  80.78
                                 Hole:   0.96
                                 Part:  18.26

      Mulliken population analysis 
 ---------------------------------------------------
   Atom    Charge (a.u.)   Spin (a.u.)  
 ---------------------------------------------------
   1  O   -0.000000        0.000000 
   2  O   -0.000000       -0.000000 
 ---------------------------------------------------
   Sum:   -0.000000        0.000000 
 ---------------------------------------------------
 
  
 NATURAL OCCUPATION NUMBERS (higher than 1.0E-05)
            1           2           3           4           5           6
    1   1.9999999   1.9999996   1.9989006   1.9915216   1.9776703   1.9558425
            7           8           9          10          11          12
    1   1.8714226   1.0350347   0.9905523   0.1524841   0.0117254   0.0050259
           13          14          15          16          17          18
    1   0.0028310   0.0013693   0.0010208   0.0007646   0.0005999   0.0005819
           19          20          21          22          23          24
    1   0.0003934   0.0003389   0.0003366   0.0002864   0.0002733   0.0002206
           25          26          27          28          29          30
    1   0.0001595   0.0000954   0.0000810   0.0000508   0.0000497   0.0000490
           31          32          33          34          35          36
    1   0.0000425   0.0000402   0.0000363   0.0000323   0.0000296   0.0000170
           37          38          39          40          41          42
    1   0.0000154   0.0000143   0.0000137   0.0000134   0.0000134   0.0000125
  
*** Unpaired Electrons
 Yamaguchi Nd:         2.72
 Head-Gordon Nu:       2.34
 Head-Gordon Nu_nl:    2.15
  
**************************************************
 RAS-CI total energy for state  15:   -149.408779808569
  Excitation energy (eV) = 10.162734413431
  Warning: not all configurations have same symmetry
  State symmetry: *B2u   (D2h      )
  <S^2>      :  2.0000
  Dipole Moment:   -0.0000 X    -0.0000 Y    -0.0000 Z
  Trans. Moment:   -0.0589 X    -0.0539 Y    -0.0000 Z
  Strength   :  0.001587
  Natural transition orbitals ( 1 -> 15 ):
   e-/hole pair  1:  ampl =  0.666963 ( 44.5%)   [6 : 7]
   e-/hole pair  2:  ampl =  0.062753 (  0.4%)   [5 : 8]
   Sum of square amplitudes: 0.45

 NATURAL OCCUPATION NUMBERS (higher than 1.0E-05)
            1           2           3           4           5           6
    1   1.9999999   1.9999996   1.9989006   1.9915217   1.9776706   1.9558423
            7           8           9          10          11          12
    1   1.8714220   1.0350348   0.9905523   0.1524844   0.0117253   0.0050259
           13          14          15          16          17          18
    1   0.0028311   0.0013693   0.0010208   0.0007646   0.0005999   0.0005819
           19          20          21          22          23          24
    1   0.0003934   0.0003389   0.0003366   0.0002864   0.0002733   0.0002206
           25          26          27          28          29          30
    1   0.0001595   0.0000954   0.0000810   0.0000508   0.0000497   0.0000490
           31          32          33          34          35          36
    1   0.0000425   0.0000402   0.0000363   0.0000323   0.0000296   0.0000170
           37          38          39          40          41          42
    1   0.0000154   0.0000143   0.0000137   0.0000134   0.0000134   0.0000125

  Amplitudes : 
  
 | HOLE  | ALPHA  | BETA   | PART  |    AMPLITUDE 
--------------------------------------------------
 |       | 111100 | 111001 |       |     4.1327642296169E-01
 |       | 111010 | 111001 |       |     4.5136464238466E-01
 |       | 111001 | 111100 |       |    -4.1326687122947E-01
 |       | 111001 | 111010 |       |    -4.5136434508777E-01
 |       | 111000 | 111100 |  17   |    -1.6966894541081E-01
 |       | 111100 | 111000 |  17   |     1.6964154296429E-01
 |       | 111000 | 111010 |  17   |    -1.8529440857506E-01
 |       | 111010 | 111000 |  17   |     1.8529355062164E-01
--------------------------------------------------
*** Contributions RASCI wfn    Active:  80.78
                                 Hole:   0.96
                                 Part:  18.26

      Mulliken population analysis 
 ---------------------------------------------------
   Atom    Charge (a.u.)   Spin (a.u.)  
 ---------------------------------------------------
   1  O   -0.000000       -0.000000 
   2  O   -0.000000        0.000000 
 ---------------------------------------------------
   Sum:   -0.000000       -0.000000 
 ---------------------------------------------------
 
  
 NATURAL OCCUPATION NUMBERS (higher than 1.0E-05)
            1           2           3           4           5           6
    1   1.9999999   1.9999996   1.9989006   1.9915217   1.9776706   1.9558423
            7           8           9          10          11          12
    1   1.8714220   1.0350348   0.9905523   0.1524844   0.0117253   0.0050259
           13          14          15          16          17          18
    1   0.0028311   0.0013693   0.0010208   0.0007646   0.0005999   0.0005819
           19          20          21          22          23          24
    1   0.0003934   0.0003389   0.0003366   0.0002864   0.0002733   0.0002206
           25          26          27          28          29          30
    1   0.0001595   0.0000954   0.0000810   0.0000508   0.0000497   0.0000490
           31          32          33          34          35          36
    1   0.0000425   0.0000402   0.0000363   0.0000323   0.0000296   0.0000170
           37          38          39          40          41          42
    1   0.0000154   0.0000143   0.0000137   0.0000134   0.0000134   0.0000125
  
*** Unpaired Electrons
 Yamaguchi Nd:         2.72
 Head-Gordon Nu:       2.34
 Head-Gordon Nu_nl:    2.15
  
**************************************************
 RAS-CI total energy for state  16:   -149.358560811248
  Excitation energy (eV) = 11.529262857338
  Warning: not all configurations have same symmetry
  State symmetry: *B2u   (D2h      )
  <S^2>      :  0.0000
  Dipole Moment:   -0.0000 X    -0.0000 Y    -0.0000 Z
  Trans. Moment:   -0.0000 X     0.0000 Y     0.0000 Z
  Strength   :  0.000000
  Natural transition orbitals ( 1 -> 16 ):
   e-/hole pair  1:  ampl =  0.669163 ( 44.8%)   [6 : 7]
   e-/hole pair  2:  ampl =  0.057697 (  0.3%)   [5 : 8]
   Sum of square amplitudes: 0.45

 NATURAL OCCUPATION NUMBERS (higher than 1.0E-05)
            1           2           3           4           5           6
    1   2.0000000   1.9999997   1.9981945   1.9924601   1.9728445   1.9533723
            7           8           9          10          11          12
    1   1.8708209   1.0380730   0.9914266   0.1524144   0.0131091   0.0047849
           13          14          15          16          17          18
    1   0.0033105   0.0015340   0.0011546   0.0010780   0.0008839   0.0008188
           19          20          21          22          23          24
    1   0.0007828   0.0007406   0.0003989   0.0003847   0.0003271   0.0001894
           25          26          27          28          29          30
    1   0.0001743   0.0001172   0.0000942   0.0000538   0.0000516   0.0000500
           31          32          33          34          35          36
[...]
    22    5.345929092599e-15
    23    1.485989859880e-14
    24   -6.509987648703e-01
    25   -1.062960451266e-15
    26    1.044687726018e-16
    27    1.810490013328e-16
    28    4.919557638763e-16
    29   -1.617627942559e-02
    30   -3.101863274809e-16
    31   -2.609118906417e-16
    32    4.232899432525e-16
    33    1.508800027334e-15
    34   -8.869844871127e-15
    35    1.110318479303e-14
    36    2.961316470341e-14
    37   -4.572020493129e-16
    38   -9.561393453659e-16
    39    1.442708304218e-15
    40    3.613277702088e-16
    41    9.357805302163e-17
    42   -9.056495378056e-15
    43    7.759623819761e-16
    44   -2.157696064365e-15
    45   -1.386974855153e-14
    46   -1.258798577056e-16
    47    3.386136346005e-16
    48   -7.774468909534e-16
    49   -2.292896302995e-16
    50    8.268745185350e-03
    51    3.188055274859e-15
    52   -4.611442043907e-16
    53   -2.908391118369e-15
    54    1.364135749926e-14
    55   -6.509987648703e-01
    56   -8.315545294062e-16
    57   -6.452641151502e-17
    58   -4.422010926334e-17
    59    4.650967009961e-17
    60    1.617627942559e-02
    61   -1.544074317545e-17
    62    2.531730468353e-16
Sym=X
Ene= 1.442747
Spin=Alpha
Occup=0
     1    5.319414980303e-10
     2    1.812355560143e-09
     3   -4.956088467698e-09
     4   -4.108714891943e-08
     5    4.985757712896e-08
     6    8.117616129281e-16
     7    3.995636520046e-16
     8   -3.165948474000e-08
     9   -1.644581921766e-15
    10    5.574483124870e-16
    11   -3.883577868267e-08
    12    1.367512332330e-15
    13   -6.843559604978e-16
    14    4.123288303519e-08
    15   -2.541073008018e-09
    16   -1.434135003791e-16
    17    2.324654851932e-16
    18    8.268745185384e-03
    19    3.892076406896e-16
    20    5.204067387880e-09
    21   -1.437783089466e-15
    22   -2.353168388071e-15
    23   -6.509987648705e-01
    24   -1.405332486806e-14
    25   -2.188316272123e-09
    26   -1.816472740114e-16
    27   -1.681309890962e-16
    28   -1.617627942401e-02
    29   -3.615317838514e-16
    30   -7.341153579549e-17
    31   -8.627342873595e-17
    32    5.319427543109e-10
    33    1.812359310176e-09
    34   -4.956103066128e-09
    35   -4.108716391089e-08
    36    4.985776087284e-08
    37    1.000078060463e-15
    38    8.706137111984e-16
    39    3.165948805863e-08
    40   -6.221176687402e-16
    41   -3.754693340333e-17
    42    3.883576251112e-08
    43    1.499963739072e-17
    44    6.979444240559e-16
    45   -4.123296532399e-08
    46   -2.541073303221e-09
    47    5.112519094246e-17
    48    3.904145583178e-16
    49    8.268745185384e-03
    50    2.835347763830e-16
    51    5.204073948712e-09
    52   -5.342852325182e-16
    53    1.060116503813e-15
    54   -6.509987648705e-01
    55   -1.320577693744e-14
    56    2.188314245268e-09
    57    2.721075309974e-16
    58   -4.269906327810e-16
    59    1.617627942401e-02
    60    2.920496722255e-16
    61   -2.859122596921e-17
    62    3.475850777994e-16
Sym=X
Ene= 1.532471
Spin=Alpha
Occup=0
     1    1.118271526865e-16
     2    4.266404928776e-16
     3   -2.775225885845e-15
     4    3.409310383797e-15
     5    5.992088958935e-15
     6   -1.123518640359e-01
     7   -2.330494863766e-15
     8   -5.507829453247e-16
     9   -1.379501183250e-01
    10   -1.744328983647e-16
    11    2.837627726745e-15
    12    3.824597137418e-02
    13   -2.555934827470e-16
    14    2.272336630060e-15
    15   -1.093653314445e-16
    16    1.162750526105e-02
    17   -2.074233679564e-17
    18    1.604012033914e-16
    19   -1.381480045559e-16
    20    7.685804507958e-16
    21    5.989725446678e-01
    22    5.549879636397e-15
    23   -2.773642632224e-15
    24    5.781805706262e-17
    25    2.674998268350e-16
    26   -1.053738455516e-02
    27   -1.486370991649e-16
    28    5.932459628074e-17
    29    7.166949289420e-18
    30    1.676048452909e-09
    31   -3.332849410750e-17
    32    2.993082257487e-17
    33    9.341377001531e-17
    34    7.913512690407e-18
    35   -5.619011196272e-16
    36   -6.310107077134e-15
    37   -1.123518640359e-01
    38   -3.587694585961e-16
    39   -4.259946645050e-16
    40   -1.379501183249e-01
    41   -2.533506422751e-15
    42    2.322366168716e-15
    43    3.824597137418e-02
    44    1.278669906624e-15
    45    3.144462194907e-15
    46    3.574364357202e-17
    47   -1.162750526105e-02
    48   -2.370135486414e-16
    49   -1.688207438928e-16
    50    7.901617403688e-17
    51   -1.455681690189e-15
    52   -5.989725446678e-01
    53   -5.806485733286e-15
    54    1.237996535782e-15
    55   -7.861122118305e-16
    56    3.186812103420e-16
    57   -1.053738455516e-02
    58    1.129762578592e-16
    59   -3.073846010955e-16
    60    1.246955642010e-16
    61    1.676048121155e-09
    62    2.328075380432e-16
Sym=X
Ene= 1.532471
Spin=Alpha
Occup=0
     1   -1.356544866423e-16
     2   -1.711572194506e-16
     3   -1.362210023852e-15
     4    8.131926984881e-15
     5   -1.575457340919e-14
     6   -1.109045808685e-15
     7    1.123518845609e-01
     8    5.345150680421e-16
     9   -1.743655135727e-15
    10    1.379502553804e-01
    11    3.695897506734e-15
    12    1.340449858298e-15
    13   -3.824609019479e-02
    14   -8.784764029930e-15
    15    3.936525327561e-17
    16    3.936732913339e-16
    17   -1.162751374180e-02
    18    4.354869811528e-17
    19   -5.888490989070e-17
    20    1.277750601553e-15
    21    4.483839576992e-15
    22   -5.989725346839e-01
    23    2.248991609392e-15
    24   -3.622473450523e-15
    25    1.846085737877e-16
    26   -1.466796118392e-16
    27    1.053737362389e-02
    28    3.844826646325e-16
    29   -6.489515033945e-17
    30   -1.764639093276e-17
    31   -1.680478268341e-09
    32    2.660180093643e-16
    33    8.078621256752e-16
    34   -2.864645417060e-15
    35   -2.128369263795e-15
    36    1.445484311426e-14
    37   -1.557175268232e-16
    38    1.123518845609e-01
    39    4.498289594662e-17
    40   -2.522604779553e-15
    41    1.379502553804e-01
    42    2.717639427264e-15
    43    1.072685886467e-15
    44   -3.824609019480e-02
    45   -6.025307388293e-15
    46    2.081857460277e-16
    47    1.620465296347e-16
    48    1.162751374180e-02
    49    2.917269689832e-17
    50    5.055772558968e-16
    51   -2.121980546017e-15
    52   -5.102597976998e-15
    53    5.989725346839e-01
    54    1.813199838238e-15
    55   -6.424896144220e-15
    56    3.837701113126e-16
    57   -7.012892635545e-17
    58    1.053737362389e-02
    59   -8.430867026911e-17
    60    3.772403018064e-16
    61    1.588418977077e-16
    62   -1.680478334584e-09
Sym=X
Ene= 1.858697
Spin=Alpha
Occup=0
     1   -2.154329033548e-16
     2   -7.727786819392e-16
     3   -7.421009556886e-16
     4    1.381362499833e-14
     5   -3.111135729132e-15
     6    1.200924293208e-16
     7    1.499274421171e-15
     8    1.582442308719e-15
     9   -1.026805335837e-15
    10   -2.615280584217e-15
    11    1.489705020428e-14
    12    3.343963331811e-16
    13   -5.255060973052e-17
    14   -2.618694453603e-15
    15   -6.613707628558e-16
    16   -6.503672533692e-17
    17    1.548654713653e-16
    18    4.706736280219e-16
    19    5.361930469810e-03
    20    1.303090966183e-14
    21   -8.385594301413e-16
    22   -4.029061967298e-15
    23   -3.676531311670e-14
    24   -7.854344333362e-01
    25    1.750698579582e-15
    26    8.897253581219e-17
    27   -2.322784212460e-17
    28    5.851376562714e-16
    29    1.012922389157e-02
    30    6.263269539209e-17
    31   -1.590455948186e-16
    32   -2.042323368139e-16
    33   -9.326654808924e-16
    34    1.089201992874e-14
    35   -2.983846776935e-14
    36    1.031413432590e-14
    37   -4.398318019843e-16
    38    2.853363272198e-15
    39    1.529002462664e-15
    40    6.344889522759e-16
    41   -1.416294039791e-15
    42    1.530069070510e-14
    43    8.102524195104e-17
    44    1.394391338378e-15
    45   -3.929299595622e-15
    46    1.886895054309e-16
    47    4.179719627869e-17
    48    3.374706084996e-16
    49   -2.764800460235e-16
    50   -5.361930469809e-03
    51   -9.650245318133e-15
    52   -1.502139366194e-15
    53   -2.343473191489e-15
    54    3.749212637170e-14
    55    7.854344333362e-01
    56    1.273770059577e-15
    57    3.339221589234e-18
    58   -3.790797323943e-17
    59    4.695155042626e-16
    60    1.012922389157e-02
    61   -1.025870033473e-16
    62   -1.615247036442e-16
Sym=X
Ene= 1.858697
Spin=Alpha
Occup=0
     1    2.238286534968e-11
     2    2.646125371357e-10
     3    5.563469314028e-09
     4   -3.609342114066e-08
     5    1.124127282857e-07
     6    1.660935692781e-15
     7    6.061738942885e-16
     8    7.553706935646e-11
     9   -2.844874078106e-15
    10   -1.317878168274e-16
    11   -5.106460772952e-08
    12    4.292460323800e-15
    13    2.914237411310e-16
    14    6.045112226966e-08
    15    8.198015177598e-10
    16   -3.781424145663e-16
    17   -1.300672894091e-16
    18    5.361930468750e-03
    19   -5.377902870501e-16
    20    1.013917644138e-08
    21   -2.801573387775e-16
    22    1.693289055101e-15
    23   -7.854344333356e-01
    24    3.659476562422e-14
    25    6.706459447043e-10
    26   -1.193730993741e-16
    27    5.972555303154e-17
    28    1.012922389120e-02
    29   -3.977746970282e-16
    30    1.442946497654e-18
    31    5.461488092970e-17
    32   -2.238214808564e-11
    33   -2.646101836598e-10
    34   -5.563484808184e-09
    35    3.609344452858e-08
    36   -1.124127362240e-07
    37   -6.092078568127e-16
    38   -8.821800466012e-16
    39    7.553614563510e-11
    40    1.366638758522e-15
    41    7.112240906071e-17
    42   -5.106460988707e-08
    43   -2.489658870827e-15
    44   -1.911241096978e-16
    45    6.045112794562e-08
    46   -8.198014843246e-10
    47    4.068947644917e-16
    48   -1.216139608991e-16
    49   -5.361930468750e-03
    50    8.297614343603e-16
    51   -1.013918409542e-08
    52    2.816850390102e-15
    53    2.105354774420e-15
    54    7.854344333356e-01
    55   -3.799613044019e-14
    56    6.706463295437e-10
    57   -2.370277100788e-16
    58   -3.051357462801e-17
    59    1.012922389120e-02
    60   -3.387042090202e-16
    61    3.178339753420e-18
    62    3.274275153994e-17
Sym=X
Ene= 2.096014
Spin=Alpha
Occup=0
     1    5.407742407740e-03
     2    2.601624821725e-02
     3   -2.907512337716e-01
     4    1.056836608052e+00
     5   -4.596433189185e-01
     6    2.775227362139e-15
     7   -6.435275514234e-15
     8   -1.592032635035e-01
     9   -4.245426722537e-15
    10    4.395254058109e-15
    11    5.605037476970e-01
    12    5.769229762980e-15
    13   -1.063538998665e-14
    14   -7.008491299851e-01
    15   -8.522333125006e-03
    16   -4.206739248948e-16
    17    6.607587789713e-16
    18   -6.544199269393e-10
    19   -2.891263874757e-16
    20   -8.009083945244e-01
    21    4.309092012352e-15
    22   -1.679978160176e-14
    23   -3.434386595359e-09
    24   -7.351783123060e-16
    25   -1.288542680148e-02
    26   -3.618751657356e-16
    27   -3.814556776701e-16
    28   -3.379529816297e-09
    29   -4.236101873748e-16
    30   -1.069969354311e-16
    31    3.412780430070e-16
    32    5.407742407740e-03
    33    2.601624821725e-02
    34   -2.907512337715e-01
    35    1.056836608052e+00
    36   -4.596433189188e-01
    37   -1.433115399415e-15
    38    5.631591668657e-15
    39    1.592032635035e-01
    40    1.099410494828e-15
    41   -3.183230493209e-15
    42   -5.605037476969e-01
    43   -3.445211810937e-15
    44    1.008459201879e-14
    45    7.008491299853e-01
    46   -8.522333125001e-03
    47    1.297350800800e-16
    48    3.962052408551e-16
    49   -6.544199403962e-10
    50    2.209353066706e-16
    51   -8.009083945245e-01
    52    4.677294653827e-15
    53   -1.748447920433e-14
    54   -3.434394721684e-09
    55    2.558199200576e-15
    56    1.288542680149e-02
    57   -5.977294678568e-16
    58   -4.439631182234e-16
    59    3.379531002761e-09
    60   -3.282433824195e-16
    61   -9.729699976318e-17
    62    7.502781329347e-17
Sym=X
Ene= 2.380838
Spin=Alpha
Occup=0
     1    9.093954287580e-16
     2    3.269091013016e-15
     3   -1.713117574253e-14
     4    1.323909791325e-14
     5   -4.338824655412e-14
     6    3.049016999035e-01
     7   -7.053734281079e-09
     8   -7.135838294955e-15
     9   -1.590205272149e-01
    10   -1.953823997156e-08
    11   -4.960788122657e-15
    12    6.182480437287e-01
    13    4.864320112165e-08
    14   -1.603661118901e-14
    15    1.690401135456e-16
    16   -1.390912151862e-02
    17   -4.641929059225e-10
    18    3.351837683719e-16
    19    2.711559064565e-16
    20   -8.957498969956e-15
    21    1.045013102595e+00
    22    1.358154098274e-08
    23    6.197177975200e-16
    24   -1.652289606108e-15
    25   -1.087631059581e-17
    26    3.649363094819e-03
    27    1.161938055476e-10
    28    2.161443706453e-16
    29    1.241918781423e-16
    30    4.983031932104e-09
    31    4.728063176546e-16
    32    5.311524205348e-16
    33    2.110084598490e-15
    34   -1.381813266206e-14
    35    1.472706546081e-14
    36    3.504095447370e-14
    37   -3.049016999035e-01
    38    7.053731221659e-09
    39   -1.125936977315e-14
    40    1.590205272150e-01
    41    1.953824346398e-08
    42    5.800825458484e-15
    43   -6.182480437287e-01
    44   -4.864320229338e-08
    45   -2.559299169889e-14
    46   -3.155763042317e-16
    47   -1.390912151862e-02
    48   -4.641931748145e-10
    49   -6.643149835860e-16
    50   -2.088475316374e-16
    51    1.869426001105e-14
    52    1.045013102595e+00
    53    1.358154206167e-08
    54   -2.104824028209e-15
    55    1.774511162222e-16
    56    6.700707004718e-16
    57   -3.649363094819e-03
    58   -1.161938877855e-10
    59   -7.438216671508e-16
    60    6.231010320783e-17
    61   -4.983031782858e-09
    62    1.058413560102e-17
Sym=X
Ene= 2.380838
Spin=Alpha
Occup=0
     1    2.634580634659e-15
     2    6.738440290458e-15
     3    1.210164057384e-14
     4   -1.255423430725e-13
     5   -3.440119861373e-13
     6    1.169291918531e-08
     7   -3.049017540122e-01
     8   -3.476111148177e-14
     9    5.867761896998e-09
    10    1.590207194814e-01
    11   -1.524838827528e-13
    12   -1.072566497874e-08
    13   -6.182481351517e-01
    14   -1.519129604144e-13
    15    4.620546478077e-15
    16   -8.452629824626e-12
    17    1.390912310958e-02
    18    4.061871518831e-17
    19   -8.787152076809e-17
    20   -1.453615000785e-13
    21    1.025122194441e-08
    22   -1.045013042806e+00
    23   -1.481829780900e-15
    24    1.713959338674e-15
    25   -7.023990613140e-15
    26   -1.852723113808e-11
    27   -3.649363059646e-03
    28   -8.285512627160e-17
    29    1.041189432193e-16
    30    1.646286764267e-15
    31   -4.980468796623e-09
    32   -8.664321354100e-16
    33   -5.718977814113e-16
    34   -4.243259682264e-14
    35    1.363787560021e-13
    36    3.419562904511e-13
    37   -1.169292324661e-08
    38    3.049017540122e-01
    39   -4.849527028667e-14
    40   -5.867755470843e-09
    41   -1.590207194814e-01
    42   -1.202555655435e-13
    43    1.072566183509e-08
    44    6.182481351517e-01
    45   -1.832760983183e-13
    46   -3.389313391510e-15
    47   -8.452342191336e-12
    48    1.390912310958e-02
    49   -9.340183761225e-17
    50   -7.599577314339e-16
    51    1.749013423868e-13
    52    1.025122287968e-08
    53   -1.045013042806e+00
    54    2.111939691867e-15
    55   -3.185566333618e-15
    56   -8.530243199751e-15
    57    1.852726160168e-11
    58    3.649363059646e-03
    59    3.719841019118e-16
    60   -1.434200029870e-16
    61   -1.377594663287e-15
    62    4.980468649460e-09
Sym=X
Ene= 2.427152
Spin=Alpha
Occup=0
     1    1.075637967271e-02
     2    1.688362246144e-02
     3    3.148615129710e-01
     4   -1.165812722678e+00
     5   -3.315980305215e+00
     6   -3.126677677102e-15
     7    3.129211418687e-14
     8   -4.566179565212e-01
     9   -1.255337535214e-15
    10   -1.712396955835e-14
    11   -1.066891556721e+00
    12   -6.275879700014e-15
    13    6.714894053214e-14
    14   -1.671959017725e+00
    15    3.194193784861e-02
    16   -2.785554094748e-16
    17   -1.233931809283e-15
    18    6.565520436890e-11
    19    3.269383639805e-16
    20   -1.431568193634e+00
    21   -1.786676366360e-14
    22    1.070859090675e-13
    23   -1.665461386492e-08
    24   -5.677074307889e-15
    25   -6.229467707141e-02
    26    5.460014242702e-16
    27   -6.517444289957e-16
    28   -1.942755818998e-09
    29    8.892396661743e-16
    30    5.882795503825e-18
    31    2.640960661189e-17
    32   -1.075637967271e-02
    33   -1.688362246141e-02
    34   -3.148615129711e-01
    35    1.165812722678e+00
    36    3.315980305215e+00
    37    1.589574385888e-15
    38   -3.444538244386e-14
    39   -4.566179565213e-01
    40    3.189423825274e-15
    41    2.058360133123e-14
    42   -1.066891556721e+00
    43    5.619385391718e-15
    44   -6.763107092138e-14
    45   -1.671959017725e+00
    46   -3.194193784861e-02
    47   -2.308850750352e-16
    48   -2.234029907268e-15
    49   -6.565557027107e-11
    50    1.478300130544e-15
    51    1.431568193634e+00
    52   -1.707140690068e-14
    53    1.092546253885e-13
    54    1.665461174607e-08
    55    3.267355073171e-15
    56   -6.229467707141e-02
    57    3.682135034715e-16
    58    6.446844658032e-16
    59   -1.942754694258e-09
    60    3.326836515717e-16
    61   -2.576952101966e-18
    62    3.297248508120e-16
Sym=X
Ene= 2.756330
Spin=Alpha
Occup=0
     1   -3.105260080360e-15
     2   -1.113972819276e-14
     3    6.959089016193e-14
     4   -9.031064180215e-14
     5    3.244207940698e-14
     6   -8.574749584034e-01
     7   -1.525998345033e-16
     8   -1.113190050018e-14
     9    1.070089899721e+00
    10    1.112565308952e-15
    11    1.266242042835e-14
    12   -4.227001161412e-01
    13    1.169325518625e-15
    14   -6.716243066869e-15
    15   -3.232734400313e-17
    16    3.346795844722e-04
    17   -2.411535787730e-16
    18   -5.757738841892e-16
    19   -5.760863684151e-16
    20   -1.829339707019e-15
    21   -1.018027521185e-01
    22    3.372605585965e-15
    23   -1.907204376981e-15
    24    1.217239986835e-15
    25    5.706807637584e-16
    26   -1.409271730187e-02
    27   -2.761791229673e-16
    28   -1.587229297536e-16
    29   -1.324300573469e-16
    30   -1.665836437102e-09
    31   -3.379307427491e-16
    32   -2.864531226224e-15
    33   -1.035055827690e-14
    34    6.283758008413e-14
    35   -7.744844121335e-14
    36    3.211651421038e-14
    37   -8.574749584034e-01
    38   -1.104303607665e-15
    39    1.326515784802e-14
    40    1.070089899721e+00
    41    5.303831530411e-16
    42   -2.178388415560e-14
    43   -4.227001161412e-01
    44   -1.790480383395e-15
    45    6.607381635339e-15
    46   -2.007205854786e-16
    47   -3.346795844700e-04
    48   -1.510528072781e-16
    49    3.764802352288e-16
    50    2.740141449768e-16
    51    6.556201770650e-16
    52    1.018027521184e-01
    53    4.296730390088e-15
    54   -9.758053538255e-16
    55    6.773478904360e-16
    56   -1.393075230410e-15
    57   -1.409271730187e-02
    58    1.094186683470e-16
    59   -1.622448468820e-15
    60   -1.539042222508e-16
    61   -1.665837750086e-09
    62   -7.720944532634e-18
[5D7F]

======= END OF MOLDEN-FORMATTED INPUT FILE =======


        *************************************************************
        *                                                           *
        *  Thank you very much for using Q-Chem.  Have a nice day.  *
        *                                                           *
        *************************************************************


