                  Welcome to Q-Chem
     A Quantum Leap Into The Future Of Chemistry


 Q-Chem 6.0 (devel), Q-Chem, Inc., Pleasanton, CA (2022)

 E. Epifanovsky,  A. T. B. Gilbert,  Xintian Feng,  Joonho Lee,  Yuezhi Mao,  
 N. Mardirossian,  P. Pokhilko,  A. White,  M. Wormit,  M. P. Coons,  
 A. L. Dempwolff,  Zhengting Gan,  D. Hait,  P. R. Horn,  L. D. Jacobson,  
 I. Kaliman,  J. Kussmann,  A. W. Lange,  Ka Un Lao,  D. S. Levine,  Jie Liu,  
 S. C. McKenzie,  A. F. Morrison,  K. Nanda,  F. Plasser,  D. R. Rehn,  
 M. L. Vidal,  Zhi-Qiang You,  Ying Zhu,  B. Alam,  B. Albrecht,  
 A. Aldossary,  E. Alguire,  J. H. Andersen,  V. Athavale,  D. Barton,  
 K. Begam,  A. Behn,  N. Bellonzi,  Y. A. Bernard,  E. J. Berquist,  
 H. Burton,  A. Carreras,  K. Carter-Fenk,  Romit Chakraborty,  
 Chandrima Chakravarty,  Junhan Chen,  A. D. Chien,  K. D. Closser,  
 V. Cofer-Shabica,  L. Cunha,  S. Dasgupta,  Jia Deng,  M. de Wergifosse,  
 M. Diedenhofen,  Hainam Do,  S. Ehlert,  Po-Tung Fang,  S. Fatehi,  
 Qingguo Feng,  T. Friedhoff,  B. Ganoe,  J. Gayvert,  Qinghui Ge,  
 G. Gidofalvi,  M. Goldey,  J. Gomes,  C. Gonzalez-Espinoza,  S. Gulania,  
 A. Gunina,  J. A. Gyamfi,  M. W. D. Hanson-Heine,  P. H. P. Harbach,  
 A. W. Hauser,  M. F. Herbst,  M. Hernandez Vera,  M. Hodecker,  
 Z. C. Holden,  S. Houck,  Xunkun Huang,  Kerwin Hui,  B. C. Huynh,  
 K. Ikeda,  M. Ivanov,  Hyunjun Ji,  Zuxin Jin,  Hanjie Jiang,  B. Kaduk,  
 S. Kaehler,  R. Kang,  K. Khistyaev,  Jaehoon Kim,  Yongbin Kim,  
 P. Klunzinger,  Z. Koczor-Benda,  Joong Hoon Koh,  D. Kosenkov,  
 Saikiran Kotaru,  L. Koulias,  T. Kowalczyk,  C. M. Krauter,  K. Kue,  
 A. Kunitsa,  T. Kus,  A. Landau,  K. V. Lawler,  D. Lefrancois,  S. Lehtola,  
 Rain Li,  Shaozhi Li,  Yi-Pei Li,  Jiashu Liang,  M. Liebenthal,  
 Hung-Hsuan Lin,  You-Sheng Lin,  Fenglai Liu,  Kuan-Yu Liu,  
 M. Loipersberger,  A. Luenser,  C. Malbon,  A. Manjanath,  P. Manohar,  
 E. Mansoor,  S. F. Manzer,  Shan-Ping Mao,  A. V. Marenich,  T. Markovich,  
 S. Mason,  F. Matz,  S. A. Maurer,  P. F. McLaughlin,  M. F. S. J. Menger,  
 J.-M. Mewes,  S. A. Mewes,  P. Morgante,  Mohammad Mostafanejad,  
 J. W. Mullinax,  K. J. Oosterbaan,  G. Paran,  V. Parravicini,  
 Alexander C. Paul,  Suranjan K. Paul,  F. Pavosevic,  Zheng Pei,  S. Prager,  
 E. I. Proynov,  E. Ramos,  B. Rana,  A. E. Rask,  A. Rettig,  R. M. Richard,  
 F. Rob,  E. Rossomme,  T. Scheele,  M. Scheurer,  M. Schneider,  
 P. E. Schneider,  N. Sergueev,  S. M. Sharada,  Hengyuan Shen,  
 W. Skomorowski,  D. W. Small,  C. J. Stein,  Yingli Su,  Yu-Chuan Su,  
 E. J. Sundstrom,  Zhen Tao,  J. Thirman,  Hung-Yi Tsai,  T. Tsuchimochi,  
 N. M. Tubman,  C. Utku,  S. P. Veccham,  O. Vydrov,  J. Wenzel,  
 Jonathan Wong,  J. Witte,  A. Yamada,  Chou-Hsun Yang,  Kun Yao,  
 S. Yeganeh,  S. R. Yost,  A. Zech,  F. Zeller,  Igor Ying Zhang,  
 Xing Zhang,  Yu Zhang,  D. Zuev,  A. Aspuru-Guzik,  A. T. Bell,  
 N. A. Besley,  K. B. Bravaya,  B. R. Brooks,  D. Casanova,  Jeng-Da Chai,  
 Hsing-Ta Chen,  S. Coriani,  C. J. Cramer,  A. E. DePrince, III,  
 R. A. DiStasio Jr.,  A. Dreuw,  B. D. Dunietz,  T. R. Furlani,  
 W. A. Goddard III,  S. Grimme,  S. Hammes-Schiffer,  T. Head-Gordon,  
 W. J. Hehre,  Chao-Ping Hsu,  T.-C. Jagau,  Yousung Jung,  A. Klamt,  
 Jing Kong,  D. S. Lambrecht,  Xiangyuan Li,  WanZhen Liang,  N. J. Mayhall,  
 C. W. McCurdy,  J. B. Neaton,  T. Neudecker,  C. Ochsenfeld,  
 J. A. Parkhill,  R. Peverati,  V. A. Rassolov,  Haisheng Ren,  Yihan Shao,  
 L. V. Slipchenko,  R. P. Steele,  J. E. Subotnik,  A. J. W. Thom,  
 A. Tkatchenko,  D. G. Truhlar,  T. Van Voorhis,  Fan Wang,  
 T. A. Wesolowski,  K. B. Whaley,  H. L. Woodcock III,  P. M. Zimmerman,  
 S. Faraji,  P. M. W. Gill,  M. Head-Gordon,  J. M. Herbert,  A. I. Krylov

 Contributors to earlier versions of Q-Chem not listed above: 
 R. D. Adamson,  B. Austin,  R. Baer,  J. Baker,  G. J. O. Beran,  
 K. Brandhorst,  S. T. Brown,  E. F. C. Byrd,  Arup K. Chakraborty,  
 G. K. L. Chan,  Chun-Min Chang,  Yunqing Chen,  C.-L. Cheng,  
 Siu Hung Chien,  D. M. Chipman,  D. L. Crittenden,  H. Dachsel,  
 R. J. Doerksen,  A. D. Dutoi,  R. G. Edgar,  J. Fosso-Tande,  
 L. Fusti-Molnar,  D. Ghosh,  A. Ghysels,  A. Golubeva-Zadorozhnaya,  
 J. Gonthier,  M. S. Gordon,  S. R. Gwaltney,  G. Hawkins,  J. E. Herr,  
 A. Heyden,  S. Hirata,  E. G. Hohenstein,  G. Kedziora,  F. J. Keil,  
 C. Kelley,  Jihan Kim,  R. A. King,  R. Z. Khaliullin,  P. P. Korambath,  
 W. Kurlancheek,  A. Laurent,  A. M. Lee,  M. S. Lee,  S. V. Levchenko,  
 Ching Yeh Lin,  D. Liotard,  E. Livshits,  R. C. Lochan,  I. Lotan,  
 L. A. Martinez-Martinez,  P. E. Maslen,  N. Nair,  D. P. O'Neill,  
 D. Neuhauser,  E. Neuscamman,  C. M. Oana,  R. Olivares-Amaya,  R. Olson,  
 T. M. Perrine,  B. Peters,  P. A. Pieniazek,  A. Prociuk,  Y. M. Rhee,  
 J. Ritchie,  M. A. Rohrdanz,  E. Rosta,  N. J. Russ,  H. F. Schaefer III,  
 M. W. Schmidt,  N. E. Schultz,  S. Sharma,  N. Shenvi,  C. D. Sherrill,  
 A. C. Simmonett,  A. Sodt,  T. Stein,  D. Stuck,  K. S. Thanthiriwatte,  
 V. Vanovschi,  L. Vogt,  Tao Wang,  A. Warshel,  M. A. Watson,  
 C. F. Williams,  Q. Wu,  X. Xu,  Jun Yang,  W. Zhang,  Yan Zhao

   Please cite Q-Chem as follows:
  "Software for the frontiers of quantum chemistry:
   An overview of developments in the Q-Chem 5 package"
   J. Chem. Phys. 155, 084801 (2021)
   https://doi.org/10.1063/5.0055522 (open access)

 Q-Chem 6.0.1 for Intel X86 EM64T Linux

 Parts of Q-Chem use Armadillo 9.900.5 (Nocturnal Misbehaviour).
 http://arma.sourceforge.net/

 Q-Chem begins on Tue Nov 14 20:38:11 2023  

 Host: atlas-201
0

     Scratch files written to ./qchem5152//
 Processing $rem in /scratch/abel/SOFTWARE/qchem/config/preferences:
 Processing $rem in /dipc/acebg/.qchemrc:

 Checking the input file for inconsistencies... 	...done.

--------------------------------------------------------------
User input:
--------------------------------------------------------------
$comment
 RAS-SF CALCULATION
$end

$molecule
 READ quinoline.molecule
$end

$rem
!**CALCULATION TYPE***     
JOBTYPE            sp    
EXCHANGE           HF
CORRELATION        RASCI    !RASCI=Casanova; RASCI2=Zimmerman
BASIS              def2-TZVP

!***SCF REFERENCE***
INPUT_BOHR          TRUE
!SKIP_SCFMAN        FALSE
UNRESTRICTED       FALSE
!SCF_GUESS          core
!SCF_GUESS_MIX      FALSE
!SCF_GUESS_ALWAYS   FALSE
MAX_SCF_CYCLES     999
!SCF_CONVERGENCE    8
SCF_ALGORITHM      DIIS_GDM !DIIS,DM,DIIS_DM,GDM,DIIS_GDM,GD

!SYMMETRY           TRUE   !use of symmetry for calculating integrals
!SYM_IGNORE         FALSE  !turn off using symmetry
!SYM_TOL            5      !tolerance for determining point group
!USE_ABELIAN_SUBGROUP      !define to use abelian group

!THRESH             14
SCF_FINAL_PRINT     1 !0,1,2,3

!****RAS-SF****
RAS_ROOTS          50       !number of RAS-CI roots to be computed
SET_ITER           150     !number of iterations in RASCI
RAS_ELEC           4       !number of electrons in RAS2
!RAS_ELEC_ALPHA     3       !spin-α electrons in RAS2 
!RAS_ELEC_BETA      1       !spin-β electrons in RAS2

RAS_ACT            4       !number of orbitals in RAS2 
RAS_ACT_ORB  [33,34,35,36]  !user-selected RAS2 orbitals
RAS_OCC            32       !number of orbitals in RAS1
!N_FROZEN_CORE      FC     !Number of frozen core orbitals
!N_FROZEN_VIRTUAL   0      !Number of frozen virtual orbitals

RAS_DO_HOLE        TRUE   !presence of hole excitations in RAS-CI wave function
RAS_DO_PART        TRUE   !presence of particle excitations
!RAS_AMPL_PRINT     10     !threshold (×10 2 ) for the CI amplitudes

!RAS_GUESS_CS       0      !number of closed shell guess conﬁgurations
RAS_SPIN_MULT      0      !spin multiplicity. Only for Ms = 0 
!RAS_SRDFT          FALSE  !short-range density functional RAS-CI
!RAS_NFRAG          0     !fragments of excitation analysis in RASCI

RAS_PRINT          2      !level of information
RAS_NATORB         TRUE   !computation of the natural orbital occupancies
!RAS_NATORB_STATE  0      !Saves NO of i RAS computed state in .fchk ﬁle
!RAS_FOD            TRUE

!****RAS-SOC****
CALC_SOC           TRUE   !calculate SOC for EOM-CC, RAS-CI, ADC, TDDFT/TDA and TDDFT
!RAS_SOC_2E        TRUE   !two-electron mean-ﬁeld contribution, default=true
RAS_SOC_SYM_DENS   TRUE   !averaging of α and β densities

!****MEMORY****
MEM_TOTAL          12000 !Default 2000 MB
MEM_STATIC         3000  !Default 64 MB

!**Molecular Properties and Analysis **                                                                                          
POP_MULLIKEN       TRUE   !Run Mulliken population analysis
LOWDIN_POPULATION  TRUE   !Run Löwdin population analysis
GUI                2       !Checkpoints generation
STATE_ANALYSIS     TRUE

!**Wave function analysis of RAS-CI states: MOLDEN**
!PLOTS = 0     ! Note: This can be omitted, default is 0
!NTO_PAIRS = 2 ! Note: This can be omitted, default is 2
!GUI 0
!MOLDEN_FORMAT      TRUE
!PRINT_ORBITALS     15

!**Wave function analysis of RAS-CI state: CUBE**
!NTO_PAIRS = 2 ! Note: This can be omitted, default is 2
!PLOTS = 1
!GUI 0

!**SR-DFT**
!RAS_SRDFT           TRUE !Perform short-range density functional RAS-CI
!RAS_SRDFT_EXC       0 !EX functional. 0=HF. 
!RAS_SRDFT_ONLY_COR  TRUE !No use of EXC functional
!RAS_SRDFT_COR       srPBE !short-range correlation functional
!ras_srdft_0         TRUE !true: no iteration (one-shot); false: iteration
!RAS_OMEGA           400 !Coulomb range-separation parameter. def=400
!RAS_SRDFT_DAMP     0.5 !dumping factor. def=0.5
$end

!$plots
!   grid_points 100 100 100
!   grid_range  (-10,10) (-10,10) (-10,10)
!$end

--------------------------------------------------------------
 ----------------------------------------------------------------
             Standard Nuclear Orientation (Bohr)
    I     Atom           X                Y                Z
 ----------------------------------------------------------------
    1      C      -0.0559353627    -1.3989916065    -0.0000000000
    2      C      -0.0782415914     1.3256554364     0.0000000000
    3      C       2.3016375305    -2.6538713366    -0.0000000000
    4      C       4.6667611846    -1.2654684416    -0.0000000000
    5      C       4.6497706855     1.3016649328    -0.0000000000
    6      C       2.2722800840     2.6377967747    -0.0000000000
    7      N      -2.2102262665     2.6945577754     0.0000000000
    8      C      -2.3995793248    -2.6420616021     0.0000000000
    9      C      -4.6640560358    -1.1648929097     0.0000000000
   10      C      -4.4878393265     1.4051065478     0.0000000000
   11      H      -2.4867924844    -4.6867516752     0.0000000000
   12      H      -6.4947443947    -2.0790860337     0.0000000000
   13      H      -6.1538984074     2.5944746854     0.0000000000
   14      H       2.3432526882    -4.7016054474    -0.0000000000
   15      H       6.4266657394    -2.3097175760    -0.0000000000
   16      H       6.3951035242     2.3693643728    -0.0000000000
   17      H       2.2132101396     4.6817904753    -0.0000000000
 ----------------------------------------------------------------
 Molecular Point Group                 Cs    NOp =  2
 Largest Abelian Subgroup              Cs    NOp =  2
 Nuclear Repulsion Energy =         458.56962217 hartrees
 There are       35 alpha and       33 beta electrons
 Requested basis set is def2-TZVP
 There are 138 shells and 352 basis functions

 Total QAlloc Memory Limit  12000 MB
 Mega-Array Size      2933 MB
 MEM_STATIC part      3000 MB

 A cutoff of  1.0D-09 yielded   8146 shell pairs
 There are     53734 function pairs (     69986 Cartesian)
 Smallest overlap matrix eigenvalue = 8.95E-06

 Q-Chem warning in module stvman/mkSTV.C, line 313:

 Overlap eigenvalue is smaller than square root of threshold
 Use THRESH >= 12 to get rid of this warning


 Scale SEOQF with 1.000000e-01/1.000000e-01/1.000000e+00

 Standard Electronic Orientation quadrupole field applied
 Nucleus-field energy     =     0.0000000148 hartrees
 Guess from superposition of atomic densities
 Warning:  Energy on first SCF cycle will be non-variational
 SAD guess density has 68.000000 electrons

 -----------------------------------------------------------------------
  General SCF calculation program by
  Eric Jon Sundstrom, Paul Horn, Yuezhi Mao, Dmitri Zuev, Alec White,
  David Stuck, Shaama M.S., Shane Yost, Joonho Lee, David Small,
  Daniel Levine, Susi Lehtola, Hugh Burton, Evgeny Epifanovsky,
  Bang C. Huynh
 -----------------------------------------------------------------------
 Hartree-Fock
 Orthonormalizing orbitals
 A restricted open-shell SCF calculation will be
 performed using DIIS, GDM
 SCF converges when RMS gradient is below 1.0e-05
 ---------------------------------------
  Cycle       Energy         DIIS error
 ---------------------------------------
    1    -396.5781026976      3.09e-02  
    2    -396.3847307891      2.99e-02  
    3    -398.7075159200      1.34e-02  
    4    -399.3027653795      3.98e-03  Done DIIS. Switching to GDM
 ---------------------------------------
  Cycle       Energy        RMS Gradient
 ---------------------------------------
    1    -399.3027653795      6.61e-02   Descent step
    2    -399.3553090883      7.64e-02   Normal BFGS step
    3    -399.3739134794      3.45e-02   Normal BFGS step
    4    -399.3786522039      2.82e-02   Normal BFGS step
    5    -399.3809969457      1.99e-02   Normal BFGS step
    6    -399.3819969647      8.37e-03   Normal BFGS step
    7    -399.3825111903      3.88e-03   Normal BFGS step
    8    -399.3826271659      1.64e-03   Normal BFGS step
    9    -399.3826550282      8.36e-04   Normal BFGS step
   10    -399.3826582381      4.26e-04   Normal BFGS step
   11    -399.3826591830      9.07e-05   Normal BFGS step
   12    -399.3826593418      3.73e-05   Normal BFGS step
   13    -399.3826595607      1.61e-05   Normal BFGS step
   14    -399.3826603106      5.45e-06  Convergence criterion met
The disked orbital energies are calculated using alpha and beta Focks
 ---------------------------------------
 Alpha HF Exchange    Energy = -28.34882502428649
 Beta HF Exchange     Energy = -27.46542182525537
 Nuclear Attraction   Energy =   0.00000000000000
 One-Electron (alpha) Energy = -740.48648922337713
 One-Electron (beta)  Energy = -708.47447590732099
 Total Coulomb        Energy = 646.82292948821578
 Final Alpha MO Eigenvalues
            1           2           3           4           5           6
    1 -15.5611834 -11.2853516 -11.2645624 -11.2554244 -11.2515203 -11.2503320
            7           8           9          10          11          12
    1 -11.2541942 -11.2458872 -11.2510193 -11.2343973  -1.2510311  -1.1509689
           13          14          15          16          17          18
    1  -1.0915886  -1.0324038  -1.0155447  -0.9002035  -0.8494516  -0.8347890
           19          20          21          22          23          24
    1  -0.7356495  -0.7062449  -0.6902562  -0.6343977  -0.6268214  -0.5995643
           25          26          27          28          29          30
    1  -0.5768235  -0.5654221  -0.5666910  -0.5304633  -0.5023272  -0.4815402
           31          32          33          34          35          36
    1  -0.4172263  -0.4143652  -0.3646019  -0.3965469  -0.2399094   0.1080848
           37          38          39          40          41          42
    1   0.1127423   0.1517373   0.1630754   0.1739667   0.1887824   0.1965509
           43          44          45          46          47          48
    1   0.2042991   0.2128497   0.2074366   0.2301130   0.2660015   0.2877991
           49          50          51          52          53          54
    1   0.2948296   0.2996666   0.3111620   0.3212232   0.3281754   0.3492084
           55          56          57          58          59          60
    1   0.3512223   0.3595298   0.3763348   0.3748516   0.3966300   0.4046489
           61          62          63          64          65          66
    1   0.4211100   0.4197454   0.4420070   0.4557197   0.4529847   0.4588384
           67          68          69          70          71          72
    1   0.4752832   0.4900547   0.5001617   0.5034621   0.5035662   0.5252772
           73          74          75          76          77          78
    1   0.5332578   0.5571661   0.5614610   0.5741262   0.5740879   0.5812648
           79          80          81          82          83          84
    1   0.5807579   0.6038738   0.6192971   0.6264880   0.6361400   0.6424815
           85          86          87          88          89          90
    1   0.6521836   0.6685195   0.6838264   0.6915699   0.7061325   0.7157265
           91          92          93          94          95          96
    1   0.7330100   0.7463197   0.7780087   0.7910118   0.8274056   0.8443219
           97          98          99         100         101         102
    1   0.8453375   0.8595672   0.8572325   0.8645900   0.8747816   0.8933362
          103         104         105         106         107         108
    1   0.9036217   0.9157941   0.9213902   0.9483700   0.9652206   0.9801817
          109         110         111         112         113         114
    1   0.9906518   1.0045779   1.0194519   1.0349300   1.0621632   1.0881638
          115         116         117         118         119         120
    1   1.0861637   1.0979345   1.1233334   1.1521257   1.1707550   1.1987825
          121         122         123         124         125         126
    1   1.1961244   1.2311612   1.2383189   1.2944284   1.3252023   1.3354176
          127         128         129         130         131         132
    1   1.3437359   1.3647710   1.3873197   1.4121260   1.4251554   1.4311305
          133         134         135         136         137         138
    1   1.4454212   1.4454105   1.4646703   1.4970713   1.5091006   1.5291107
          139         140         141         142         143         144
    1   1.5326862   1.5550125   1.5774416   1.6119517   1.6284402   1.6692346
          145         146         147         148         149         150
    1   1.6789877   1.7057541   1.7001174   1.7178701   1.7327420   1.7523375
          151         152         153         154         155         156
    1   1.7630870   1.7657028   1.7966317   1.8121035   1.8235405   1.8339022
          157         158         159         160         161         162
    1   1.8580602   1.8779048   1.8931307   1.9007806   1.9412518   1.9483927
          163         164         165         166         167         168
    1   1.9679229   1.9789855   1.9874348   2.0113616   2.0146892   2.0301372
          169         170         171         172         173         174
    1   2.0589441   2.0720457   2.0925704   2.1247325   2.1483423   2.2093406
          175         176         177         178         179         180
    1   2.2118404   2.2326413   2.2596569   2.2635219   2.2870119   2.3025373
          181         182         183         184         185         186
    1   2.3378713   2.3429665   2.3958118   2.4257500   2.4366160   2.4478182
          187         188         189         190         191         192
    1   2.4538372   2.4759033   2.5111663   2.5395493   2.5435905   2.5771510
          193         194         195         196         197         198
    1   2.5792450   2.6168396   2.6427945   2.6683250   2.7208411   2.7403833
          199         200         201         202         203         204
    1   2.7567885   2.7916187   2.7965387   2.8161608   2.8381603   2.8680111
          205         206         207         208         209         210
    1   2.8852459   2.9013033   2.9142113   2.9202802   2.9498901   2.9519732
          211         212         213         214         215         216
    1   2.9688171   2.9727777   2.9790249   3.0045128   3.0229362   3.0377234
          217         218         219         220         221         222
    1   3.0469628   3.0517185   3.0713578   3.0800190   3.1015924   3.1126206
          223         224         225         226         227         228
    1   3.1316723   3.1302064   3.1619054   3.1652836   3.1761993   3.2038021
          229         230         231         232         233         234
    1   3.2154438   3.2228287   3.2222635   3.2553575   3.2863370   3.2882410
          235         236         237         238         239         240
    1   3.3034381   3.3241202   3.3287002   3.3618896   3.3651725   3.3984416
          241         242         243         244         245         246
    1   3.4020413   3.4174664   3.4182486   3.4460567   3.4494309   3.4709636
          247         248         249         250         251         252
    1   3.4812450   3.5096595   3.5152707   3.5171748   3.5599242   3.5685115
          253         254         255         256         257         258
    1   3.5833988   3.5922844   3.6092747   3.6108160   3.6097388   3.6191895
          259         260         261         262         263         264
    1   3.6457922   3.6588363   3.6770104   3.6922284   3.6959953   3.7152729
          265         266         267         268         269         270
    1   3.7314427   3.7506305   3.7754061   3.7755744   3.8087873   3.8288810
          271         272         273         274         275         276
    1   3.8321119   3.8492158   3.8533046   3.8769431   3.8985119   3.9274390
          277         278         279         280         281         282
    1   3.9423545   3.9657436   4.0074949   4.0486332   4.0679450   4.0879975
          283         284         285         286         287         288
    1   4.1140004   4.1616534   4.1644631   4.1865911   4.1999484   4.2213313
          289         290         291         292         293         294
    1   4.2659057   4.2997523   4.3193924   4.3832567   4.3910358   4.3988990
          295         296         297         298         299         300
    1   4.4279684   4.4443630   4.4549460   4.4721496   4.5271528   4.5425612
          301         302         303         304         305         306
    1   4.5491135   4.5536355   4.5862276   4.5934201   4.6288058   4.6524979
          307         308         309         310         311         312
    1   4.6697038   4.7249762   4.7715452   4.8098836   4.8101749   4.9128372
          313         314         315         316         317         318
    1   4.9323942   4.9454857   4.9568852   5.0327929   5.0559484   5.1171281
          319         320         321         322         323         324
    1   5.1479503   5.1841694   5.2355318   5.2633170   5.3000251   5.3182992
          325         326         327         328         329         330
    1   5.3549036   5.3729792   5.4676863   5.4960879   5.5544633   5.5850948
          331         332         333         334         335         336
    1   5.5988856   5.6375688   5.7019572   5.7109475   5.8123255   5.8312474
          337         338         339         340         341         342
    1   5.9254747   6.0421208   6.1642334   6.1762921   6.2822271   6.6386172
          343         344         345         346         347         348
    1  23.2501329  23.5014920  23.6108032  23.7169792  23.8399141  23.9051188
          349         350         351         352
    1  23.9185127  24.0234641  24.5166501  33.8478015
 Final Beta MO Eigenvalues
            1           2           3           4           5           6
    1 -15.5588561 -11.2849787 -11.2637911 -11.2533006 -11.2511124 -11.2483906
            7           8           9          10          11          12
    1 -11.2402129 -11.2436083 -11.2365494 -11.2337788  -1.2402864  -1.1225353
           13          14          15          16          17          18
    1  -1.0760323  -1.0235044  -0.9666914  -0.8790741  -0.8400796  -0.8119118
           19          20          21          22          23          24
    1  -0.7220274  -0.6979317  -0.6823730  -0.6315251  -0.6131058  -0.5892901
           25          26          27          28          29          30
    1  -0.5698541  -0.5587334  -0.5290288  -0.5210252  -0.4940957  -0.4146450
           31          32          33          34          35          36
    1  -0.4123440  -0.3689344  -0.3352878   0.0269400   0.1487056   0.1442035
           37          38          39          40          41          42
    1   0.1463585   0.1539873   0.1643164   0.1756035   0.1905467   0.1985013
           43          44          45          46          47          48
    1   0.2059785   0.2181785   0.2514334   0.2332342   0.2740016   0.2924497
           49          50          51          52          53          54
    1   0.3109921   0.3049181   0.3172638   0.3245809   0.3447199   0.3569001
           55          56          57          58          59          60
    1   0.3549477   0.3639433   0.3858955   0.4103872   0.4129037   0.4095274
           61          62          63          64          65          66
    1   0.4265245   0.4310851   0.4479299   0.4611606   0.4771095   0.4760697
           67          68          69          70          71          72
    1   0.4799758   0.4951569   0.5070950   0.5186585   0.5251914   0.5391438
           73          74          75          76          77          78
    1   0.5394006   0.5608223   0.5705522   0.5792311   0.5860400   0.5852695
           79          80          81          82          83          84
    1   0.5887105   0.6096087   0.6267452   0.6378894   0.6588774   0.6478196
           85          86          87          88          89          90
    1   0.6552584   0.6732934   0.6972141   0.6954155   0.7099505   0.7225942
           91          92          93          94          95          96
    1   0.7454215   0.7513432   0.7854299   0.7962831   0.8306442   0.8475611
           97          98          99         100         101         102
    1   0.8495691   0.8667852   0.8724227   0.8712376   0.8784483   0.8997119
          103         104         105         106         107         108
    1   0.9260309   0.9223280   0.9543879   0.9534613   0.9804479   0.9852910
          109         110         111         112         113         114
    1   0.9960339   1.0209239   1.0230399   1.0488831   1.0667717   1.0947302
          115         116         117         118         119         120
    1   1.1057284   1.1122692   1.1307316   1.1581585   1.1767470   1.2046119
          121         122         123         124         125         126
    1   1.2160664   1.2450260   1.2522497   1.3053109   1.3431901   1.3394382
          127         128         129         130         131         132
    1   1.3540388   1.3697148   1.3943183   1.4203676   1.4451255   1.4397722
          133         134         135         136         137         138
    1   1.4489982   1.4590339   1.4680312   1.5015193   1.5133584   1.5429480
          139         140         141         142         143         144
    1   1.5364097   1.5627206   1.5837616   1.6180341   1.6332038   1.6914860
          145         146         147         148         149         150
    1   1.6821639   1.7091647   1.7232597   1.7223620   1.7387163   1.7608207
          151         152         153         154         155         156
    1   1.7678750   1.8041515   1.8012431   1.8220259   1.8266773   1.8388321
          157         158         159         160         161         162
    1   1.8614914   1.8878955   1.9038439   1.9030528   1.9451388   1.9787574
          163         164         165         166         167         168
    1   1.9739939   1.9899187   1.9928202   2.0175301   2.0187340   2.0393230
          169         170         171         172         173         174
    1   2.0617196   2.0743305   2.1015193   2.1414195   2.1573229   2.2185419
          175         176         177         178         179         180
    1   2.2181114   2.2365672   2.2684191   2.2661750   2.2936290   2.3070539
          181         182         183         184         185         186
    1   2.3425896   2.3488844   2.4049468   2.4347657   2.4477838   2.4570228
          187         188         189         190         191         192
    1   2.4596458   2.4816695   2.5164718   2.5446108   2.5484125   2.5862148
          193         194         195         196         197         198
    1   2.5837509   2.6214536   2.6578182   2.6713625   2.7321165   2.7525034
          199         200         201         202         203         204
    1   2.7601062   2.8007225   2.8059514   2.8192621   2.8440122   2.8709976
          205         206         207         208         209         210
    1   2.8908249   2.9063004   2.9305697   2.9262407   2.9524195   2.9591052
          211         212         213         214         215         216
    1   2.9786940   2.9863291   2.9821768   3.0176057   3.0295246   3.0432369
          217         218         219         220         221         222
    1   3.0538934   3.0580766   3.0821426   3.0841468   3.1089788   3.1185118
          223         224         225         226         227         228
    1   3.1392833   3.1431266   3.1656740   3.1781517   3.1792876   3.2104273
          229         230         231         232         233         234
    1   3.2283481   3.2277703   3.2330187   3.2714035   3.2915207   3.2927610
          235         236         237         238         239         240
    1   3.3104553   3.3306979   3.3400398   3.3660257   3.3736264   3.4075488
          241         242         243         244         245         246
    1   3.4084088   3.4273665   3.4319554   3.4515043   3.4544781   3.4776738
          247         248         249         250         251         252
    1   3.4947255   3.5198887   3.5208401   3.5329508   3.5629968   3.5746754
          253         254         255         256         257         258
    1   3.5872842   3.5952390   3.6159996   3.6135619   3.6251389   3.6299901
          259         260         261         262         263         264
    1   3.6483209   3.6730777   3.6810413   3.6971127   3.7104887   3.7179706
          265         266         267         268         269         270
    1   3.7414805   3.7561276   3.7795172   3.7838198   3.8135048   3.8335789
          271         272         273         274         275         276
    1   3.8423844   3.8592567   3.8586436   3.8860332   3.9020092   3.9297174
          277         278         279         280         281         282
    1   3.9491151   3.9705136   4.0109099   4.0524853   4.0768482   4.0913164
          283         284         285         286         287         288
    1   4.1199933   4.1657493   4.1707143   4.1907185   4.2089816   4.2253803
          289         290         291         292         293         294
    1   4.2701892   4.3058738   4.3239126   4.3896582   4.3969796   4.4112775
          295         296         297         298         299         300
    1   4.4350494   4.4478891   4.4593143   4.4848679   4.5310961   4.5459324
          301         302         303         304         305         306
    1   4.5574281   4.5568454   4.5900911   4.5996375   4.6336400   4.6545570
          307         308         309         310         311         312
    1   4.6762561   4.7311309   4.7737882   4.8135420   4.8148384   4.9210611
          313         314         315         316         317         318
    1   4.9362703   4.9494963   4.9600508   5.0409410   5.0594681   5.1219904
          319         320         321         322         323         324
    1   5.1529664   5.1866027   5.2388901   5.2666398   5.3033731   5.3243667
          325         326         327         328         329         330
    1   5.3605628   5.3770202   5.4705955   5.4991710   5.5572979   5.5879548
          331         332         333         334         335         336
    1   5.6025158   5.6414883   5.7051658   5.7132737   5.8144241   5.8337672
          337         338         339         340         341         342
    1   5.9293530   6.0453057   6.1656549   6.1786308   6.2833765   6.6399449
          343         344         345         346         347         348
    1  23.2527522  23.5032214  23.6155962  23.7202563  23.8439517  23.9084238
          349         350         351         352
    1  23.9198817  24.0243877  24.5175432  33.8491208
 SCF time:   CPU 580.34s  wall 582.00s 
<S^2> =          2.000000000
 SCF   energy in the final basis set =     -399.3826603106
 Total energy in the final basis set =     -399.3826603106
  
     ##========================================##
     ||                                        ||
     ||              R A S M A N 2             ||
     ||________________________________________||
     ||                                        ||
     ||  Author:                               ||
     ||                                        ||
     ||        David Casanova (2010)           ||
     ||                                        ||
     ##========================================##
  
Setting single-point xc-functionals (if necessary)

  ***************************************************
  *  RAS-CI Dimensions:                             *
  *                                                 *
  *  Active Elec.:   4 ( 2, 2)   Active Orb.:   4   *
  *  Doubly Occ. :  32           Doubly Vir.: 316   *
  *  Frozen Occ. :   0           Frozen Vir.:   0   *
  *                                                 *
  *  Total CI configurations:     16740             * 
  *    Active configurations:        36             * 
  *      Hole configurations:      1536             * 
  *  Particle configurations:     15168             * 
  *                                                 *
  *   Requested states:       50                    *
  *  Spin multiplicity: Any multiplicity            *
  *                                                 *
  ***************************************************
-----------------------------------------
    Memory requirements of RASCI

 Each CI-vector requires      0.13 MiB 
 Max. subspace vectors           7500      

 Reduced Lists                0.00 MiB 
 Excitation Lists             0.00 MiB 
 Excitation Lists Sign        0.00 MiB 
 CI-space (Max)            1393.47 MiB 
 Integrals                   36.28 MiB 
 Memory required (Max)     1393.47 MiB 
 Memory available          2861.02 MiB 

    Disk requirements of RASCI

 Fock matrix                  1.89 MiB 
 2-electron integrals        52.07 MiB 
 CI-space                  1915.74 MiB 
 Disk required             1969.70 MiB 
-----------------------------------------
  
RAS1 HF-like energy:           -396.7880234597
 Computing integrals
 Computing J and K matrices
 Computing addressing
 Making amplitude guesses
 
Direct CI diagonalization
 ---------------------------------------------------
 Iter    Rts Conv    Rts Left    Ttl Dev     Max Dev
 ---------------------------------------------------
   1         0          50      0.054700    0.001875
   2         0          50      0.038328    0.002020
   3         0          50      0.040662    0.001619
   4         0          50      0.041178    0.001760
   5         0          50      0.031325    0.001609
   6         0          50      0.025776    0.001910
   7         0          50      0.019582    0.001191
   8         1          49      0.015067    0.001468
   9         1          49      0.009658    0.000960
  10         2          48      0.007825    0.001404
  11         2          48      0.007181    0.001136
  12         6          44      0.005880    0.000912
  13         8          42      0.005660    0.000787
  14        11          39      0.004125    0.000558
  15        18          32      0.002776    0.000471
  16        25          25      0.002734    0.000502
  17        27          23      0.002559    0.000646
  18        28          22      0.002105    0.000397
  19        29          21      0.001640    0.000262
  20        29          21      0.001237    0.000205
  21        30          20      0.000925    0.000248
  22        31          19      0.000856    0.000318
  23        33          17      0.000666    0.000227
  24        35          15      0.000450    0.000166
  25        36          14      0.000285    0.000105
  26        37          13      0.000176    0.000067
  27        39          11      0.000149    0.000042
  28        41           9      0.000093    0.000025
  29        43           7      0.000061    0.000016
  30        44           6      0.000040    0.000009
  31        46           4      0.000029    0.000006
  32        47           3      0.000022    0.000003
  33        48           2      0.000019    0.000002
  34        48           2      0.000017    0.000001
  35        50           0      0.000016    0.000001    Roots Converged
 ---------------------------------------------------
   
**************************************************
 RAS-CI total energy for state   1:   -399.486600562596
  Excitation energy (eV) =  0.000000000000
  State symmetry: A'    (Cs       )
  <S^2>      :  0.0000
  Dipole Moment:   -0.0153 X     0.8353 Y     0.0000 Z
 NATURAL OCCUPATION NUMBERS (higher than 1.0E-05)
            1           2           3           4           5           6
    1   2.0000000   2.0000000   2.0000000   2.0000000   2.0000000   2.0000000
            7           8           9          10          11          12
    1   2.0000000   2.0000000   2.0000000   2.0000000   2.0000000   2.0000000
           13          14          15          16          17          18
    1   2.0000000   2.0000000   2.0000000   2.0000000   2.0000000   2.0000000
           19          20          21          22          23          24
    1   2.0000000   2.0000000   2.0000000   2.0000000   2.0000000   2.0000000
           25          26          27          28          29          30
    1   2.0000000   2.0000000   2.0000000   2.0000000   2.0000000   1.9994125
           31          32          33          34          35          36
    1   1.9975343   1.9955539   1.9625494   1.8941173   0.1074048   0.0315403
           37          38          39          40          41          42
    1   0.0068800   0.0024044   0.0009831   0.0006875   0.0004446   0.0001859
           43          44          45          46          47
    1   0.0001266   0.0000770   0.0000453   0.0000186   0.0000159

 Head-Gordon Nu:    0.30
 Head-Gordon Nu_nl: 0.09

  Amplitudes : 
  
 | HOLE  | ALPHA | BETA  | PART  |    AMPLITUDE 
--------------------------------------------------
 |       | 1100  | 1100  |       |     9.3569473923453E-01
 |       | 1010  | 1010  |       |    -1.9147616762298E-01
--------------------------------------------------
*** Contributions RASCI wfn    Active:  92.84
                                 Hole:   2.98
                                 Part:   4.18

      Mulliken population analysis 
 ---------------------------------------------------
   Atom    Charge (a.u.)   Spin (a.u.)  
 ---------------------------------------------------
   1  C   -0.023916       -0.000000 
   2  C    0.306688       -0.000000 
   3  C   -0.139397       -0.000000 
   4  C   -0.156855        0.000000 
   5  C   -0.091512       -0.000000 
   6  C   -0.261862        0.000000 
   7  N   -0.332511        0.000000 
   8  C   -0.170407       -0.000000 
   9  C   -0.105243       -0.000000 
  10  C    0.034663       -0.000000 
  11  H    0.134974       -0.000000 
  12  H    0.130739        0.000000 
  13  H    0.127407       -0.000000 
  14  H    0.142162       -0.000000 
  15  H    0.131033        0.000000 
  16  H    0.131063       -0.000000 
  17  H    0.142974       -0.000000 
 ---------------------------------------------------
   Sum:    0.000000        0.000000 
 ---------------------------------------------------
 
  
 NATURAL OCCUPATION NUMBERS (higher than 1.0E-05)
            1           2           3           4           5           6
    1   2.0000000   2.0000000   2.0000000   2.0000000   2.0000000   2.0000000
            7           8           9          10          11          12
    1   2.0000000   2.0000000   2.0000000   2.0000000   2.0000000   2.0000000
           13          14          15          16          17          18
    1   2.0000000   2.0000000   2.0000000   2.0000000   2.0000000   2.0000000
           19          20          21          22          23          24
    1   2.0000000   2.0000000   2.0000000   2.0000000   2.0000000   2.0000000
           25          26          27          28          29          30
    1   2.0000000   2.0000000   2.0000000   2.0000000   2.0000000   1.9994125
           31          32          33          34          35          36
    1   1.9975343   1.9955539   1.9625494   1.8941173   0.1074048   0.0315403
           37          38          39          40          41          42
    1   0.0068800   0.0024044   0.0009831   0.0006875   0.0004446   0.0001859
           43          44          45          46          47
    1   0.0001266   0.0000770   0.0000453   0.0000186   0.0000159
  
*** Unpaired Electrons
 Yamaguchi Nd:         0.58
 Head-Gordon Nu:       0.30
 Head-Gordon Nu_nl:    0.09
  
**************************************************
 RAS-CI total energy for state   2:   -399.400562917963
  Excitation energy (eV) =  2.341203427179
  State symmetry: A'    (Cs       )
  <S^2>      :  2.0000
  Dipole Moment:   -0.5491 X     0.8087 Y     0.0000 Z
  Trans. Moment:    0.0000 X     0.0000 Y     0.0000 Z
  Strength   :  0.000000
  Natural transition orbitals ( 1 -> 2 ):
   e-/hole pair  1:  ampl =  0.942331 ( 88.8%)   [4 : 5]
   e-/hole pair  2:  ampl =  0.193550 (  3.7%)   [3 : 6]
   Sum of square amplitudes: 0.94

 NATURAL OCCUPATION NUMBERS (higher than 1.0E-05)
            1           2           3           4           5           6
    1   2.0000000   2.0000000   2.0000000   2.0000000   2.0000000   2.0000000
            7           8           9          10          11          12
    1   2.0000000   2.0000000   2.0000000   2.0000000   2.0000000   2.0000000
           13          14          15          16          17          18
    1   2.0000000   2.0000000   2.0000000   2.0000000   2.0000000   2.0000000
           19          20          21          22          23          24
    1   2.0000000   2.0000000   2.0000000   2.0000000   2.0000000   2.0000000
           25          26          27          28          29          30
    1   2.0000000   2.0000000   2.0000000   2.0000000   2.0000000   1.9992106
           31          32          33          34          35          36
    1   1.9946297   1.9884056   1.9635643   1.0099430   0.9901405   0.0450927
           37          38          39          40          41          42
    1   0.0042755   0.0027489   0.0008431   0.0004477   0.0002070   0.0001833
           43          44          45          46          47
    1   0.0001281   0.0000711   0.0000512   0.0000304   0.0000139

 Head-Gordon Nu:    2.09
 Head-Gordon Nu_nl: 2.01

  Amplitudes : 
  
 | HOLE  | ALPHA | BETA  | PART  |    AMPLITUDE 
--------------------------------------------------
 |       | 1100  | 1010  |       |     6.8152960058510E-01
 |       | 1010  | 1100  |       |    -6.8152960058509E-01
--------------------------------------------------
*** Contributions RASCI wfn    Active:  95.97
                                 Hole:   2.89
                                 Part:   1.13

      Mulliken population analysis 
 ---------------------------------------------------
   Atom    Charge (a.u.)   Spin (a.u.)  
 ---------------------------------------------------
   1  C   -0.020550       -0.000000 
   2  C    0.355249        0.000000 
   3  C   -0.116434        0.000000 
   4  C   -0.147001       -0.000000 
   5  C   -0.090034       -0.000000 
   6  C   -0.232497       -0.000000 
   7  N   -0.365636       -0.000000 
   8  C   -0.206605        0.000000 
   9  C   -0.108513       -0.000000 
  10  C   -0.006717       -0.000000 
  11  H    0.134609       -0.000000 
  12  H    0.130671       -0.000000 
  13  H    0.126990       -0.000000 
  14  H    0.141902        0.000000 
  15  H    0.130901       -0.000000 
  16  H    0.130906       -0.000000 
  17  H    0.142760       -0.000000 
 ---------------------------------------------------
   Sum:    0.000000        0.000000 
 ---------------------------------------------------
 
  
 NATURAL OCCUPATION NUMBERS (higher than 1.0E-05)
            1           2           3           4           5           6
    1   2.0000000   2.0000000   2.0000000   2.0000000   2.0000000   2.0000000
            7           8           9          10          11          12
    1   2.0000000   2.0000000   2.0000000   2.0000000   2.0000000   2.0000000
           13          14          15          16          17          18
    1   2.0000000   2.0000000   2.0000000   2.0000000   2.0000000   2.0000000
           19          20          21          22          23          24
    1   2.0000000   2.0000000   2.0000000   2.0000000   2.0000000   2.0000000
           25          26          27          28          29          30
    1   2.0000000   2.0000000   2.0000000   2.0000000   2.0000000   1.9992106
           31          32          33          34          35          36
    1   1.9946297   1.9884056   1.9635643   1.0099430   0.9901405   0.0450927
           37          38          39          40          41          42
    1   0.0042755   0.0027489   0.0008431   0.0004477   0.0002070   0.0001833
           43          44          45          46          47
    1   0.0001281   0.0000711   0.0000512   0.0000304   0.0000139
  
*** Unpaired Electrons
 Yamaguchi Nd:         2.21
 Head-Gordon Nu:       2.09
 Head-Gordon Nu_nl:    2.01
  
**************************************************
 RAS-CI total energy for state   3:   -399.330774543397
  Excitation energy (eV) =  4.240241719186
  State symmetry: A'    (Cs       )
  <S^2>      :  2.0000
  Dipole Moment:   -0.2827 X     0.6893 Y     0.0000 Z
  Trans. Moment:   -0.0000 X    -0.0000 Y    -0.0000 Z
  Strength   :  0.000000
  Natural transition orbitals ( 1 -> 3 ):
   e-/hole pair  1:  ampl =  0.832713 ( 69.3%)   [4 : 5]
   e-/hole pair  2:  ampl =  0.419735 ( 17.6%)   [3 : 6]
   Sum of square amplitudes: 0.88

 NATURAL OCCUPATION NUMBERS (higher than 1.0E-05)
            1           2           3           4           5           6
    1   2.0000000   2.0000000   2.0000000   2.0000000   2.0000000   2.0000000
            7           8           9          10          11          12
    1   2.0000000   2.0000000   2.0000000   2.0000000   2.0000000   2.0000000
           13          14          15          16          17          18
    1   2.0000000   2.0000000   2.0000000   2.0000000   2.0000000   2.0000000
           19          20          21          22          23          24
    1   2.0000000   2.0000000   2.0000000   2.0000000   2.0000000   2.0000000
           25          26          27          28          29          30
    1   2.0000000   2.0000000   2.0000000   2.0000000   2.0000000   1.9979087
           31          32          33          34          35          36
    1   1.9925221   1.9788840   1.7081377   1.2121644   0.8132648   0.2547137
           37          38          39          40          41          42
    1   0.0235339   0.0126056   0.0032527   0.0013535   0.0005533   0.0004651
           43          44          45          46          47          48
    1   0.0001857   0.0001777   0.0000908   0.0000650   0.0000441   0.0000230
           49          50
    1   0.0000155   0.0000141

 Head-Gordon Nu:    2.22
 Head-Gordon Nu_nl: 2.29

  Amplitudes : 
  
 | HOLE  | ALPHA | BETA  | PART  |    AMPLITUDE 
--------------------------------------------------
 |       | 1100  | 1010  |       |    -1.0108044322606E-01
 |       | 1100  | 1001  |       |     2.7367943036549E-01
 |       | 1100  | 0110  |       |     5.0337075106747E-01
 |       | 1100  | 0101  |       |     2.3681903906251E-01
 |       | 1010  | 1100  |       |     1.0108044322603E-01
 |       | 1001  | 1100  |       |    -2.7367943036552E-01
 |       | 0110  | 1100  |       |    -5.0337075106746E-01
 |       | 0101  | 1100  |       |    -2.3681903906251E-01
 |       | 1000  | 0110  |  45   |     1.2726456505387E-01
 |       | 0110  | 1000  |  45   |    -1.2726456505387E-01
--------------------------------------------------
*** Contributions RASCI wfn    Active:  82.20
                                 Hole:   8.30
                                 Part:   9.50

      Mulliken population analysis 
 ---------------------------------------------------
   Atom    Charge (a.u.)   Spin (a.u.)  
 ---------------------------------------------------
   1  C    0.073728        0.000000 
   2  C    0.383387       -0.000000 
   3  C   -0.207097       -0.000000 
   4  C   -0.116918       -0.000000 
   5  C   -0.043961        0.000000 
   6  C   -0.307718       -0.000000 
   7  N   -0.424772       -0.000000 
   8  C   -0.322835        0.000000 
   9  C   -0.024236        0.000000 
  10  C    0.052452        0.000000 
  11  H    0.133598        0.000000 
  12  H    0.131113       -0.000000 
  13  H    0.127050        0.000000 
  14  H    0.141555       -0.000000 
  15  H    0.131086       -0.000000 
  16  H    0.131093        0.000000 
  17  H    0.142476       -0.000000 
 ---------------------------------------------------
   Sum:    0.000000       -0.000000 
 ---------------------------------------------------
 
  
 NATURAL OCCUPATION NUMBERS (higher than 1.0E-05)
            1           2           3           4           5           6
    1   2.0000000   2.0000000   2.0000000   2.0000000   2.0000000   2.0000000
            7           8           9          10          11          12
    1   2.0000000   2.0000000   2.0000000   2.0000000   2.0000000   2.0000000
           13          14          15          16          17          18
    1   2.0000000   2.0000000   2.0000000   2.0000000   2.0000000   2.0000000
           19          20          21          22          23          24
    1   2.0000000   2.0000000   2.0000000   2.0000000   2.0000000   2.0000000
           25          26          27          28          29          30
    1   2.0000000   2.0000000   2.0000000   2.0000000   2.0000000   1.9979087
           31          32          33          34          35          36
    1   1.9925221   1.9788840   1.7081377   1.2121644   0.8132648   0.2547137
           37          38          39          40          41          42
    1   0.0235339   0.0126056   0.0032527   0.0013535   0.0005533   0.0004651
           43          44          45          46          47          48
    1   0.0001857   0.0001777   0.0000908   0.0000650   0.0000441   0.0000230
           49          50
    1   0.0000155   0.0000141
  
*** Unpaired Electrons
 Yamaguchi Nd:         3.01
 Head-Gordon Nu:       2.22
 Head-Gordon Nu_nl:    2.29
  
**************************************************
 RAS-CI total energy for state   4:   -399.327688342114
  Excitation energy (eV) =  4.324221528839
  State symmetry: A'    (Cs       )
  <S^2>      :  0.0000
  Dipole Moment:   -1.3779 X     0.7791 Y     0.0000 Z
  Trans. Moment:    0.1558 X     0.8624 Y    -0.0000 Z
  Strength   :  0.081364
  Natural transition orbitals ( 1 -> 4 ):
   e-/hole pair  1:  ampl =  0.856316 ( 73.3%)   [4 : 5]
   e-/hole pair  2:  ampl =  0.214137 (  4.6%)   [3 : 6]
   Sum of square amplitudes: 0.79

 NATURAL OCCUPATION NUMBERS (higher than 1.0E-05)
            1           2           3           4           5           6
    1   2.0000000   2.0000000   2.0000000   2.0000000   2.0000000   2.0000000
            7           8           9          10          11          12
    1   2.0000000   2.0000000   2.0000000   2.0000000   2.0000000   2.0000000
           13          14          15          16          17          18
    1   2.0000000   2.0000000   2.0000000   2.0000000   2.0000000   2.0000000
           19          20          21          22          23          24
    1   2.0000000   2.0000000   2.0000000   2.0000000   2.0000000   2.0000000
           25          26          27          28          29          30
    1   2.0000000   2.0000000   2.0000000   2.0000000   2.0000000   1.9988676
           31          32          33          34          35          36
    1   1.9972398   1.9749254   1.8919396   1.0751645   0.9265488   0.0998369
           37          38          39          40          41          42
    1   0.0191481   0.0103322   0.0028894   0.0012918   0.0008052   0.0004102
           43          44          45          46          47          48
    1   0.0002245   0.0001509   0.0000792   0.0000537   0.0000386   0.0000219
           49
    1   0.0000146

 Head-Gordon Nu:    2.12
 Head-Gordon Nu_nl: 2.06

  Amplitudes : 
  
 | HOLE  | ALPHA | BETA  | PART  |    AMPLITUDE 
--------------------------------------------------
 |       | 1100  | 1010  |       |     4.2250597530017E-01
 |       | 1100  | 1001  |       |     4.0289359266716E-01
 |       | 1100  | 0110  |       |    -1.4870885882274E-01
 |       | 1010  | 1100  |       |     4.2250597530017E-01
 |       | 1010  | 0110  |       |     1.1811233048163E-01
 |       | 1001  | 1100  |       |     4.0289359266719E-01
 |       | 1001  | 0110  |       |     1.3701497057930E-01
 |       | 0110  | 1100  |       |    -1.4870885882280E-01
 |       | 0110  | 1010  |       |     1.1811233048163E-01
 |       | 0110  | 1001  |       |     1.3701497057929E-01
 |  30   | 1110  | 1010  |       |     1.4580081387613E-01
 |  30   | 1010  | 1110  |       |     1.4580081387613E-01
 |  30   | 1110  | 1001  |       |     1.0350623303976E-01
 |  30   | 1001  | 1110  |       |     1.0350623303976E-01
--------------------------------------------------
*** Contributions RASCI wfn    Active:  82.58
                                 Hole:   9.91
                                 Part:   7.50

      Mulliken population analysis 
 ---------------------------------------------------
   Atom    Charge (a.u.)   Spin (a.u.)  
 ---------------------------------------------------
   1  C   -0.036150       -0.000000 
   2  C    0.372971        0.000000 
   3  C   -0.024177       -0.000000 
   4  C   -0.166901        0.000000 
   5  C   -0.030099       -0.000000 
   6  C   -0.179518        0.000000 
   7  N   -0.472105        0.000000 
   8  C   -0.341167        0.000000 
   9  C   -0.038390       -0.000000 
  10  C   -0.023568        0.000000 
  11  H    0.133174        0.000000 
  12  H    0.131122       -0.000000 
  13  H    0.126574        0.000000 
  14  H    0.142875       -0.000000 
  15  H    0.130626       -0.000000 
  16  H    0.131302       -0.000000 
  17  H    0.143431        0.000000 
 ---------------------------------------------------
   Sum:    0.000000       -0.000000 
 ---------------------------------------------------
 
  
 NATURAL OCCUPATION NUMBERS (higher than 1.0E-05)
            1           2           3           4           5           6
    1   2.0000000   2.0000000   2.0000000   2.0000000   2.0000000   2.0000000
            7           8           9          10          11          12
    1   2.0000000   2.0000000   2.0000000   2.0000000   2.0000000   2.0000000
           13          14          15          16          17          18
    1   2.0000000   2.0000000   2.0000000   2.0000000   2.0000000   2.0000000
           19          20          21          22          23          24
    1   2.0000000   2.0000000   2.0000000   2.0000000   2.0000000   2.0000000
           25          26          27          28          29          30
    1   2.0000000   2.0000000   2.0000000   2.0000000   2.0000000   1.9988676
           31          32          33          34          35          36
    1   1.9972398   1.9749254   1.8919396   1.0751645   0.9265488   0.0998369
           37          38          39          40          41          42
    1   0.0191481   0.0103322   0.0028894   0.0012918   0.0008052   0.0004102
           43          44          45          46          47          48
    1   0.0002245   0.0001509   0.0000792   0.0000537   0.0000386   0.0000219
           49
    1   0.0000146
  
*** Unpaired Electrons
 Yamaguchi Nd:         2.51
 Head-Gordon Nu:       2.12
 Head-Gordon Nu_nl:    2.06
  
**************************************************
 RAS-CI total energy for state   5:   -399.305541892550
  Excitation energy (eV) =  4.926857082614
  State symmetry: A'    (Cs       )
  <S^2>      :  2.0000
  Dipole Moment:   -0.3419 X     0.7518 Y     0.0000 Z
  Trans. Moment:   -0.0000 X    -0.0000 Y     0.0000 Z
  Strength   :  0.000000
  Natural transition orbitals ( 1 -> 5 ):
   e-/hole pair  1:  ampl =  0.799523 ( 63.9%)   [4 : 5]
   e-/hole pair  2:  ampl =  0.476729 ( 22.7%)   [3 : 6]
   Sum of square amplitudes: 0.88

 NATURAL OCCUPATION NUMBERS (higher than 1.0E-05)
            1           2           3           4           5           6
    1   2.0000000   2.0000000   2.0000000   2.0000000   2.0000000   2.0000000
            7           8           9          10          11          12
    1   2.0000000   2.0000000   2.0000000   2.0000000   2.0000000   2.0000000
           13          14          15          16          17          18
    1   2.0000000   2.0000000   2.0000000   2.0000000   2.0000000   2.0000000
           19          20          21          22          23          24
    1   2.0000000   2.0000000   2.0000000   2.0000000   2.0000000   2.0000000
           25          26          27          28          29          30
    1   2.0000000   2.0000000   2.0000000   2.0000000   2.0000000   1.9978831
           31          32          33          34          35          36
    1   1.9853326   1.9573857   1.6999921   1.2550716   0.7309206   0.3450926
           37          38          39          40          41          42
    1   0.0159908   0.0060313   0.0027415   0.0013546   0.0006624   0.0004832
           43          44          45          46          47          48
    1   0.0003339   0.0002589   0.0001520   0.0001079   0.0000705   0.0000551
           49          50          51
    1   0.0000288   0.0000169   0.0000159

 Head-Gordon Nu:    2.21
 Head-Gordon Nu_nl: 2.33

  Amplitudes : 
  
 | HOLE  | ALPHA | BETA  | PART  |    AMPLITUDE 
--------------------------------------------------
 |       | 1100  | 1010  |       |     1.0334708280281E-01
 |       | 1100  | 1001  |       |    -4.9570098694318E-01
 |       | 1100  | 0110  |       |     2.7834777185739E-01
 |       | 1100  | 0101  |       |     1.5430493900965E-01
 |       | 1010  | 1100  |       |    -1.0334708280350E-01
 |       | 1001  | 1100  |       |     4.9570098694349E-01
 |       | 0110  | 1100  |       |    -2.7834777185848E-01
 |       | 0101  | 1100  |       |    -1.5430493900998E-01
 |  32   | 1110  | 1100  |       |     1.7881276629903E-01
 |  32   | 1100  | 1110  |       |    -1.7881276629914E-01
 |  32   | 1101  | 1100  |       |     1.8790414871774E-01
 |  32   | 1100  | 1101  |       |    -1.8790414871763E-01
--------------------------------------------------
*** Contributions RASCI wfn    Active:  75.30
                                 Hole:  19.12
                                 Part:   5.58

      Mulliken population analysis 
 ---------------------------------------------------
   Atom    Charge (a.u.)   Spin (a.u.)  
 ---------------------------------------------------
   1  C   -0.141079        0.000000 
   2  C    0.391188       -0.000000 
   3  C   -0.077714        0.000000 
   4  C   -0.139036       -0.000000 
   5  C   -0.073101        0.000000 
   6  C   -0.264500        0.000000 
   7  N   -0.347534       -0.000000 
   8  C   -0.262129        0.000000 
   9  C    0.020780       -0.000000 
  10  C   -0.045107        0.000000 
  11  H    0.133500        0.000000 
  12  H    0.131400       -0.000000 
  13  H    0.126484        0.000000 
  14  H    0.142212        0.000000 
  15  H    0.130992       -0.000000 
  16  H    0.130929        0.000000 
  17  H    0.142714        0.000000 
 ---------------------------------------------------
   Sum:    0.000000       -0.000000 
 ---------------------------------------------------
 
  
 NATURAL OCCUPATION NUMBERS (higher than 1.0E-05)
            1           2           3           4           5           6
    1   2.0000000   2.0000000   2.0000000   2.0000000   2.0000000   2.0000000
            7           8           9          10          11          12
    1   2.0000000   2.0000000   2.0000000   2.0000000   2.0000000   2.0000000
           13          14          15          16          17          18
    1   2.0000000   2.0000000   2.0000000   2.0000000   2.0000000   2.0000000
           19          20          21          22          23          24
    1   2.0000000   2.0000000   2.0000000   2.0000000   2.0000000   2.0000000
           25          26          27          28          29          30
    1   2.0000000   2.0000000   2.0000000   2.0000000   2.0000000   1.9978831
           31          32          33          34          35          36
    1   1.9853326   1.9573857   1.6999921   1.2550716   0.7309206   0.3450926
           37          38          39          40          41          42
    1   0.0159908   0.0060313   0.0027415   0.0013546   0.0006624   0.0004832
           43          44          45          46          47          48
    1   0.0003339   0.0002589   0.0001520   0.0001079   0.0000705   0.0000551
           49          50          51
    1   0.0000288   0.0000169   0.0000159
  
*** Unpaired Electrons
 Yamaguchi Nd:         3.12
 Head-Gordon Nu:       2.21
 Head-Gordon Nu_nl:    2.33
  
**************************************************
 RAS-CI total energy for state   6:   -399.305325268180
  Excitation energy (eV) =  4.932751731647
  State symmetry: A'    (Cs       )
  <S^2>      :  0.0000
  Dipole Moment:   -0.1660 X     0.8474 Y     0.0000 Z
  Trans. Moment:    0.8395 X     0.5044 Y     0.0000 Z
  Strength   :  0.115928
  Natural transition orbitals ( 1 -> 6 ):
   e-/hole pair  1:  ampl =  0.812314 ( 66.0%)   [4 : 5]
   e-/hole pair  2:  ampl =  0.408958 ( 16.7%)   [3 : 6]
   Sum of square amplitudes: 0.84

 NATURAL OCCUPATION NUMBERS (higher than 1.0E-05)
            1           2           3           4           5           6
    1   2.0000000   2.0000000   2.0000000   2.0000000   2.0000000   2.0000000
            7           8           9          10          11          12
    1   2.0000000   2.0000000   2.0000000   2.0000000   2.0000000   2.0000000
           13          14          15          16          17          18
    1   2.0000000   2.0000000   2.0000000   2.0000000   2.0000000   2.0000000
           19          20          21          22          23          24
    1   2.0000000   2.0000000   2.0000000   2.0000000   2.0000000   2.0000000
           25          26          27          28          29          30
    1   2.0000000   2.0000000   2.0000000   2.0000000   2.0000000   1.9926752
           31          32          33          34          35          36
    1   1.9902718   1.9731970   1.7212866   1.2276673   0.7983623   0.2192852
           37          38          39          40          41          42
    1   0.0456721   0.0275994   0.0015397   0.0010866   0.0003982   0.0003024
           43          44          45          46          47          48
    1   0.0002029   0.0001892   0.0000880   0.0000703   0.0000450   0.0000212
           49
    1   0.0000187

 Head-Gordon Nu:    2.19
 Head-Gordon Nu_nl: 2.22

  Amplitudes : 
  
 | HOLE  | ALPHA | BETA  | PART  |    AMPLITUDE 
--------------------------------------------------
 |       | 1100  | 1010  |       |     2.7884101061845E-01
 |       | 1100  | 1001  |       |    -1.4902184246369E-01
 |       | 1100  | 0110  |       |     4.6618812907780E-01
 |       | 1100  | 0101  |       |     1.3638966563531E-01
 |       | 1010  | 1100  |       |     2.7884101061821E-01
 |       | 1001  | 1100  |       |    -1.4902184246253E-01
 |       | 0110  | 1100  |       |     4.6618812907715E-01
 |       | 0101  | 1100  |       |     1.3638966563494E-01
 |       | 1000  | 1100  |  37   |     2.5613497276792E-01
 |       | 1100  | 1000  |  37   |     2.5613497276779E-01
 |       | 1000  | 0110  |  45   |     1.3490813476731E-01
 |       | 0110  | 1000  |  45   |     1.3490813476725E-01
--------------------------------------------------
*** Contributions RASCI wfn    Active:  68.76
                                 Hole:   5.48
                                 Part:  25.75

      Mulliken population analysis 
 ---------------------------------------------------
   Atom    Charge (a.u.)   Spin (a.u.)  
 ---------------------------------------------------
   1  C    0.016326       -0.000000 
   2  C    0.350824        0.000000 
   3  C   -0.160161       -0.000000 
   4  C   -0.125607        0.000000 
   5  C   -0.102620       -0.000000 
   6  C   -0.278551       -0.000000 
   7  N   -0.377914        0.000000 
   8  C   -0.188575       -0.000000 
   9  C   -0.139838        0.000000 
  10  C    0.068409       -0.000000 
  11  H    0.134694       -0.000000 
  12  H    0.130137        0.000000 
  13  H    0.127300       -0.000000 
  14  H    0.141587       -0.000000 
  15  H    0.130950        0.000000 
  16  H    0.130601       -0.000000 
  17  H    0.142440       -0.000000 
 ---------------------------------------------------
   Sum:    0.000000       -0.000000 
 ---------------------------------------------------
 
  
 NATURAL OCCUPATION NUMBERS (higher than 1.0E-05)
            1           2           3           4           5           6
    1   2.0000000   2.0000000   2.0000000   2.0000000   2.0000000   2.0000000
            7           8           9          10          11          12
    1   2.0000000   2.0000000   2.0000000   2.0000000   2.0000000   2.0000000
           13          14          15          16          17          18
    1   2.0000000   2.0000000   2.0000000   2.0000000   2.0000000   2.0000000
           19          20          21          22          23          24
    1   2.0000000   2.0000000   2.0000000   2.0000000   2.0000000   2.0000000
           25          26          27          28          29          30
    1   2.0000000   2.0000000   2.0000000   2.0000000   2.0000000   1.9926752
           31          32          33          34          35          36
    1   1.9902718   1.9731970   1.7212866   1.2276673   0.7983623   0.2192852
           37          38          39          40          41          42
    1   0.0456721   0.0275994   0.0015397   0.0010866   0.0003982   0.0003024
           43          44          45          46          47          48
    1   0.0002029   0.0001892   0.0000880   0.0000703   0.0000450   0.0000212
           49
    1   0.0000187
  
*** Unpaired Electrons
 Yamaguchi Nd:         3.02
 Head-Gordon Nu:       2.19
 Head-Gordon Nu_nl:    2.22
  
**************************************************
 RAS-CI total energy for state   7:   -399.270232513109
  Excitation energy (eV) =  5.887674182047
  State symmetry: A'    (Cs       )
  <S^2>      :  2.0000
  Dipole Moment:   -0.3960 X     0.9566 Y     0.0000 Z
  Trans. Moment:   -0.0000 X     0.0000 Y     0.0000 Z
  Strength   :  0.000000
  Natural transition orbitals ( 1 -> 7 ):
   e-/hole pair  1:  ampl =  0.750292 ( 56.3%)   [4 : 5]
   e-/hole pair  2:  ampl =  0.443245 ( 19.6%)   [3 : 6]
   Sum of square amplitudes: 0.84

 NATURAL OCCUPATION NUMBERS (higher than 1.0E-05)
            1           2           3           4           5           6
    1   2.0000000   2.0000000   2.0000000   2.0000000   2.0000000   2.0000000
            7           8           9          10          11          12
    1   2.0000000   2.0000000   2.0000000   2.0000000   2.0000000   2.0000000
           13          14          15          16          17          18
    1   2.0000000   2.0000000   2.0000000   2.0000000   2.0000000   2.0000000
           19          20          21          22          23          24
    1   2.0000000   2.0000000   2.0000000   2.0000000   2.0000000   2.0000000
           25          26          27          28          29          30
    1   2.0000000   2.0000000   2.0000000   2.0000000   2.0000000   1.9960230
           31          32          33          34          35          36
    1   1.9833244   1.8944036   1.7411778   1.2590572   0.6401210   0.2501797
           37          38          39          40          41          42
    1   0.1997217   0.0297285   0.0035138   0.0010164   0.0008248   0.0003126
           43          44          45          46          47          48
    1   0.0001965   0.0001380   0.0000932   0.0000693   0.0000301   0.0000225
           49          50
    1   0.0000163   0.0000121

 Head-Gordon Nu:    2.25
 Head-Gordon Nu_nl: 2.20

  Amplitudes : 
  
 | HOLE  | ALPHA | BETA  | PART  |    AMPLITUDE 
--------------------------------------------------
 |       | 1100  | 1001  |       |    -1.2994532652670E-01
 |       | 1100  | 0101  |       |     2.6120271540656E-01
 |       | 1001  | 1100  |       |     1.2994532652670E-01
 |       | 0101  | 1100  |       |    -2.6120271540655E-01
 |  30   | 1110  | 1100  |       |    -1.1134286808553E-01
 |  30   | 1100  | 1110  |       |     1.1134286808555E-01
 |  32   | 1110  | 1100  |       |    -1.6641064328467E-01
 |  32   | 1100  | 1110  |       |     1.6641064328466E-01
 |  32   | 1101  | 1100  |       |    -1.5565950984374E-01
 |  32   | 1100  | 1101  |       |     1.5565950984373E-01
 |       | 1000  | 1100  |  37   |    -5.1450512791179E-01
 |       | 1100  | 1000  |  37   |     5.1450512791179E-01
--------------------------------------------------
*** Contributions RASCI wfn    Active:  20.31
                                 Hole:  17.41
                                 Part:  62.28

      Mulliken population analysis 
 ---------------------------------------------------
   Atom    Charge (a.u.)   Spin (a.u.)  
 ---------------------------------------------------
   1  C   -0.016864        0.000000 
   2  C    0.200021        0.000000 
   3  C    0.034938       -0.000000 
   4  C   -0.257832        0.000000 
   5  C   -0.155611        0.000000 
   6  C   -0.073828       -0.000000 
   7  N   -0.372550        0.000000 
   8  C   -0.178836       -0.000000 
   9  C   -0.139202       -0.000000 
  10  C    0.021259       -0.000000 
  11  H    0.134634       -0.000000 
  12  H    0.130210       -0.000000 
  13  H    0.126912       -0.000000 
  14  H    0.142742       -0.000000 
  15  H    0.129859        0.000000 
  16  H    0.130298        0.000000 
  17  H    0.143850       -0.000000 
 ---------------------------------------------------
   Sum:    0.000000        0.000000 
 ---------------------------------------------------
 
  
 NATURAL OCCUPATION NUMBERS (higher than 1.0E-05)
            1           2           3           4           5           6
    1   2.0000000   2.0000000   2.0000000   2.0000000   2.0000000   2.0000000
            7           8           9          10          11          12
    1   2.0000000   2.0000000   2.0000000   2.0000000   2.0000000   2.0000000
           13          14          15          16          17          18
    1   2.0000000   2.0000000   2.0000000   2.0000000   2.0000000   2.0000000
           19          20          21          22          23          24
    1   2.0000000   2.0000000   2.0000000   2.0000000   2.0000000   2.0000000
           25          26          27          28          29          30
    1   2.0000000   2.0000000   2.0000000   2.0000000   2.0000000   1.9960230
           31          32          33          34          35          36
    1   1.9833244   1.8944036   1.7411778   1.2590572   0.6401210   0.2501797
           37          38          39          40          41          42
    1   0.1997217   0.0297285   0.0035138   0.0010164   0.0008248   0.0003126
           43          44          45          46          47          48
    1   0.0001965   0.0001380   0.0000932   0.0000693   0.0000301   0.0000225
           49          50
    1   0.0000163   0.0000121
  
*** Unpaired Electrons
 Yamaguchi Nd:         3.36
 Head-Gordon Nu:       2.25
 Head-Gordon Nu_nl:    2.20
  
**************************************************
 RAS-CI total energy for state   8:   -399.261195271997
  Excitation energy (eV) =  6.133590024526
  State symmetry: A'    (Cs       )
  <S^2>      :  0.0000
  Dipole Moment:   -0.6211 X     0.5887 Y     0.0000 Z
  Trans. Moment:    0.3943 X    -0.3521 Y     0.0000 Z
  Strength   :  0.041986
  Natural transition orbitals ( 1 -> 8 ):
   e-/hole pair  1:  ampl =  0.507898 ( 25.8%)   [4 : 5]
   e-/hole pair  2:  ampl =  0.327343 ( 10.7%)   [3 : 6]
   Sum of square amplitudes: 0.38

 NATURAL OCCUPATION NUMBERS (higher than 1.0E-05)
            1           2           3           4           5           6
    1   2.0000000   2.0000000   2.0000000   2.0000000   2.0000000   2.0000000
            7           8           9          10          11          12
    1   2.0000000   2.0000000   2.0000000   2.0000000   2.0000000   2.0000000
           13          14          15          16          17          18
    1   2.0000000   2.0000000   2.0000000   2.0000000   2.0000000   2.0000000
           19          20          21          22          23          24
    1   2.0000000   2.0000000   2.0000000   2.0000000   2.0000000   2.0000000
           25          26          27          28          29          30
    1   2.0000000   2.0000000   2.0000000   2.0000000   2.0000000   1.9983063
           31          32          33          34          35          36
    1   1.9581548   1.9177632   1.7850151   1.4715206   0.6469264   0.1364657
           37          38          39          40          41          42
    1   0.0576163   0.0247258   0.0012634   0.0007452   0.0005554   0.0004240
           43          44          45          46          47          48
    1   0.0002001   0.0001292   0.0000763   0.0000438   0.0000309   0.0000126
           49
    1   0.0000113

 Head-Gordon Nu:    1.74
 Head-Gordon Nu_nl: 1.63

  Amplitudes : 
  
 | HOLE  | ALPHA | BETA  | PART  |    AMPLITUDE 
--------------------------------------------------
 |       | 1010  | 1010  |       |     6.9708769883941E-01
 |       | 0110  | 0110  |       |    -1.0627578693011E-01
 |  30   | 1110  | 1100  |       |     2.9078117329424E-01
 |  30   | 1100  | 1110  |       |     2.9078117329420E-01
 |  32   | 1110  | 1100  |       |    -1.1508483678223E-01
 |  32   | 1100  | 1110  |       |    -1.1508483678221E-01
 |  32   | 1110  | 1010  |       |     1.0126798159543E-01
 |  32   | 1010  | 1110  |       |     1.0126798159542E-01
 |  32   | 1110  | 1001  |       |     1.2875734861797E-01
 |  32   | 1001  | 1110  |       |     1.2875734861796E-01
 |       | 1000  | 1100  |  45   |     2.0664016419907E-01
 |       | 1100  | 1000  |  45   |     2.0664016419907E-01
--------------------------------------------------
*** Contributions RASCI wfn    Active:  56.18
                                 Hole:  30.24
                                 Part:  13.59

      Mulliken population analysis 
 ---------------------------------------------------
   Atom    Charge (a.u.)   Spin (a.u.)  
 ---------------------------------------------------
   1  C   -0.028553       -0.000000 
   2  C    0.354484        0.000000 
   3  C   -0.232505       -0.000000 
   4  C   -0.064692       -0.000000 
   5  C   -0.102001       -0.000000 
   6  C   -0.197777        0.000000 
   7  N   -0.338883        0.000000 
   8  C   -0.206068       -0.000000 
   9  C   -0.057183       -0.000000 
  10  C   -0.063389        0.000000 
  11  H    0.134346       -0.000000 
  12  H    0.130842       -0.000000 
  13  H    0.126424        0.000000 
  14  H    0.140984       -0.000000 
  15  H    0.131083        0.000000 
  16  H    0.130241       -0.000000 
  17  H    0.142647        0.000000 
 ---------------------------------------------------
   Sum:    0.000000        0.000000 
 ---------------------------------------------------
 
  
 NATURAL OCCUPATION NUMBERS (higher than 1.0E-05)
            1           2           3           4           5           6
    1   2.0000000   2.0000000   2.0000000   2.0000000   2.0000000   2.0000000
            7           8           9          10          11          12
    1   2.0000000   2.0000000   2.0000000   2.0000000   2.0000000   2.0000000
           13          14          15          16          17          18
    1   2.0000000   2.0000000   2.0000000   2.0000000   2.0000000   2.0000000
           19          20          21          22          23          24
    1   2.0000000   2.0000000   2.0000000   2.0000000   2.0000000   2.0000000
           25          26          27          28          29          30
    1   2.0000000   2.0000000   2.0000000   2.0000000   2.0000000   1.9983063
           31          32          33          34          35          36
    1   1.9581548   1.9177632   1.7850151   1.4715206   0.6469264   0.1364657
           37          38          39          40          41          42
    1   0.0576163   0.0247258   0.0012634   0.0007452   0.0005554   0.0004240
           43          44          45          46          47          48
    1   0.0002001   0.0001292   0.0000763   0.0000438   0.0000309   0.0000126
           49
    1   0.0000113
  
*** Unpaired Electrons
 Yamaguchi Nd:         2.70
 Head-Gordon Nu:       1.74
 Head-Gordon Nu_nl:    1.63
  
**************************************************
 RAS-CI total energy for state   9:   -399.259930710597
  Excitation energy (eV) =  6.168000490956
  State symmetry: A'    (Cs       )
  <S^2>      :  2.0000
  Dipole Moment:   -0.2654 X     0.7711 Y     0.0000 Z
  Trans. Moment:    0.0000 X    -0.0000 Y    -0.0000 Z
  Strength   :  0.000000
  Natural transition orbitals ( 1 -> 9 ):
   e-/hole pair  1:  ampl =  0.866981 ( 75.2%)   [4 : 5]
   e-/hole pair  2:  ampl =  0.331097 ( 11.0%)   [3 : 6]
   Sum of square amplitudes: 0.90

 NATURAL OCCUPATION NUMBERS (higher than 1.0E-05)
            1           2           3           4           5           6
    1   2.0000000   2.0000000   2.0000000   2.0000000   2.0000000   2.0000000
            7           8           9          10          11          12
    1   2.0000000   2.0000000   2.0000000   2.0000000   2.0000000   2.0000000
           13          14          15          16          17          18
    1   2.0000000   2.0000000   2.0000000   2.0000000   2.0000000   2.0000000
           19          20          21          22          23          24
    1   2.0000000   2.0000000   2.0000000   2.0000000   2.0000000   2.0000000
           25          26          27          28          29          30
    1   2.0000000   2.0000000   2.0000000   2.0000000   2.0000000   1.9976754
           31          32          33          34          35          36
    1   1.9908911   1.9548710   1.7495448   1.1624258   0.8235998   0.1778286
           37          38          39          40          41          42
    1   0.1211883   0.0145968   0.0041348   0.0011440   0.0006486   0.0005441
           43          44          45          46          47          48
    1   0.0003724   0.0001968   0.0001184   0.0000822   0.0000502   0.0000266
           49          50
    1   0.0000219   0.0000163

 Head-Gordon Nu:    2.29
 Head-Gordon Nu_nl: 2.24

  Amplitudes : 
  
 | HOLE  | ALPHA | BETA  | PART  |    AMPLITUDE 
--------------------------------------------------
 |       | 1100  | 0110  |       |    -2.0920545212445E-01
 |       | 1100  | 0101  |       |     4.5282738973419E-01
 |       | 0110  | 1100  |       |     2.0920545212447E-01
 |       | 0101  | 1100  |       |    -4.5282738973419E-01
 |       | 1000  | 1100  |  37   |     2.9435441095297E-01
 |       | 1100  | 1000  |  37   |    -2.9435441095297E-01
[...]
  32    C 7   f     0.00383   0.00066   0.00085   0.00141   0.00125   0.00153
  33    C 8   s     0.25957   0.15920   0.07616   0.03471   0.09766   0.00070
  34    C 8   p     0.04194   0.04980   0.01606   0.23530   0.05970   0.05595
  35    C 8   d     0.01973   0.01564   0.00616   0.01903   0.00246   0.00368
  36    C 8   f     0.00310   0.00164   0.00085   0.00143   0.00086   0.00083
  37    C 9   s     0.03178   0.20086   0.00469   0.12699   0.06622   0.00235
  38    C 9   p     0.12340   0.03126   0.08032   0.10903   0.11819   0.03738
  39    C 9   d     0.02679   0.01290   0.01277   0.00710   0.00376   0.00350
  40    C 9   f     0.00079   0.00182   0.00084   0.00124   0.00161   0.00066
  41    H 1   s     0.06267   0.00042   0.00817   0.06775   0.00010   0.08987
  42    H 1   p     0.00571   0.00039   0.00090   0.00673   0.00106   0.00646
  43    H 2   s     0.04382   0.03431   0.01972   0.01862   0.05993   0.00061
  44    H 2   p     0.00386   0.00355   0.00206   0.00290   0.00539   0.00036
  45    H 3   s     0.00432   0.04407   0.00162   0.06288   0.04547   0.00010
  46    H 3   p     0.00066   0.00461   0.00060   0.00644   0.00487   0.00030
  47    H 4   s     0.00607   0.00023   0.06415   0.01970   0.00309   0.11222
  48    H 4   p     0.00070   0.00038   0.00646   0.00220   0.00128   0.00854
  49    H 5   s     0.00247   0.03783   0.02884   0.02232   0.05641   0.00460
  50    H 5   p     0.00031   0.00388   0.00323   0.00262   0.00529   0.00109
  51    H 6   s     0.01172   0.03994   0.01364   0.03586   0.05102   0.00088
  52    H 6   p     0.00101   0.00406   0.00187   0.00370   0.00489   0.00087
  53    H 7   s     0.01706   0.00003   0.06516   0.01412   0.00083   0.10308
  54    H 7   p     0.00166   0.00034   0.00674   0.00179   0.00113   0.00848
                        19        20        21        22        23        24
                       19A'      20A'      21A'      22A'      23A'      24A'  
   1    C 1   s     0.00033   0.00417   0.00736   0.00316   0.03761   0.00114
   2    C 1   p     0.06786   0.12896   0.07447   0.17628   0.07267   0.11361
   3    C 1   d     0.05810   0.00334   0.01531   0.01434   0.03279   0.00274
   4    C 1   f     0.00014   0.00109   0.00070   0.00073   0.00088   0.00879
   5    C 2   s     0.00165   0.00012   0.01283   0.00819   0.03999   0.00011
   6    C 2   p     0.13634   0.02334   0.07392   0.15943   0.01077   0.22110
   7    C 2   d     0.03327   0.03322   0.01522   0.00755   0.02159   0.00867
   8    C 2   f     0.00051   0.00018   0.00065   0.00138   0.00226   0.00363
   9    C 3   s     0.04311   0.00200   0.00359   0.00074   0.00773   0.00084
  10    C 3   p     0.08681   0.13275   0.13056   0.01801   0.34969   0.20391
  11    C 3   d     0.01590   0.00714   0.00336   0.01762   0.03770   0.01263
  12    C 3   f     0.00055   0.00082   0.00065   0.00638   0.00082   0.00057
  13    C 4   s     0.05884   0.01211   0.00042   0.00415   0.01272   0.00224
  14    C 4   p     0.05495   0.24135   0.16929   0.24624   0.01102   0.19132
  15    C 4   d     0.02088   0.00083   0.00100   0.00480   0.02674   0.00156
  16    C 4   f     0.00054   0.00097   0.00210   0.00120   0.00264   0.00149
  17    C 5   s     0.06509   0.00392   0.00442   0.00394   0.01270   0.00022
  18    C 5   p     0.12777   0.11280   0.18785   0.26632   0.02413   0.15733
  19    C 5   d     0.01332   0.01089   0.00153   0.00543   0.02770   0.00606
  20    C 5   f     0.00104   0.00059   0.00195   0.00125   0.00141   0.00403
  21    C 6   s     0.02633   0.01785   0.01160   0.00073   0.01039   0.00045
  22    C 6   p     0.09798   0.16641   0.10337   0.01315   0.29379   0.23041
  23    C 6   d     0.02173   0.00123   0.00839   0.01759   0.03498   0.00923
  24    C 6   f     0.00049   0.00096   0.00060   0.00658   0.00079   0.00075
  25    N     s     0.00723   0.02261   0.00189   0.00104   0.01869   0.00008
  26    N     p     0.12895   0.05907   0.14654   0.09774   0.04230   0.11293
  27    N     d     0.01171   0.00106   0.01031   0.00095   0.00300   0.01631
  28    N     f     0.00023   0.00009   0.00024   0.00110   0.00009   0.00224
  29    C 7   s     0.04401   0.00587   0.00171   0.00147   0.00760   0.00079
  30    C 7   p     0.04254   0.23442   0.18281   0.08870   0.05443   0.08924
  31    C 7   d     0.01775   0.00223   0.00413   0.00727   0.03445   0.01968
  32    C 7   f     0.00033   0.00119   0.00072   0.00465   0.00010   0.00340
  33    C 8   s     0.04958   0.00654   0.00306   0.00379   0.01104   0.00463
  34    C 8   p     0.03584   0.19735   0.22622   0.27129   0.05623   0.15365
  35    C 8   d     0.01784   0.00122   0.00424   0.00582   0.02366   0.00475
  36    C 8   f     0.00033   0.00207   0.00186   0.00075   0.00011   0.00240
  37    C 9   s     0.04626   0.00492   0.01348   0.00364   0.01066   0.00248
  38    C 9   p     0.14809   0.08846   0.26313   0.18531   0.02605   0.17229
  39    C 9   d     0.00869   0.00908   0.00218   0.00423   0.02073   0.01358
  40    C 9   f     0.00188   0.00048   0.00304   0.00053   0.00012   0.00423
  41    H 1   s     0.04932   0.06446   0.04469   0.00081   0.05918   0.00774
  42    H 1   p     0.00330   0.00407   0.00234   0.00113   0.00170   0.00108
  43    H 2   s     0.06006   0.05485   0.06175   0.08565   0.06099   0.05578
  44    H 2   p     0.00386   0.00343   0.00302   0.00427   0.00217   0.00148
  45    H 3   s     0.10260   0.00065   0.12167   0.01543   0.02868   0.08045
  46    H 3   p     0.00665   0.00080   0.00595   0.00197   0.00129   0.00235
  47    H 4   s     0.04615   0.04569   0.00011   0.00717   0.20582   0.02262
  48    H 4   p     0.00362   0.00198   0.00145   0.00032   0.00665   0.00281
  49    H 5   s     0.07984   0.12854   0.01405   0.09628   0.01559   0.01475
  50    H 5   p     0.00504   0.00562   0.00199   0.00316   0.00081   0.00227
  51    H 6   s     0.12543   0.03465   0.03872   0.11279   0.01996   0.01528
  52    H 6   p     0.00752   0.00124   0.00302   0.00378   0.00104   0.00216
  53    H 7   s     0.01014   0.10511   0.00306   0.00356   0.20636   0.00299
  54    H 7   p     0.00169   0.00525   0.00147   0.00021   0.00699   0.00274
                        25        26        27        28        29        30
                       25A'      26A'       1A"      27A'      28A'       2A"  
   1    C 1   s     0.00272   0.00087   0.00000   0.00092   0.00002   0.00000
   2    C 1   p     0.15822   0.00552   0.29078   0.09348   0.12296   0.04095
   3    C 1   d     0.00165   0.03099   0.00727   0.03489   0.04075   0.00813
   4    C 1   f     0.00792   0.00063   0.00283   0.00028   0.00041   0.00039
   5    C 2   s     0.00189   0.00071   0.00000   0.00326   0.00025   0.00000
   6    C 2   p     0.01691   0.01428   0.39166   0.11186   0.09756   0.00277
   7    C 2   d     0.00474   0.02276   0.01024   0.01927   0.02582   0.02158
   8    C 2   f     0.00703   0.00020   0.00513   0.00643   0.00005   0.00119
   9    C 3   s     0.00214   0.01049   0.00000   0.00100   0.00003   0.00000
  10    C 3   p     0.19797   0.05384   0.06280   0.12398   0.17745   0.14421
  11    C 3   d     0.00883   0.00458   0.00890   0.05634   0.01074   0.01896
  12    C 3   f     0.00155   0.00046   0.00176   0.00036   0.00123   0.00312
  13    C 4   s     0.00007   0.00139   0.00000   0.00157   0.00072   0.00000
  14    C 4   p     0.05131   0.15264   0.04093   0.22848   0.15528   0.54445
  15    C 4   d     0.01748   0.04999   0.00173   0.03017   0.05064   0.01800
  16    C 4   f     0.00420   0.00213   0.00039   0.00062   0.00079   0.00341
  17    C 5   s     0.00231   0.00121   0.00000   0.00061   0.00082   0.00000
  18    C 5   p     0.11752   0.14060   0.04107   0.23300   0.13061   0.52799
  19    C 5   d     0.01236   0.04116   0.00181   0.02626   0.05899   0.01960
  20    C 5   f     0.00134   0.00272   0.00041   0.00217   0.00069   0.00337
  21    C 6   s     0.00224   0.00782   0.00000   0.00187   0.00023   0.00000
  22    C 6   p     0.06569   0.11225   0.07060   0.25038   0.14393   0.09229
  23    C 6   d     0.00480   0.00211   0.01215   0.06640   0.00731   0.02518
  24    C 6   f     0.00111   0.00026   0.00238   0.00037   0.00096   0.00286
  25    N     s     0.01351   0.00151   0.00000   0.02139   0.00109   0.00000
  26    N     p     0.08355   0.08806   0.41922   0.13325   0.10944   0.09521
  27    N     d     0.00129   0.00604   0.00843   0.00125   0.00722   0.00640
  28    N     f     0.00019   0.00028   0.00099   0.00047   0.00086   0.00048
  29    C 7   s     0.00294   0.00788   0.00000   0.00235   0.00005   0.00000
  30    C 7   p     0.33655   0.22400   0.19378   0.04398   0.17869   0.00234
  31    C 7   d     0.06014   0.00810   0.00925   0.01318   0.00676   0.01324
  32    C 7   f     0.00181   0.00042   0.00199   0.00163   0.00085   0.00124
  33    C 8   s     0.00494   0.00060   0.00000   0.00184   0.00039   0.00000
  34    C 8   p     0.13113   0.21145   0.15748   0.02103   0.13583   0.14184
  35    C 8   d     0.04913   0.03960   0.00895   0.00347   0.03898   0.01039
  36    C 8   f     0.00414   0.00400   0.00195   0.00074   0.00035   0.00150
  37    C 9   s     0.01037   0.00370   0.00000   0.00075   0.00092   0.00000
  38    C 9   p     0.08354   0.19346   0.21993   0.01398   0.09471   0.22368
  39    C 9   d     0.00574   0.05130   0.01442   0.00651   0.05396   0.00316
  40    C 9   f     0.00058   0.00323   0.00398   0.00162   0.00013   0.00136
  41    H 1   s     0.22479   0.06381   0.00000   0.02546   0.00062   0.00000
  42    H 1   p     0.00570   0.00208   0.00190   0.00024   0.00250   0.00000
  43    H 2   s     0.08301   0.06346   0.00000   0.00850   0.06258   0.00000
  44    H 2   p     0.00256   0.00278   0.00136   0.00011   0.00172   0.00197
  45    H 3   s     0.00864   0.14668   0.00000   0.00020   0.08657   0.00000
  46    H 3   p     0.00061   0.00323   0.00196   0.00013   0.00124   0.00297
  47    H 4   s     0.10030   0.00326   0.00000   0.10909   0.00257   0.00000
  48    H 4   p     0.00237   0.00049   0.00040   0.00149   0.00238   0.00106
  49    H 5   s     0.00001   0.11392   0.00000   0.06489   0.08113   0.00000
  50    H 5   p     0.00051   0.00236   0.00039   0.00295   0.00167   0.00711
  51    H 6   s     0.06310   0.07366   0.00000   0.03089   0.09485   0.00000
  52    H 6   p     0.00127   0.00207   0.00038   0.00312   0.00138   0.00704
  53    H 7   s     0.02500   0.01801   0.00000   0.18776   0.00033   0.00000
  54    H 7   p     0.00059   0.00094   0.00043   0.00372   0.00199   0.00058
                        31        32        33        34        35
                       29A'       3A"       4A"       5A"       6A"  
   1    C 1   s     0.00334   0.00000   0.00000   0.00000   0.00000
   2    C 1   p     0.10855   0.22482   0.28327   0.01096   0.00572
   3    C 1   d     0.00926   0.04952   0.00822   0.06250   0.09803
   4    C 1   f     0.00033   0.00518   0.00152   0.00692   0.00706
   5    C 2   s     0.00687   0.00000   0.00000   0.00000   0.00000
   6    C 2   p     0.11571   0.11634   0.23563   0.04167   0.00152
   7    C 2   d     0.10338   0.06549   0.01219   0.06500   0.08349
   8    C 2   f     0.01037   0.00689   0.00186   0.00835   0.00661
   9    C 3   s     0.00209   0.00000   0.00000   0.00000   0.00000
  10    C 3   p     0.02235   0.04606   0.00882   0.59054   0.56295
  11    C 3   d     0.01459   0.01528   0.04338   0.00347   0.01317
  12    C 3   f     0.00071   0.00158   0.00380   0.00016   0.00331
  13    C 4   s     0.00004   0.00000   0.00000   0.00000   0.00000
  14    C 4   p     0.00416   0.00437   0.19738   0.10472   0.05729
  15    C 4   d     0.00156   0.00423   0.01503   0.05200   0.08896
  16    C 4   f     0.00032   0.00043   0.00171   0.00566   0.00689
  17    C 5   s     0.00040   0.00000   0.00000   0.00000   0.00000
  18    C 5   p     0.00448   0.02276   0.21676   0.07805   0.07148
  19    C 5   d     0.00292   0.00075   0.01125   0.06312   0.08069
  20    C 5   f     0.00008   0.00022   0.00144   0.00691   0.00652
  21    C 6   s     0.00529   0.00000   0.00000   0.00000   0.00000
  22    C 6   p     0.03925   0.05207   0.00048   0.67519   0.51449
  23    C 6   d     0.00736   0.00415   0.03988   0.00059   0.01305
  24    C 6   f     0.00036   0.00106   0.00352   0.00004   0.00316
  25    N     s     0.11177   0.00000   0.00000   0.00000   0.00000
  26    N     p     0.95641   0.45564   0.00187   0.07020   0.07247
  27    N     d     0.03339   0.00241   0.03033   0.00330   0.00214
  28    N     f     0.00135   0.00026   0.00207   0.00018   0.00043
  29    C 7   s     0.00076   0.00000   0.00000   0.00000   0.00000
  30    C 7   p     0.01427   0.56441   0.00229   0.05696   0.12685
  31    C 7   d     0.02108   0.00388   0.06222   0.00282   0.00515
  32    C 7   f     0.00004   0.00193   0.00568   0.00013   0.00110
  33    C 8   s     0.00385   0.00000   0.00000   0.00000   0.00000
  34    C 8   p     0.08377   0.21877   0.37731   0.02015   0.03100
  35    C 8   d     0.01121   0.03187   0.02171   0.00822   0.02642
  36    C 8   f     0.00009   0.00377   0.00273   0.00075   0.00186
  37    C 9   s     0.00495   0.00000   0.00000   0.00000   0.00000
  38    C 9   p     0.11139   0.01270   0.36229   0.02021   0.04596
  39    C 9   d     0.07705   0.06317   0.02284   0.01055   0.01918
  40    C 9   f     0.00915   0.00654   0.00264   0.00103   0.00140
  41    H 1   s     0.01932   0.00000   0.00000   0.00000   0.00000
  42    H 1   p     0.00004   0.00851   0.00008   0.00125   0.00313
  43    H 2   s     0.01873   0.00000   0.00000   0.00000   0.00000
  44    H 2   p     0.00103   0.00322   0.00661   0.00037   0.00118
  45    H 3   s     0.02558   0.00000   0.00000   0.00000   0.00000
  46    H 3   p     0.00105   0.00023   0.00597   0.00037   0.00145
  47    H 4   s     0.01716   0.00000   0.00000   0.00000   0.00000
  48    H 4   p     0.00011   0.00055   0.00012   0.01200   0.01605
  49    H 5   s     0.00007   0.00000   0.00000   0.00000   0.00000
  50    H 5   p     0.00004   0.00011   0.00342   0.00153   0.00256
  51    H 6   s     0.00345   0.00000   0.00000   0.00000   0.00000
  52    H 6   p     0.00001   0.00029   0.00370   0.00100   0.00305
  53    H 7   s     0.00881   0.00000   0.00000   0.00000   0.00000
  54    H 7   p     0.00032   0.00054   0.00000   0.01312   0.01423
 
 -----------------------------------------------------------------
                    Cartesian Multipole Moments
 -----------------------------------------------------------------
    Charge (ESU x 10^10)
                 0.0000
    Dipole Moment (Debye)
         X       1.0015      Y      -2.0828      Z      -0.0000
       Tot       2.3111
    Quadrupole Moments (Debye-Ang)
        XX     -50.0813     XY       2.8344     YY     -55.2981
        XZ      -0.0000     YZ      -0.0000     ZZ     -63.5081
    Octopole Moments (Debye-Ang^2)
       XXX      -6.6194    XXY      -0.1654    XYY       8.1339
       YYY     -14.3141    XXZ      -0.0000    XYZ      -0.0000
       YYZ      -0.0000    XZZ      -0.9267    YZZ       1.7073
       ZZZ      -0.0000
    Hexadecapole Moments (Debye-Ang^3)
      XXXX   -1077.8959   XXXY      -6.7361   XXYY    -254.7494
      XYYY      19.8469   YYYY    -484.7221   XXXZ       0.0000
      XXYZ       0.0000   XYYZ       0.0000   YYYZ      -0.0000
      XXZZ    -242.8018   XYZZ      -1.6524   YYZZ    -105.5474
      XZZZ       0.0000   YZZZ      -0.0000   ZZZZ     -74.3673
 -----------------------------------------------------------------
 Mayer SCF Bond Order, atomic valence on the diagonal:

            1           2           3           4           5           6
    1   3.8863454   1.1691779   1.1197844   0.0148739  -0.0051711   0.0431857
    2   1.1691779   3.9045064  -0.0487406   0.0067568  -0.0446690   1.1765071
    3   1.1197844  -0.0487406   3.2079477   1.0170757   0.0578698  -0.0121233
    4   0.0148739   0.0067568   1.0170757   3.9681761   1.8761518   0.0703661
    5  -0.0051711  -0.0446690   0.0578698   1.8761518   3.8731522   1.0064839
    6   0.0431857   1.1765071  -0.0121233   0.0703661   1.0064839   3.3478221
    7  -0.0313862   1.5635436   0.0169874   0.0058369   0.0058901   0.0579759
    8   1.5349432   0.0007545   0.0562974   0.0025189   0.0122022   0.0105480
    9   0.0353964   0.0297919   0.0003411   0.0070583  -0.0027683   0.0277726
   10   0.0218967   0.0241785   0.0326598  -0.0044326   0.0100975  -0.0021988
   11  -0.0169565   0.0061108   0.0039423   0.0002712  -0.0001560   0.0008647
   12   0.0052890   0.0021685   0.0005583   0.0002030   0.0001555   0.0001953
   13  -0.0006407   0.0053329   0.0009924  -0.0002956   0.0004123   0.0002254
   14  -0.0186583   0.0065778   0.9748949  -0.0105452   0.0047887  -0.0002045
   15   0.0050642   0.0003540  -0.0204325   0.9816497  -0.0026339   0.0071159
   16  -0.0001395   0.0049630   0.0074772  -0.0041875   0.9825582  -0.0194160
   17   0.0096862   0.0016987   0.0003635   0.0048747  -0.0280594   0.9805238
            7           8           9          10          11          12
    1  -0.0313862   1.5349432   0.0353964   0.0218967  -0.0169565   0.0052890
    2   1.5635436   0.0007545   0.0297919   0.0241785   0.0061108   0.0021685
    3   0.0169874   0.0562974   0.0003411   0.0326598   0.0039423   0.0005583
    4   0.0058369   0.0025189   0.0070583  -0.0044326   0.0002712   0.0002030
    5   0.0058901   0.0122022  -0.0027683   0.0100975  -0.0001560   0.0001555
    6   0.0579759   0.0105480   0.0277726  -0.0021988   0.0008647   0.0001953
    7   2.9404809   0.0391378  -0.0241651   1.2846162   0.0005963   0.0062284
    8   0.0391378   3.9537154   1.2660236   0.0598745   0.9732199  -0.0167343
    9  -0.0241651   1.2660236   3.8630145   1.5838426  -0.0077386   0.9731586
   10   1.2846162   0.0598745   1.5838426   4.0085751   0.0046922  -0.0025608
   11   0.0005963   0.9732199  -0.0077386   0.0046922   0.9678468  -0.0000569
   12   0.0062284  -0.0167343   0.9731586  -0.0025608  -0.0000569   0.9689001
   13  -0.0073259   0.0071319  -0.0265534   0.9948851   0.0005525   0.0001444
   14   0.0004621   0.0061512  -0.0001625   0.0001553   0.0021687  -0.0000081
   15   0.0001292   0.0004212   0.0001734  -0.0000113   0.0000013   0.0000358
   16   0.0005697   0.0002225  -0.0000233   0.0002802  -0.0000075   0.0000089
   17   0.0213844   0.0010028   0.0008668   0.0005999   0.0003422   0.0001145
           13          14          15          16          17
    1  -0.0006407  -0.0186583   0.0050642  -0.0001395   0.0096862
    2   0.0053329   0.0065778   0.0003540   0.0049630   0.0016987
    3   0.0009924   0.9748949  -0.0204325   0.0074772   0.0003635
    4  -0.0002956  -0.0105452   0.9816497  -0.0041875   0.0048747
    5   0.0004123   0.0047887  -0.0026339   0.9825582  -0.0280594
    6   0.0002254  -0.0002045   0.0071159  -0.0194160   0.9805238
    7  -0.0073259   0.0004621   0.0001292   0.0005697   0.0213844
    8   0.0071319   0.0061512   0.0004212   0.0002225   0.0010028
    9  -0.0265534  -0.0001625   0.0001734  -0.0000233   0.0008668
   10   0.9948851   0.0001553  -0.0000113   0.0002802   0.0005999
   11   0.0005525   0.0021687   0.0000013  -0.0000075   0.0003422
   12   0.0001444  -0.0000081   0.0000358   0.0000089   0.0001145
   13   0.9750714   0.0000476   0.0000000   0.0000088   0.0001534
   14   0.0000476   0.9660948  -0.0002798   0.0007254  -0.0000185
   15   0.0000000  -0.0002798   0.9719366  -0.0001241   0.0004734
   16   0.0000088   0.0007254  -0.0001241   0.9724618  -0.0004541
   17   0.0001534  -0.0000185   0.0004734  -0.0004541   0.9935524


 Total job time:  8376.60s(wall), 6277.81s(cpu) 
 Tue Nov 14 22:57:48 2023

        *************************************************************
        *                                                           *
        *  Thank you very much for using Q-Chem.  Have a nice day.  *
        *                                                           *
        *************************************************************


