                  Welcome to Q-Chem
     A Quantum Leap Into The Future Of Chemistry


 Q-Chem 6.0 (devel), Q-Chem, Inc., Pleasanton, CA (2022)

 E. Epifanovsky,  A. T. B. Gilbert,  Xintian Feng,  Joonho Lee,  Yuezhi Mao,  
 N. Mardirossian,  P. Pokhilko,  A. White,  M. Wormit,  M. P. Coons,  
 A. L. Dempwolff,  Zhengting Gan,  D. Hait,  P. R. Horn,  L. D. Jacobson,  
 I. Kaliman,  J. Kussmann,  A. W. Lange,  Ka Un Lao,  D. S. Levine,  Jie Liu,  
 S. C. McKenzie,  A. F. Morrison,  K. Nanda,  F. Plasser,  D. R. Rehn,  
 M. L. Vidal,  Zhi-Qiang You,  Ying Zhu,  B. Alam,  B. Albrecht,  
 A. Aldossary,  E. Alguire,  J. H. Andersen,  V. Athavale,  D. Barton,  
 K. Begam,  A. Behn,  N. Bellonzi,  Y. A. Bernard,  E. J. Berquist,  
 H. Burton,  A. Carreras,  K. Carter-Fenk,  Romit Chakraborty,  
 Chandrima Chakravarty,  Junhan Chen,  A. D. Chien,  K. D. Closser,  
 V. Cofer-Shabica,  L. Cunha,  S. Dasgupta,  Jia Deng,  M. de Wergifosse,  
 M. Diedenhofen,  Hainam Do,  S. Ehlert,  Po-Tung Fang,  S. Fatehi,  
 Qingguo Feng,  T. Friedhoff,  B. Ganoe,  J. Gayvert,  Qinghui Ge,  
 G. Gidofalvi,  M. Goldey,  J. Gomes,  C. Gonzalez-Espinoza,  S. Gulania,  
 A. Gunina,  J. A. Gyamfi,  M. W. D. Hanson-Heine,  P. H. P. Harbach,  
 A. W. Hauser,  M. F. Herbst,  M. Hernandez Vera,  M. Hodecker,  
 Z. C. Holden,  S. Houck,  Xunkun Huang,  Kerwin Hui,  B. C. Huynh,  
 K. Ikeda,  M. Ivanov,  Hyunjun Ji,  Zuxin Jin,  Hanjie Jiang,  B. Kaduk,  
 S. Kaehler,  R. Kang,  K. Khistyaev,  Jaehoon Kim,  Yongbin Kim,  
 P. Klunzinger,  Z. Koczor-Benda,  Joong Hoon Koh,  D. Kosenkov,  
 Saikiran Kotaru,  L. Koulias,  T. Kowalczyk,  C. M. Krauter,  K. Kue,  
 A. Kunitsa,  T. Kus,  A. Landau,  K. V. Lawler,  D. Lefrancois,  S. Lehtola,  
 Rain Li,  Shaozhi Li,  Yi-Pei Li,  Jiashu Liang,  M. Liebenthal,  
 Hung-Hsuan Lin,  You-Sheng Lin,  Fenglai Liu,  Kuan-Yu Liu,  
 M. Loipersberger,  A. Luenser,  C. Malbon,  A. Manjanath,  P. Manohar,  
 E. Mansoor,  S. F. Manzer,  Shan-Ping Mao,  A. V. Marenich,  T. Markovich,  
 S. Mason,  F. Matz,  S. A. Maurer,  P. F. McLaughlin,  M. F. S. J. Menger,  
 J.-M. Mewes,  S. A. Mewes,  P. Morgante,  Mohammad Mostafanejad,  
 J. W. Mullinax,  K. J. Oosterbaan,  G. Paran,  V. Parravicini,  
 Alexander C. Paul,  Suranjan K. Paul,  F. Pavosevic,  Zheng Pei,  S. Prager,  
 E. I. Proynov,  E. Ramos,  B. Rana,  A. E. Rask,  A. Rettig,  R. M. Richard,  
 F. Rob,  E. Rossomme,  T. Scheele,  M. Scheurer,  M. Schneider,  
 P. E. Schneider,  N. Sergueev,  S. M. Sharada,  Hengyuan Shen,  
 W. Skomorowski,  D. W. Small,  C. J. Stein,  Yingli Su,  Yu-Chuan Su,  
 E. J. Sundstrom,  Zhen Tao,  J. Thirman,  Hung-Yi Tsai,  T. Tsuchimochi,  
 N. M. Tubman,  C. Utku,  S. P. Veccham,  O. Vydrov,  J. Wenzel,  
 Jonathan Wong,  J. Witte,  A. Yamada,  Chou-Hsun Yang,  Kun Yao,  
 S. Yeganeh,  S. R. Yost,  A. Zech,  F. Zeller,  Igor Ying Zhang,  
 Xing Zhang,  Yu Zhang,  D. Zuev,  A. Aspuru-Guzik,  A. T. Bell,  
 N. A. Besley,  K. B. Bravaya,  B. R. Brooks,  D. Casanova,  Jeng-Da Chai,  
 Hsing-Ta Chen,  S. Coriani,  C. J. Cramer,  A. E. DePrince, III,  
 R. A. DiStasio Jr.,  A. Dreuw,  B. D. Dunietz,  T. R. Furlani,  
 W. A. Goddard III,  S. Grimme,  S. Hammes-Schiffer,  T. Head-Gordon,  
 W. J. Hehre,  Chao-Ping Hsu,  T.-C. Jagau,  Yousung Jung,  A. Klamt,  
 Jing Kong,  D. S. Lambrecht,  Xiangyuan Li,  WanZhen Liang,  N. J. Mayhall,  
 C. W. McCurdy,  J. B. Neaton,  T. Neudecker,  C. Ochsenfeld,  
 J. A. Parkhill,  R. Peverati,  V. A. Rassolov,  Haisheng Ren,  Yihan Shao,  
 L. V. Slipchenko,  R. P. Steele,  J. E. Subotnik,  A. J. W. Thom,  
 A. Tkatchenko,  D. G. Truhlar,  T. Van Voorhis,  Fan Wang,  
 T. A. Wesolowski,  K. B. Whaley,  H. L. Woodcock III,  P. M. Zimmerman,  
 S. Faraji,  P. M. W. Gill,  M. Head-Gordon,  J. M. Herbert,  A. I. Krylov

 Contributors to earlier versions of Q-Chem not listed above: 
 R. D. Adamson,  B. Austin,  R. Baer,  J. Baker,  G. J. O. Beran,  
 K. Brandhorst,  S. T. Brown,  E. F. C. Byrd,  Arup K. Chakraborty,  
 G. K. L. Chan,  Chun-Min Chang,  Yunqing Chen,  C.-L. Cheng,  
 Siu Hung Chien,  D. M. Chipman,  D. L. Crittenden,  H. Dachsel,  
 R. J. Doerksen,  A. D. Dutoi,  R. G. Edgar,  J. Fosso-Tande,  
 L. Fusti-Molnar,  D. Ghosh,  A. Ghysels,  A. Golubeva-Zadorozhnaya,  
 J. Gonthier,  M. S. Gordon,  S. R. Gwaltney,  G. Hawkins,  J. E. Herr,  
 A. Heyden,  S. Hirata,  E. G. Hohenstein,  G. Kedziora,  F. J. Keil,  
 C. Kelley,  Jihan Kim,  R. A. King,  R. Z. Khaliullin,  P. P. Korambath,  
 W. Kurlancheek,  A. Laurent,  A. M. Lee,  M. S. Lee,  S. V. Levchenko,  
 Ching Yeh Lin,  D. Liotard,  E. Livshits,  R. C. Lochan,  I. Lotan,  
 L. A. Martinez-Martinez,  P. E. Maslen,  N. Nair,  D. P. O'Neill,  
 D. Neuhauser,  E. Neuscamman,  C. M. Oana,  R. Olivares-Amaya,  R. Olson,  
 T. M. Perrine,  B. Peters,  P. A. Pieniazek,  A. Prociuk,  Y. M. Rhee,  
 J. Ritchie,  M. A. Rohrdanz,  E. Rosta,  N. J. Russ,  H. F. Schaefer III,  
 M. W. Schmidt,  N. E. Schultz,  S. Sharma,  N. Shenvi,  C. D. Sherrill,  
 A. C. Simmonett,  A. Sodt,  T. Stein,  D. Stuck,  K. S. Thanthiriwatte,  
 V. Vanovschi,  L. Vogt,  Tao Wang,  A. Warshel,  M. A. Watson,  
 C. F. Williams,  Q. Wu,  X. Xu,  Jun Yang,  W. Zhang,  Yan Zhao

   Please cite Q-Chem as follows:
  "Software for the frontiers of quantum chemistry:
   An overview of developments in the Q-Chem 5 package"
   J. Chem. Phys. 155, 084801 (2021)
   https://doi.org/10.1063/5.0055522 (open access)

 Q-Chem 6.0.1 for Intel X86 EM64T Linux

 Parts of Q-Chem use Armadillo 9.900.5 (Nocturnal Misbehaviour).
 http://arma.sourceforge.net/

 Q-Chem begins on Mon Dec  4 12:35:25 2023  

 Host: atlas-014
0

     Scratch files written to ./qchem10879//
 Processing $rem in /scratch/abel/SOFTWARE/qchem/config/preferences:
 Processing $rem in /dipc/acebg/.qchemrc:

 Checking the input file for inconsistencies... 	...done.

--------------------------------------------------------------
User input:
--------------------------------------------------------------
$comment
 RAS-SF CALCULATION
$end

$molecule
 READ quinoline.molecule
$end

$rem
!**CALCULATION TYPE***     
JOBTYPE            sp    
EXCHANGE           HF
CORRELATION        RASCI    !RASCI=Casanova; RASCI2=Zimmerman
BASIS              def2-TZVP

!***SCF REFERENCE***
INPUT_BOHR          TRUE
!SKIP_SCFMAN        FALSE
UNRESTRICTED       FALSE
!SCF_GUESS          core
!SCF_GUESS_MIX      FALSE
!SCF_GUESS_ALWAYS   FALSE
MAX_SCF_CYCLES     999
!SCF_CONVERGENCE    8
SCF_ALGORITHM      DIIS_GDM !DIIS,DM,DIIS_DM,GDM,DIIS_GDM,GD

!SYMMETRY           TRUE   !use of symmetry for calculating integrals
!SYM_IGNORE         FALSE  !turn off using symmetry
!SYM_TOL            5      !tolerance for determining point group
!USE_ABELIAN_SUBGROUP      !define to use abelian group

!THRESH             14
SCF_FINAL_PRINT     1 !0,1,2,3

!****RAS-SF****
RAS_ROOTS          20       !number of RAS-CI roots to be computed
SET_ITER           150     !number of iterations in RASCI
RAS_ELEC           6       !number of electrons in RAS2
RAS_ELEC_ALPHA     4       !spin-α electrons in RAS2 
RAS_ELEC_BETA      2       !spin-β electrons in RAS2

RAS_ACT            7       !number of orbitals in RAS2 
RAS_ACT_ORB  [30, 31, 34, 35, 36, 37, 40]  !user-selected RAS2 orbitals
RAS_OCC            31       !number of orbitals in RAS1
N_FROZEN_CORE      11     !Number of frozen core orbitals
N_FROZEN_VIRTUAL   294      !Number of frozen virtual orbitals

RAS_DO_HOLE        TRUE   !presence of hole excitations in RAS-CI wave function
RAS_DO_PART        TRUE   !presence of particle excitations
!RAS_AMPL_PRINT     10     !threshold (×10 2 ) for the CI amplitudes

!RAS_GUESS_CS       0      !number of closed shell guess conﬁgurations
!RAS_SPIN_MULT      0      !spin multiplicity. Only for Ms = 0 
!RAS_SRDFT          FALSE  !short-range density functional RAS-CI
!RAS_NFRAG          0     !fragments of excitation analysis in RASCI

RAS_PRINT          2      !level of information
RAS_NATORB         TRUE   !computation of the natural orbital occupancies
!RAS_NATORB_STATE  0      !Saves NO of i RAS computed state in .fchk ﬁle
!RAS_FOD            TRUE

!****RAS-SOC****
CALC_SOC           TRUE   !calculate SOC for EOM-CC, RAS-CI, ADC, TDDFT/TDA and TDDFT
!RAS_SOC_2E        TRUE   !two-electron mean-ﬁeld contribution, default=true
RAS_SOC_SYM_DENS   TRUE   !averaging of α and β densities

!****MEMORY****
MEM_TOTAL          60000 !Default 2000 MB
MEM_STATIC         20000  !Default 64 MB

!**Molecular Properties and Analysis **                                                                                          
POP_MULLIKEN       TRUE   !Run Mulliken population analysis
LOWDIN_POPULATION  TRUE   !Run Löwdin population analysis
GUI                2       !Checkpoints generation
STATE_ANALYSIS     TRUE

!**Wave function analysis of RAS-CI states: MOLDEN**
!PLOTS = 0     ! Note: This can be omitted, default is 0
!NTO_PAIRS = 2 ! Note: This can be omitted, default is 2
!GUI 0
!MOLDEN_FORMAT      TRUE
!PRINT_ORBITALS     15

!**Wave function analysis of RAS-CI state: CUBE**
!NTO_PAIRS = 2 ! Note: This can be omitted, default is 2
!PLOTS = 1
!GUI 0

!**SR-DFT**
!RAS_SRDFT           TRUE !Perform short-range density functional RAS-CI
!RAS_SRDFT_EXC       0 !EX functional. 0=HF. 
!RAS_SRDFT_ONLY_COR  TRUE !No use of EXC functional
!RAS_SRDFT_COR       srPBE !short-range correlation functional
!ras_srdft_0         TRUE !true: no iteration (one-shot); false: iteration
!RAS_OMEGA           400 !Coulomb range-separation parameter. def=400
!RAS_SRDFT_DAMP     0.5 !dumping factor. def=0.5
$end

!$plots
!   grid_points 100 100 100
!   grid_range  (-10,10) (-10,10) (-10,10)
!$end

--------------------------------------------------------------
 ----------------------------------------------------------------
             Standard Nuclear Orientation (Bohr)
    I     Atom           X                Y                Z
 ----------------------------------------------------------------
    1      C      -0.0559353627    -1.3989916065    -0.0000000000
    2      C      -0.0782415914     1.3256554364     0.0000000000
    3      C       2.3016375305    -2.6538713366    -0.0000000000
    4      C       4.6667611846    -1.2654684416    -0.0000000000
    5      C       4.6497706855     1.3016649328    -0.0000000000
    6      C       2.2722800840     2.6377967747    -0.0000000000
    7      N      -2.2102262665     2.6945577754     0.0000000000
    8      C      -2.3995793248    -2.6420616021     0.0000000000
    9      C      -4.6640560358    -1.1648929097     0.0000000000
   10      C      -4.4878393265     1.4051065478     0.0000000000
   11      H      -2.4867924844    -4.6867516752     0.0000000000
   12      H      -6.4947443947    -2.0790860337     0.0000000000
   13      H      -6.1538984074     2.5944746854     0.0000000000
   14      H       2.3432526882    -4.7016054474    -0.0000000000
   15      H       6.4266657394    -2.3097175760    -0.0000000000
   16      H       6.3951035242     2.3693643728    -0.0000000000
   17      H       2.2132101396     4.6817904753    -0.0000000000
 ----------------------------------------------------------------
 Molecular Point Group                 Cs    NOp =  2
 Largest Abelian Subgroup              Cs    NOp =  2
 Nuclear Repulsion Energy =         458.56962217 hartrees
 There are       35 alpha and       33 beta electrons
 Requested basis set is def2-TZVP
 There are 138 shells and 352 basis functions

 Q-Chem warning in module libmdc/get_mega.C, line 167:

 Allowed MEM_STATIC has been capped at MEM_STATIC=8191.
 Reduce the value of MEM_STATIC to silence this warning.


 Total QAlloc Memory Limit  60000 MB
 Mega-Array Size      8007 MB
 MEM_STATIC part      8191 MB

 A cutoff of  1.0D-09 yielded   8146 shell pairs
 There are     53734 function pairs (     69986 Cartesian)
 Smallest overlap matrix eigenvalue = 8.95E-06

 Q-Chem warning in module stvman/mkSTV.C, line 313:

 Overlap eigenvalue is smaller than square root of threshold
 Use THRESH >= 12 to get rid of this warning


 Scale SEOQF with 1.000000e-01/1.000000e-01/1.000000e+00

 Standard Electronic Orientation quadrupole field applied
 Nucleus-field energy     =     0.0000000148 hartrees
 Guess from superposition of atomic densities
 Warning:  Energy on first SCF cycle will be non-variational
 SAD guess density has 68.000000 electrons

 -----------------------------------------------------------------------
  General SCF calculation program by
  Eric Jon Sundstrom, Paul Horn, Yuezhi Mao, Dmitri Zuev, Alec White,
  David Stuck, Shaama M.S., Shane Yost, Joonho Lee, David Small,
  Daniel Levine, Susi Lehtola, Hugh Burton, Evgeny Epifanovsky,
  Bang C. Huynh
 -----------------------------------------------------------------------
 Hartree-Fock
 Orthonormalizing orbitals
 A restricted open-shell SCF calculation will be
 performed using DIIS, GDM
 SCF converges when RMS gradient is below 1.0e-05
 ---------------------------------------
  Cycle       Energy         DIIS error
 ---------------------------------------
    1    -396.5781026976      3.09e-02  
    2    -396.3847307891      2.99e-02  
    3    -398.7075159200      1.34e-02  
    4    -399.3027653795      3.98e-03  Done DIIS. Switching to GDM
 ---------------------------------------
  Cycle       Energy        RMS Gradient
 ---------------------------------------
    1    -399.3027653795      6.61e-02   Descent step
    2    -399.3553090883      7.64e-02   Normal BFGS step
    3    -399.3739134794      3.45e-02   Normal BFGS step
    4    -399.3786522039      2.82e-02   Normal BFGS step
    5    -399.3809969457      1.99e-02   Normal BFGS step
    6    -399.3819969647      8.37e-03   Normal BFGS step
    7    -399.3825111903      3.88e-03   Normal BFGS step
    8    -399.3826271659      1.64e-03   Normal BFGS step
    9    -399.3826550282      8.36e-04   Normal BFGS step
   10    -399.3826582381      4.26e-04   Normal BFGS step
   11    -399.3826591830      9.07e-05   Normal BFGS step
   12    -399.3826593418      3.73e-05   Normal BFGS step
   13    -399.3826595607      1.61e-05   Normal BFGS step
   14    -399.3826603106      5.45e-06  Convergence criterion met
The disked orbital energies are calculated using alpha and beta Focks
 ---------------------------------------
 Alpha HF Exchange    Energy = -28.34882502428649
 Beta HF Exchange     Energy = -27.46542182525537
 Nuclear Attraction   Energy =   0.00000000000000
 One-Electron (alpha) Energy = -740.48648922337713
 One-Electron (beta)  Energy = -708.47447590732099
 Total Coulomb        Energy = 646.82292948821578
 Final Alpha MO Eigenvalues
            1           2           3           4           5           6
    1 -15.5611834 -11.2853516 -11.2645624 -11.2554244 -11.2515203 -11.2503320
            7           8           9          10          11          12
    1 -11.2541942 -11.2458872 -11.2510193 -11.2343973  -1.2510311  -1.1509689
           13          14          15          16          17          18
    1  -1.0915886  -1.0324038  -1.0155447  -0.9002035  -0.8494516  -0.8347890
           19          20          21          22          23          24
    1  -0.7356495  -0.7062449  -0.6902562  -0.6343977  -0.6268214  -0.5995643
           25          26          27          28          29          30
    1  -0.5768235  -0.5654221  -0.5666910  -0.5304633  -0.5023272  -0.4815402
           31          32          33          34          35          36
    1  -0.4172263  -0.4143652  -0.3646019  -0.3965469  -0.2399094   0.1080848
           37          38          39          40          41          42
    1   0.1127423   0.1517373   0.1630754   0.1739667   0.1887824   0.1965509
           43          44          45          46          47          48
    1   0.2042991   0.2128497   0.2074366   0.2301130   0.2660015   0.2877991
           49          50          51          52          53          54
    1   0.2948296   0.2996666   0.3111620   0.3212232   0.3281754   0.3492084
           55          56          57          58          59          60
    1   0.3512223   0.3595298   0.3763348   0.3748516   0.3966300   0.4046489
           61          62          63          64          65          66
    1   0.4211100   0.4197454   0.4420070   0.4557197   0.4529847   0.4588384
           67          68          69          70          71          72
    1   0.4752832   0.4900547   0.5001617   0.5034621   0.5035662   0.5252772
           73          74          75          76          77          78
    1   0.5332578   0.5571661   0.5614610   0.5741262   0.5740879   0.5812648
           79          80          81          82          83          84
    1   0.5807579   0.6038738   0.6192971   0.6264880   0.6361400   0.6424815
           85          86          87          88          89          90
    1   0.6521836   0.6685195   0.6838264   0.6915699   0.7061325   0.7157265
           91          92          93          94          95          96
    1   0.7330100   0.7463197   0.7780087   0.7910118   0.8274056   0.8443219
           97          98          99         100         101         102
    1   0.8453375   0.8595672   0.8572325   0.8645900   0.8747816   0.8933362
          103         104         105         106         107         108
    1   0.9036217   0.9157941   0.9213902   0.9483700   0.9652206   0.9801817
          109         110         111         112         113         114
    1   0.9906518   1.0045779   1.0194519   1.0349300   1.0621632   1.0881638
          115         116         117         118         119         120
    1   1.0861637   1.0979345   1.1233334   1.1521257   1.1707550   1.1987825
          121         122         123         124         125         126
    1   1.1961244   1.2311612   1.2383189   1.2944284   1.3252023   1.3354176
          127         128         129         130         131         132
    1   1.3437359   1.3647710   1.3873197   1.4121260   1.4251554   1.4311305
          133         134         135         136         137         138
    1   1.4454212   1.4454105   1.4646703   1.4970713   1.5091006   1.5291107
          139         140         141         142         143         144
    1   1.5326862   1.5550125   1.5774416   1.6119517   1.6284402   1.6692346
          145         146         147         148         149         150
    1   1.6789877   1.7057541   1.7001174   1.7178701   1.7327420   1.7523375
          151         152         153         154         155         156
    1   1.7630870   1.7657028   1.7966317   1.8121035   1.8235405   1.8339022
          157         158         159         160         161         162
    1   1.8580602   1.8779048   1.8931307   1.9007806   1.9412518   1.9483927
          163         164         165         166         167         168
    1   1.9679229   1.9789855   1.9874348   2.0113616   2.0146892   2.0301372
          169         170         171         172         173         174
    1   2.0589441   2.0720457   2.0925704   2.1247325   2.1483423   2.2093406
          175         176         177         178         179         180
    1   2.2118404   2.2326413   2.2596569   2.2635219   2.2870119   2.3025373
          181         182         183         184         185         186
    1   2.3378713   2.3429665   2.3958118   2.4257500   2.4366160   2.4478182
          187         188         189         190         191         192
    1   2.4538372   2.4759033   2.5111663   2.5395493   2.5435905   2.5771510
          193         194         195         196         197         198
    1   2.5792450   2.6168396   2.6427945   2.6683250   2.7208411   2.7403833
          199         200         201         202         203         204
    1   2.7567885   2.7916187   2.7965387   2.8161608   2.8381603   2.8680111
          205         206         207         208         209         210
    1   2.8852459   2.9013033   2.9142113   2.9202802   2.9498901   2.9519732
          211         212         213         214         215         216
    1   2.9688171   2.9727777   2.9790249   3.0045128   3.0229362   3.0377234
          217         218         219         220         221         222
    1   3.0469628   3.0517185   3.0713578   3.0800190   3.1015924   3.1126206
          223         224         225         226         227         228
    1   3.1316723   3.1302064   3.1619054   3.1652836   3.1761993   3.2038021
          229         230         231         232         233         234
    1   3.2154438   3.2228287   3.2222635   3.2553575   3.2863370   3.2882410
          235         236         237         238         239         240
    1   3.3034381   3.3241202   3.3287002   3.3618896   3.3651725   3.3984416
          241         242         243         244         245         246
    1   3.4020413   3.4174664   3.4182486   3.4460567   3.4494309   3.4709636
          247         248         249         250         251         252
    1   3.4812450   3.5096595   3.5152707   3.5171748   3.5599242   3.5685115
          253         254         255         256         257         258
    1   3.5833988   3.5922844   3.6092747   3.6108160   3.6097388   3.6191895
          259         260         261         262         263         264
    1   3.6457922   3.6588363   3.6770104   3.6922284   3.6959953   3.7152729
          265         266         267         268         269         270
    1   3.7314427   3.7506305   3.7754061   3.7755744   3.8087873   3.8288810
          271         272         273         274         275         276
    1   3.8321119   3.8492158   3.8533046   3.8769431   3.8985119   3.9274390
          277         278         279         280         281         282
    1   3.9423545   3.9657436   4.0074949   4.0486332   4.0679450   4.0879975
          283         284         285         286         287         288
    1   4.1140004   4.1616534   4.1644631   4.1865911   4.1999484   4.2213313
          289         290         291         292         293         294
    1   4.2659057   4.2997523   4.3193924   4.3832567   4.3910358   4.3988990
          295         296         297         298         299         300
    1   4.4279684   4.4443630   4.4549460   4.4721496   4.5271528   4.5425612
          301         302         303         304         305         306
    1   4.5491135   4.5536355   4.5862276   4.5934201   4.6288058   4.6524979
          307         308         309         310         311         312
    1   4.6697038   4.7249762   4.7715452   4.8098836   4.8101749   4.9128372
          313         314         315         316         317         318
    1   4.9323942   4.9454857   4.9568852   5.0327929   5.0559484   5.1171281
          319         320         321         322         323         324
    1   5.1479503   5.1841694   5.2355318   5.2633170   5.3000251   5.3182992
          325         326         327         328         329         330
    1   5.3549036   5.3729792   5.4676863   5.4960879   5.5544633   5.5850948
          331         332         333         334         335         336
    1   5.5988856   5.6375688   5.7019572   5.7109475   5.8123255   5.8312474
          337         338         339         340         341         342
    1   5.9254747   6.0421208   6.1642334   6.1762921   6.2822271   6.6386172
          343         344         345         346         347         348
    1  23.2501329  23.5014920  23.6108032  23.7169792  23.8399141  23.9051188
          349         350         351         352
    1  23.9185127  24.0234641  24.5166501  33.8478015
 Final Beta MO Eigenvalues
            1           2           3           4           5           6
    1 -15.5588561 -11.2849787 -11.2637911 -11.2533006 -11.2511124 -11.2483906
            7           8           9          10          11          12
    1 -11.2402129 -11.2436083 -11.2365494 -11.2337788  -1.2402864  -1.1225353
           13          14          15          16          17          18
    1  -1.0760323  -1.0235044  -0.9666914  -0.8790741  -0.8400796  -0.8119118
           19          20          21          22          23          24
    1  -0.7220274  -0.6979317  -0.6823730  -0.6315251  -0.6131058  -0.5892901
           25          26          27          28          29          30
    1  -0.5698541  -0.5587334  -0.5290288  -0.5210252  -0.4940957  -0.4146450
           31          32          33          34          35          36
    1  -0.4123440  -0.3689344  -0.3352878   0.0269400   0.1487056   0.1442035
           37          38          39          40          41          42
    1   0.1463585   0.1539873   0.1643164   0.1756035   0.1905467   0.1985013
           43          44          45          46          47          48
    1   0.2059785   0.2181785   0.2514334   0.2332342   0.2740016   0.2924497
           49          50          51          52          53          54
    1   0.3109921   0.3049181   0.3172638   0.3245809   0.3447199   0.3569001
           55          56          57          58          59          60
    1   0.3549477   0.3639433   0.3858955   0.4103872   0.4129037   0.4095274
           61          62          63          64          65          66
    1   0.4265245   0.4310851   0.4479299   0.4611606   0.4771095   0.4760697
           67          68          69          70          71          72
    1   0.4799758   0.4951569   0.5070950   0.5186585   0.5251914   0.5391438
           73          74          75          76          77          78
    1   0.5394006   0.5608223   0.5705522   0.5792311   0.5860400   0.5852695
           79          80          81          82          83          84
    1   0.5887105   0.6096087   0.6267452   0.6378894   0.6588774   0.6478196
           85          86          87          88          89          90
    1   0.6552584   0.6732934   0.6972141   0.6954155   0.7099505   0.7225942
           91          92          93          94          95          96
    1   0.7454215   0.7513432   0.7854299   0.7962831   0.8306442   0.8475611
           97          98          99         100         101         102
    1   0.8495691   0.8667852   0.8724227   0.8712376   0.8784483   0.8997119
          103         104         105         106         107         108
    1   0.9260309   0.9223280   0.9543879   0.9534613   0.9804479   0.9852910
          109         110         111         112         113         114
    1   0.9960339   1.0209239   1.0230399   1.0488831   1.0667717   1.0947302
          115         116         117         118         119         120
    1   1.1057284   1.1122692   1.1307316   1.1581585   1.1767470   1.2046119
          121         122         123         124         125         126
    1   1.2160664   1.2450260   1.2522497   1.3053109   1.3431901   1.3394382
          127         128         129         130         131         132
    1   1.3540388   1.3697148   1.3943183   1.4203676   1.4451255   1.4397722
          133         134         135         136         137         138
    1   1.4489982   1.4590339   1.4680312   1.5015193   1.5133584   1.5429480
          139         140         141         142         143         144
    1   1.5364097   1.5627206   1.5837616   1.6180341   1.6332038   1.6914860
          145         146         147         148         149         150
    1   1.6821639   1.7091647   1.7232597   1.7223620   1.7387163   1.7608207
          151         152         153         154         155         156
    1   1.7678750   1.8041515   1.8012431   1.8220259   1.8266773   1.8388321
          157         158         159         160         161         162
    1   1.8614914   1.8878955   1.9038439   1.9030528   1.9451388   1.9787574
          163         164         165         166         167         168
    1   1.9739939   1.9899187   1.9928202   2.0175301   2.0187340   2.0393230
          169         170         171         172         173         174
    1   2.0617196   2.0743305   2.1015193   2.1414195   2.1573229   2.2185419
          175         176         177         178         179         180
    1   2.2181114   2.2365672   2.2684191   2.2661750   2.2936290   2.3070539
          181         182         183         184         185         186
    1   2.3425896   2.3488844   2.4049468   2.4347657   2.4477838   2.4570228
          187         188         189         190         191         192
    1   2.4596458   2.4816695   2.5164718   2.5446108   2.5484125   2.5862148
          193         194         195         196         197         198
    1   2.5837509   2.6214536   2.6578182   2.6713625   2.7321165   2.7525034
          199         200         201         202         203         204
    1   2.7601062   2.8007225   2.8059514   2.8192621   2.8440122   2.8709976
          205         206         207         208         209         210
    1   2.8908249   2.9063004   2.9305697   2.9262407   2.9524195   2.9591052
          211         212         213         214         215         216
    1   2.9786940   2.9863291   2.9821768   3.0176057   3.0295246   3.0432369
          217         218         219         220         221         222
    1   3.0538934   3.0580766   3.0821426   3.0841468   3.1089788   3.1185118
          223         224         225         226         227         228
    1   3.1392833   3.1431266   3.1656740   3.1781517   3.1792876   3.2104273
          229         230         231         232         233         234
    1   3.2283481   3.2277703   3.2330187   3.2714035   3.2915207   3.2927610
          235         236         237         238         239         240
    1   3.3104553   3.3306979   3.3400398   3.3660257   3.3736264   3.4075488
          241         242         243         244         245         246
    1   3.4084088   3.4273665   3.4319554   3.4515043   3.4544781   3.4776738
          247         248         249         250         251         252
    1   3.4947255   3.5198887   3.5208401   3.5329508   3.5629968   3.5746754
          253         254         255         256         257         258
    1   3.5872842   3.5952390   3.6159996   3.6135619   3.6251389   3.6299901
          259         260         261         262         263         264
    1   3.6483209   3.6730777   3.6810413   3.6971127   3.7104887   3.7179706
          265         266         267         268         269         270
    1   3.7414805   3.7561276   3.7795172   3.7838198   3.8135048   3.8335789
          271         272         273         274         275         276
    1   3.8423844   3.8592567   3.8586436   3.8860332   3.9020092   3.9297174
          277         278         279         280         281         282
    1   3.9491151   3.9705136   4.0109099   4.0524853   4.0768482   4.0913164
          283         284         285         286         287         288
    1   4.1199933   4.1657493   4.1707143   4.1907185   4.2089816   4.2253803
          289         290         291         292         293         294
    1   4.2701892   4.3058738   4.3239126   4.3896582   4.3969796   4.4112775
          295         296         297         298         299         300
    1   4.4350494   4.4478891   4.4593143   4.4848679   4.5310961   4.5459324
          301         302         303         304         305         306
    1   4.5574281   4.5568454   4.5900911   4.5996375   4.6336400   4.6545570
          307         308         309         310         311         312
    1   4.6762561   4.7311309   4.7737882   4.8135420   4.8148384   4.9210611
          313         314         315         316         317         318
    1   4.9362703   4.9494963   4.9600508   5.0409410   5.0594681   5.1219904
          319         320         321         322         323         324
    1   5.1529664   5.1866027   5.2388901   5.2666398   5.3033731   5.3243667
          325         326         327         328         329         330
    1   5.3605628   5.3770202   5.4705955   5.4991710   5.5572979   5.5879548
          331         332         333         334         335         336
    1   5.6025158   5.6414883   5.7051658   5.7132737   5.8144241   5.8337672
          337         338         339         340         341         342
    1   5.9293530   6.0453057   6.1656549   6.1786308   6.2833765   6.6399449
          343         344         345         346         347         348
    1  23.2527522  23.5032214  23.6155962  23.7202563  23.8439517  23.9084238
          349         350         351         352
    1  23.9198817  24.0243877  24.5175432  33.8491208
 SCF time:   CPU 618.65s  wall 620.00s 
<S^2> =          2.000000000
 SCF   energy in the final basis set =     -399.3826603106
 Total energy in the final basis set =     -399.3826603106
  
     ##========================================##
     ||                                        ||
     ||              R A S M A N 2             ||
     ||________________________________________||
     ||                                        ||
     ||  Author:                               ||
     ||                                        ||
     ||        David Casanova (2010)           ||
     ||                                        ||
     ##========================================##
  
Setting single-point xc-functionals (if necessary)

  ***************************************************
  *  RAS-CI Dimensions:                             *
  *                                                 *
  *  Active Elec.:   6 ( 4, 2)   Active Orb.:   7   *
  *  Doubly Occ. :  31           Doubly Vir.: 314   *
  *  Frozen Occ. :  11           Frozen Vir.: 294   *
  *                                                 *
  *  Total CI configurations:     53655             * 
  *    Active configurations:       735             * 
  *      Hole configurations:     33320             * 
  *  Particle configurations:     19600             * 
  *                                                 *
  *   Requested states:       20                    *
  *  Spin multiplicity: Any multiplicity            *
  *                                                 *
  ***************************************************
-----------------------------------------
    Memory requirements of RASCI

 Each CI-vector requires      0.41 MiB 
 Max. subspace vectors           3000      

 Reduced Lists                0.00 MiB 
 Excitation Lists             0.00 MiB 
 Excitation Lists Sign        0.00 MiB 
 CI-space (Max)            1304.94 MiB 
 Integrals                   99.07 MiB 
 Memory required (Max)     1304.95 MiB 
 Memory available          7811.55 MiB 

    Disk requirements of RASCI

 Fock matrix                  1.89 MiB 
 2-electron integrals         1.74 MiB 
 CI-space                  2456.13 MiB 
 Disk required             2459.76 MiB 
-----------------------------------------
  
RAS1 HF-like energy:           -393.6476863771
 Computing integrals
 Computing J and K matrices
 Computing addressing
 Making amplitude guesses
 
Direct CI diagonalization
 ---------------------------------------------------
 Iter    Rts Conv    Rts Left    Ttl Dev     Max Dev
 ---------------------------------------------------
   1         0          20      0.013428    0.001015
   2         0          20      0.009760    0.001051
   3         0          20      0.007841    0.000643
   4         0          20      0.007011    0.000720
   5         0          20      0.006409    0.000643
   6         0          20      0.005258    0.000439
   7         0          20      0.004574    0.000388
   8         0          20      0.004095    0.000340
   9         0          20      0.003600    0.000555
  10         0          20      0.002539    0.000470
  11         1          19      0.001785    0.000272
  12         1          19      0.001203    0.000188
  13         1          19      0.001366    0.000514
  14         1          19      0.001241    0.000335
  15         3          17      0.000773    0.000256
  16         3          17      0.000540    0.000182
  17         6          14      0.000518    0.000142
  18         9          11      0.000400    0.000121
  19         9          11      0.000330    0.000115
  20        10          10      0.000284    0.000114
  21        11           9      0.000230    0.000102
  22        12           8      0.000177    0.000083
  23        13           7      0.000131    0.000060
  24        13           7      0.000099    0.000039
  25        14           6      0.000125    0.000072
  26        16           4      0.000090    0.000053
  27        16           4      0.000068    0.000040
  28        16           4      0.000051    0.000030
  29        16           4      0.000039    0.000023
  30        16           4      0.000029    0.000017
  31        16           4      0.000021    0.000012
  32        17           3      0.000016    0.000009
  33        18           2      0.000012    0.000006
  34        19           1      0.000010    0.000004
  35        19           1      0.000008    0.000003
  36        19           1      0.000006    0.000002
  37        19           1      0.000006    0.000001
  38        20           0      0.000005    0.000001    Roots Converged
 ---------------------------------------------------
   
**************************************************
 RAS-CI total energy for state   1:   -399.409268703186
  Excitation energy (eV) =  0.000000000000
  State symmetry: A'    (Cs       )
  <S^2>      :  2.0000
  Dipole Moment:   -0.5772 X     0.7586 Y     0.0000 Z
 NATURAL OCCUPATION NUMBERS (higher than 1.0E-05)
            1           2           3           4           5           6
    1   2.0000000   2.0000000   2.0000000   2.0000000   2.0000000   2.0000000
            7           8           9          10          11          12
    1   2.0000000   2.0000000   2.0000000   2.0000000   2.0000000   1.9999997
           13          14          15          16          17          18
    1   1.9999994   1.9999991   1.9999989   1.9999978   1.9999965   1.9999947
           19          20          21          22          23          24
    1   1.9999903   1.9999896   1.9999871   1.9999840   1.9999806   1.9999762
           25          26          27          28          29          30
    1   1.9999506   1.9999332   1.9998907   1.9998395   1.9988007   1.9968513
           31          32          33          34          35          36
    1   1.9863563   1.9751740   1.9655228   1.0262697   0.9756315   0.0428501
           37          38          39          40          41          42
    1   0.0219453   0.0083852   0.0011537   0.0004583   0.0004433   0.0003275
           43          44          45          46
    1   0.0001887   0.0000388   0.0000382   0.0000279

 Head-Gordon Nu:    2.10
 Head-Gordon Nu_nl: 2.01

  Amplitudes : 
  
 | HOLE  | ALPHA   | BETA    | PART  |    AMPLITUDE 
--------------------------------------------------
 |       | 1111000 | 1100000 |       |     9.4836778258865E-01
 |       | 1110100 | 1100000 |       |     1.1536598288561E-01
 |  30   | 1110100 | 1110000 |       |     1.2415262038765E-01
--------------------------------------------------
*** Contributions RASCI wfn    Active:  92.82
                                 Hole:   5.73
                                 Part:   1.45

      Mulliken population analysis 
 ---------------------------------------------------
   Atom    Charge (a.u.)   Spin (a.u.)  
 ---------------------------------------------------
   1  C   -0.026129       -0.033314 
   2  C    0.322471       -0.013518 
   3  C   -0.116124        0.601654 
   4  C   -0.139086        0.119950 
   5  C   -0.083366        0.105959 
   6  C   -0.229707        0.644293 
   7  N   -0.340062        0.164346 
   8  C   -0.201122        0.239129 
   9  C   -0.118552        0.067104 
  10  C    0.005760        0.107170 
  11  H    0.134044        0.000648 
  12  H    0.127363       -0.000114 
  13  H    0.124782        0.000202 
  14  H    0.138806       -0.004969 
  15  H    0.130971        0.000811 
  16  H    0.130687        0.000413 
  17  H    0.139264        0.000236 
 ---------------------------------------------------
   Sum:    0.000000        2.000000 
 ---------------------------------------------------
 
  
 NATURAL OCCUPATION NUMBERS (higher than 1.0E-05)
            1           2           3           4           5           6
    1   2.0000000   2.0000000   2.0000000   2.0000000   2.0000000   2.0000000
            7           8           9          10          11          12
    1   2.0000000   2.0000000   2.0000000   2.0000000   2.0000000   1.9999997
           13          14          15          16          17          18
    1   1.9999994   1.9999991   1.9999989   1.9999978   1.9999965   1.9999947
           19          20          21          22          23          24
    1   1.9999903   1.9999896   1.9999871   1.9999840   1.9999806   1.9999762
           25          26          27          28          29          30
    1   1.9999506   1.9999332   1.9998907   1.9998395   1.9988007   1.9968513
           31          32          33          34          35          36
    1   1.9863563   1.9751740   1.9655228   1.0262697   0.9756315   0.0428501
           37          38          39          40          41          42
    1   0.0219453   0.0083852   0.0011537   0.0004583   0.0004433   0.0003275
           43          44          45          46
    1   0.0001887   0.0000388   0.0000382   0.0000279
  
*** Unpaired Electrons
 Yamaguchi Nd:         2.30
 Head-Gordon Nu:       2.10
 Head-Gordon Nu_nl:    2.01
  
**************************************************
 RAS-CI total energy for state   2:   -399.320425544202
  Excitation energy (eV) =  2.417545356814
  State symmetry: A'    (Cs       )
  <S^2>      :  2.0000
  Dipole Moment:   -0.5696 X     0.6513 Y     0.0000 Z
  Trans. Moment:   -0.5690 X    -0.0958 Y     0.0000 Z
  Strength   :  0.019723
  Natural transition orbitals ( 1 -> 2 ):
   e-/hole pair  1 alpha:  ampl =  0.781440 ( 61.1%)   [7 : 8]
   e-/hole pair  2 alpha:  ampl =  0.079534 (  0.6%)   [6 : 9]
   e-/hole pair  1 beta :  ampl =  0.459330 ( 21.1%)   [7 : 8]
   e-/hole pair  2 beta :  ampl =  0.114784 (  1.3%)   [6 : 9]
   Sum of square amplitudes: 0.86

 NATURAL OCCUPATION NUMBERS (higher than 1.0E-05)
            1           2           3           4           5           6
    1   2.0000000   2.0000000   2.0000000   2.0000000   2.0000000   2.0000000
            7           8           9          10          11          12
    1   2.0000000   2.0000000   2.0000000   2.0000000   2.0000000   1.9999999
           13          14          15          16          17          18
    1   1.9999994   1.9999991   1.9999990   1.9999979   1.9999969   1.9999955
           19          20          21          22          23          24
    1   1.9999928   1.9999918   1.9999896   1.9999871   1.9999809   1.9999756
           25          26          27          28          29          30
    1   1.9999716   1.9999643   1.9999301   1.9998968   1.9991504   1.9975258
           31          32          33          34          35          36
    1   1.9787664   1.9640740   1.7370284   1.2097618   0.7676722   0.3208867
           37          38          39          40          41          42
    1   0.0181775   0.0045934   0.0013726   0.0004548   0.0003025   0.0002812
           43          44          45          46          47          48
    1   0.0001495   0.0000495   0.0000314   0.0000198   0.0000116   0.0000109

 Head-Gordon Nu:    2.23
 Head-Gordon Nu_nl: 2.32

  Amplitudes : 
  
 | HOLE  | ALPHA   | BETA    | PART  |    AMPLITUDE 
--------------------------------------------------
 |       | 1111000 | 1100000 |       |    -2.3229711598838E-01
 |       | 1110100 | 1100000 |       |     6.0133739509049E-01
 |       | 1110010 | 1100000 |       |     3.8314047400560E-01
 |  30   | 1111000 | 1110000 |       |     3.7750303220668E-01
 |  31   | 1111000 | 1110000 |       |     1.0733076795621E-01
 |  30   | 1110100 | 1110000 |       |     3.2593425741012E-01
 |  30   | 1110010 | 1110000 |       |     2.1577882094874E-01
 |  30   | 1101100 | 1101000 |       |    -1.0051369409612E-01
--------------------------------------------------
*** Contributions RASCI wfn    Active:  59.38
                                 Hole:  39.62
                                 Part:   1.00

      Mulliken population analysis 
 ---------------------------------------------------
   Atom    Charge (a.u.)   Spin (a.u.)  
 ---------------------------------------------------
   1  C   -0.039696        0.231345 
   2  C    0.268312        0.118445 
   3  C   -0.143963        0.260959 
   4  C   -0.112134        0.077483 
   5  C   -0.067519        0.031897 
   6  C   -0.237137        0.412547 
   7  N   -0.297483        0.317882 
   8  C   -0.198420        0.398005 
   9  C   -0.118163        0.050570 
  10  C    0.006545        0.096823 
  11  H    0.132663        0.003029 
  12  H    0.131015        0.000336 
  13  H    0.127565        0.000595 
  14  H    0.144125       -0.001354 
  15  H    0.130998        0.000480 
  16  H    0.131554        0.000074 
  17  H    0.141739        0.000886 
 ---------------------------------------------------
   Sum:    0.000000        2.000000 
 ---------------------------------------------------
 
  
 NATURAL OCCUPATION NUMBERS (higher than 1.0E-05)
            1           2           3           4           5           6
    1   2.0000000   2.0000000   2.0000000   2.0000000   2.0000000   2.0000000
            7           8           9          10          11          12
    1   2.0000000   2.0000000   2.0000000   2.0000000   2.0000000   1.9999999
           13          14          15          16          17          18
    1   1.9999994   1.9999991   1.9999990   1.9999979   1.9999969   1.9999955
           19          20          21          22          23          24
    1   1.9999928   1.9999918   1.9999896   1.9999871   1.9999809   1.9999756
           25          26          27          28          29          30
    1   1.9999716   1.9999643   1.9999301   1.9998968   1.9991504   1.9975258
           31          32          33          34          35          36
    1   1.9787664   1.9640740   1.7370284   1.2097618   0.7676722   0.3208867
           37          38          39          40          41          42
    1   0.0181775   0.0045934   0.0013726   0.0004548   0.0003025   0.0002812
           43          44          45          46          47          48
    1   0.0001495   0.0000495   0.0000314   0.0000198   0.0000116   0.0000109
  
*** Unpaired Electrons
 Yamaguchi Nd:         3.07
 Head-Gordon Nu:       2.23
 Head-Gordon Nu_nl:    2.32
  
**************************************************
 RAS-CI total energy for state   3:   -399.311313127115
  Excitation energy (eV) =  2.665506841655
  State symmetry: A"    (Cs       )
  <S^2>      :  2.0000
  Dipole Moment:    0.1035 X    -0.3938 Y     0.0000 Z
  Trans. Moment:   -0.0000 X    -0.0000 Y    -0.0844 Z
  Strength   :  0.000465
  Natural transition orbitals ( 1 -> 3 ):
   e-/hole pair  1 alpha:  ampl =  0.019408 (  0.0%)   [7 : 8]
   e-/hole pair  2 alpha:  ampl =  0.010163 (  0.0%)   [6 : 9]
   e-/hole pair  1 beta :  ampl =  0.784800 ( 61.6%)   [7 : 8]
   e-/hole pair  2 beta :  ampl =  0.037660 (  0.1%)   [6 : 9]
   Sum of square amplitudes: 0.62

 NATURAL OCCUPATION NUMBERS (higher than 1.0E-05)
            1           2           3           4           5           6
    1   2.0000000   2.0000000   2.0000000   2.0000000   2.0000000   2.0000000
            7           8           9          10          11          12
    1   2.0000000   2.0000000   2.0000000   2.0000000   2.0000000   1.9999995
           13          14          15          16          17          18
    1   1.9999986   1.9999975   1.9999950   1.9999933   1.9999876   1.9999814
           19          20          21          22          23          24
    1   1.9999766   1.9999513   1.9999335   1.9999097   1.9998568   1.9998109
           25          26          27          28          29          30
    1   1.9996572   1.9991357   1.9989045   1.9984273   1.9958757   1.9951930
           31          32          33          34          35          36
    1   1.9886277   1.9817947   1.9078667   1.0074386   1.0015266   0.0783132
           37          38          39          40          41          42
    1   0.0288241   0.0116192   0.0053205   0.0007208   0.0005710   0.0004851
           43          44          45
    1   0.0001840   0.0000732   0.0000205

 Head-Gordon Nu:    2.25
 Head-Gordon Nu_nl: 2.06

  Amplitudes : 
  
 | HOLE  | ALPHA   | BETA    | PART  |    AMPLITUDE 
--------------------------------------------------
 |       | 1111000 | 1010000 |       |     6.5535458679815E-01
 |       | 1111000 | 1001000 |       |     1.0268453154255E-01
 |       | 1111000 | 1000010 |       |     1.2566280434567E-01
 |       | 1110100 | 1010000 |       |     4.7444685684482E-01
 |       | 1110010 | 1010000 |       |     3.3961027675542E-01
 |       | 1101100 | 1001000 |       |    -1.0556130630088E-01
 |       | 1110000 | 1010000 |  49   |    -1.0086521846035E-01
--------------------------------------------------
*** Contributions RASCI wfn    Active:  85.86
                                 Hole:   7.19
                                 Part:   6.96

      Mulliken population analysis 
 ---------------------------------------------------
   Atom    Charge (a.u.)   Spin (a.u.)  
 ---------------------------------------------------
   1  C   -0.001727        0.037528 
   2  C    0.204049        0.155464 
   3  C   -0.130207        0.178726 
   4  C   -0.155038       -0.023040 
   5  C   -0.121788        0.099994 
   6  C   -0.245722       -0.004858 
   7  N   -0.058796        0.831559 
   8  C   -0.230516        0.398178 
   9  C   -0.146864        0.024034 
  10  C   -0.081515        0.273526 
  11  H    0.139416        0.006957 
  12  H    0.141978        0.005900 
  13  H    0.140929        0.010318 
  14  H    0.135290        0.004381 
  15  H    0.131190       -0.000116 
  16  H    0.131501        0.001605 
  17  H    0.147823       -0.000156 
 ---------------------------------------------------
   Sum:    0.000000        2.000000 
 ---------------------------------------------------
 
  
 NATURAL OCCUPATION NUMBERS (higher than 1.0E-05)
            1           2           3           4           5           6
    1   2.0000000   2.0000000   2.0000000   2.0000000   2.0000000   2.0000000
            7           8           9          10          11          12
    1   2.0000000   2.0000000   2.0000000   2.0000000   2.0000000   1.9999995
           13          14          15          16          17          18
    1   1.9999986   1.9999975   1.9999950   1.9999933   1.9999876   1.9999814
           19          20          21          22          23          24
    1   1.9999766   1.9999513   1.9999335   1.9999097   1.9998568   1.9998109
           25          26          27          28          29          30
    1   1.9996572   1.9991357   1.9989045   1.9984273   1.9958757   1.9951930
           31          32          33          34          35          36
    1   1.9886277   1.9817947   1.9078667   1.0074386   1.0015266   0.0783132
           37          38          39          40          41          42
    1   0.0288241   0.0116192   0.0053205   0.0007208   0.0005710   0.0004851
           43          44          45
    1   0.0001840   0.0000732   0.0000205
  
*** Unpaired Electrons
 Yamaguchi Nd:         2.51
 Head-Gordon Nu:       2.25
 Head-Gordon Nu_nl:    2.06
  
**************************************************
 RAS-CI total energy for state   4:   -399.309573943259
  Excitation energy (eV) =  2.712832442235
  State symmetry: A'    (Cs       )
  <S^2>      :  2.0000
  Dipole Moment:   -0.2123 X     0.8133 Y     0.0000 Z
  Trans. Moment:   -0.0057 X     0.0466 Y     0.0000 Z
  Strength   :  0.000147
  Natural transition orbitals ( 1 -> 4 ):
   e-/hole pair  1 alpha:  ampl =  0.805060 ( 64.8%)   [7 : 8]
   e-/hole pair  2 alpha:  ampl =  0.069188 (  0.5%)   [6 : 9]
   e-/hole pair  1 beta :  ampl =  0.449586 ( 20.2%)   [7 : 8]
   e-/hole pair  2 beta :  ampl =  0.085222 (  0.7%)   [6 : 9]
   Sum of square amplitudes: 0.87

 NATURAL OCCUPATION NUMBERS (higher than 1.0E-05)
            1           2           3           4           5           6
    1   2.0000000   2.0000000   2.0000000   2.0000000   2.0000000   2.0000000
            7           8           9          10          11          12
    1   2.0000000   2.0000000   2.0000000   2.0000000   2.0000000   1.9999996
           13          14          15          16          17          18
    1   1.9999994   1.9999991   1.9999982   1.9999979   1.9999958   1.9999938
           19          20          21          22          23          24
    1   1.9999923   1.9999905   1.9999878   1.9999827   1.9999724   1.9999685
           25          26          27          28          29          30
    1   1.9999531   1.9999467   1.9999249   1.9998755   1.9987353   1.9953137
           31          32          33          34          35          36
    1   1.9852138   1.9315053   1.7594205   1.2295087   0.7409045   0.3033363
           37          38          39          40          41          42
    1   0.0434156   0.0101288   0.0014956   0.0006024   0.0003407   0.0002709
           43          44          45          46
    1   0.0000962   0.0000539   0.0000305   0.0000159

 Head-Gordon Nu:    2.20
 Head-Gordon Nu_nl: 2.24

  Amplitudes : 
  
 | HOLE  | ALPHA   | BETA    | PART  |    AMPLITUDE 
--------------------------------------------------
 |       | 1111000 | 0110000 |       |    -1.8382236647466E-01
 |       | 1110100 | 1100000 |       |     3.7799289235272E-01
 |       | 1110010 | 1100000 |       |    -6.6292911821180E-01
 |       | 1101010 | 0110000 |       |    -1.1449855394857E-01
 |       | 0111010 | 1100000 |       |    -1.5412326992218E-01
 |  31   | 1111000 | 1110000 |       |     3.9252268470761E-01
 |  31   | 1110100 | 1110000 |       |     1.9901005189245E-01
 |  30   | 1110010 | 1110000 |       |    -1.1591631986506E-01
 |       | 1110000 | 1100000 |  45   |     1.4473855650583E-01
--------------------------------------------------
*** Contributions RASCI wfn    Active:  69.14
                                 Hole:  26.13
                                 Part:   4.73

      Mulliken population analysis 
 ---------------------------------------------------
   Atom    Charge (a.u.)   Spin (a.u.)  
 ---------------------------------------------------
   1  C   -0.073328        0.100985 
   2  C    0.232702        0.195171 
   3  C   -0.052777        0.323500 
   4  C   -0.188724        0.307468 
   5  C   -0.121181        0.270018 
   6  C   -0.167370        0.300325 
   7  N   -0.321738        0.105342 
   8  C   -0.169102        0.124872 
   9  C   -0.112100        0.135550 
  10  C    0.033262        0.132247 
  11  H    0.135459        0.000641 
  12  H    0.125163        0.000059 
  13  H    0.124655        0.000494 
  14  H    0.148825       -0.001443 
  15  H    0.129400        0.002632 
  16  H    0.130405        0.002077 
  17  H    0.146449        0.000061 
 ---------------------------------------------------
   Sum:    0.000000        2.000000 
 ---------------------------------------------------
 
  
 NATURAL OCCUPATION NUMBERS (higher than 1.0E-05)
            1           2           3           4           5           6
    1   2.0000000   2.0000000   2.0000000   2.0000000   2.0000000   2.0000000
            7           8           9          10          11          12
    1   2.0000000   2.0000000   2.0000000   2.0000000   2.0000000   1.9999996
           13          14          15          16          17          18
    1   1.9999994   1.9999991   1.9999982   1.9999979   1.9999958   1.9999938
           19          20          21          22          23          24
    1   1.9999923   1.9999905   1.9999878   1.9999827   1.9999724   1.9999685
           25          26          27          28          29          30
    1   1.9999531   1.9999467   1.9999249   1.9998755   1.9987353   1.9953137
           31          32          33          34          35          36
    1   1.9852138   1.9315053   1.7594205   1.2295087   0.7409045   0.3033363
           37          38          39          40          41          42
    1   0.0434156   0.0101288   0.0014956   0.0006024   0.0003407   0.0002709
           43          44          45          46
    1   0.0000962   0.0000539   0.0000305   0.0000159
  
*** Unpaired Electrons
 Yamaguchi Nd:         3.10
 Head-Gordon Nu:       2.20
 Head-Gordon Nu_nl:    2.24
  
**************************************************
 RAS-CI total energy for state   5:   -399.290230499130
  Excitation energy (eV) =  3.239194337419
  State symmetry: A'    (Cs       )
  <S^2>      :  2.0000
  Dipole Moment:   -0.0692 X     0.7308 Y     0.0000 Z
  Trans. Moment:    0.0175 X    -0.0616 Y     0.0000 Z
  Strength   :  0.000326
  Natural transition orbitals ( 1 -> 5 ):
   e-/hole pair  1 alpha:  ampl =  0.449126 ( 20.2%)   [7 : 8]
   e-/hole pair  2 alpha:  ampl =  0.086982 (  0.8%)   [6 : 9]
   e-/hole pair  1 beta :  ampl =  0.696232 ( 48.5%)   [7 : 8]
   e-/hole pair  2 beta :  ampl =  0.073550 (  0.5%)   [6 : 9]
   Sum of square amplitudes: 0.70

 NATURAL OCCUPATION NUMBERS (higher than 1.0E-05)
            1           2           3           4           5           6
    1   2.0000000   2.0000000   2.0000000   2.0000000   2.0000000   2.0000000
            7           8           9          10          11          12
    1   2.0000000   2.0000000   2.0000000   2.0000000   2.0000000   1.9999998
           13          14          15          16          17          18
    1   1.9999996   1.9999995   1.9999987   1.9999985   1.9999977   1.9999969
           19          20          21          22          23          24
    1   1.9999967   1.9999947   1.9999929   1.9999919   1.9999884   1.9999755
           25          26          27          28          29          30
    1   1.9999643   1.9999515   1.9999376   1.9998506   1.9994244   1.9966038
           31          32          33          34          35          36
    1   1.9907528   1.9814221   1.6785602   1.2411173   0.7922053   0.2336521
           37          38          39          40          41          42
    1   0.0809028   0.0040719   0.0005651   0.0003733   0.0003121   0.0002638
           43          44          45
    1   0.0000531   0.0000290   0.0000272

 Head-Gordon Nu:    2.22
 Head-Gordon Nu_nl: 2.29

  Amplitudes : 
  
 | HOLE  | ALPHA   | BETA    | PART  |    AMPLITUDE 
--------------------------------------------------
 |       | 1110100 | 1100000 |       |    -3.0944196089528E-01
 |       | 1110010 | 1100000 |       |     3.0367515681665E-01
 |  31   | 1111000 | 1110000 |       |     6.1908555889168E-01
 |  31   | 1110100 | 1110000 |       |     4.2392752230290E-01
 |  31   | 1110010 | 1110000 |       |     3.2582304091366E-01
 |  31   | 1101100 | 1101000 |       |    -1.3751472472808E-01
 |  31   | 1101010 | 1101000 |       |    -1.0522610026448E-01
--------------------------------------------------
*** Contributions RASCI wfn    Active:  22.61
                                 Hole:  75.78
                                 Part:   1.60

      Mulliken population analysis 
 ---------------------------------------------------
   Atom    Charge (a.u.)   Spin (a.u.)  
 ---------------------------------------------------
   1  C    0.035495        0.239008 
   2  C    0.393675        0.237357 
   3  C   -0.170051        0.169658 
   4  C   -0.118565        0.115591 
   5  C   -0.044226        0.150538 
   6  C   -0.318299        0.109579 
   7  N   -0.475356        0.147659 
   8  C   -0.371644        0.279983 
   9  C    0.026337        0.276190 
  10  C    0.100728        0.267673 
  11  H    0.132868        0.002491 
  12  H    0.131397        0.001074 
  13  H    0.127293        0.001397 
  14  H    0.144084       -0.000255 
  15  H    0.130956        0.000896 
  16  H    0.130873        0.001121 
  17  H    0.144436        0.000040 
 ---------------------------------------------------
   Sum:    0.000000        2.000000 
 ---------------------------------------------------
 
  
 NATURAL OCCUPATION NUMBERS (higher than 1.0E-05)
            1           2           3           4           5           6
    1   2.0000000   2.0000000   2.0000000   2.0000000   2.0000000   2.0000000
            7           8           9          10          11          12
    1   2.0000000   2.0000000   2.0000000   2.0000000   2.0000000   1.9999998
           13          14          15          16          17          18
    1   1.9999996   1.9999995   1.9999987   1.9999985   1.9999977   1.9999969
           19          20          21          22          23          24
    1   1.9999967   1.9999947   1.9999929   1.9999919   1.9999884   1.9999755
           25          26          27          28          29          30
    1   1.9999643   1.9999515   1.9999376   1.9998506   1.9994244   1.9966038
           31          32          33          34          35          36
    1   1.9907528   1.9814221   1.6785602   1.2411173   0.7922053   0.2336521
           37          38          39          40          41          42
    1   0.0809028   0.0040719   0.0005651   0.0003733   0.0003121   0.0002638
           43          44          45
    1   0.0000531   0.0000290   0.0000272
  
*** Unpaired Electrons
 Yamaguchi Nd:         3.08
 Head-Gordon Nu:       2.22
 Head-Gordon Nu_nl:    2.29
  
**************************************************
 RAS-CI total energy for state   6:   -399.269135880911
  Excitation energy (eV) =  3.813208104075
  State symmetry: A'    (Cs       )
  <S^2>      :  2.0000
  Dipole Moment:   -1.1476 X     0.8981 Y     0.0000 Z
  Trans. Moment:   -0.0273 X    -0.2380 Y     0.0000 Z
  Strength   :  0.005360
  Natural transition orbitals ( 1 -> 6 ):
   e-/hole pair  1 alpha:  ampl =  0.464309 ( 21.6%)   [7 : 8]
   e-/hole pair  2 alpha:  ampl =  0.180835 (  3.3%)   [6 : 9]
   e-/hole pair  1 beta :  ampl =  0.691132 ( 47.8%)   [7 : 8]
   e-/hole pair  2 beta :  ampl =  0.145548 (  2.1%)   [6 : 9]
   Sum of square amplitudes: 0.78

 NATURAL OCCUPATION NUMBERS (higher than 1.0E-05)
            1           2           3           4           5           6
    1   2.0000000   2.0000000   2.0000000   2.0000000   2.0000000   2.0000000
            7           8           9          10          11          12
    1   2.0000000   2.0000000   2.0000000   2.0000000   2.0000000   1.9999995
           13          14          15          16          17          18
    1   1.9999994   1.9999992   1.9999985   1.9999979   1.9999971   1.9999969
           19          20          21          22          23          24
    1   1.9999951   1.9999937   1.9999931   1.9999898   1.9999866   1.9999770
           25          26          27          28          29          30
    1   1.9999739   1.9999536   1.9998991   1.9998412   1.9990700   1.9935811
           31          32          33          34          35          36
    1   1.9790250   1.8426881   1.5474883   1.4146963   0.7321602   0.3133319
           37          38          39          40          41          42
    1   0.1264178   0.0480402   0.0015732   0.0013115   0.0003841   0.0003817
           43          44          45          46
    1   0.0001277   0.0000590   0.0000281   0.0000168

 Head-Gordon Nu:    2.45
 Head-Gordon Nu_nl: 2.47

  Amplitudes : 
  
 | HOLE  | ALPHA   | BETA    | PART  |    AMPLITUDE 
--------------------------------------------------
 |       | 1111000 | 0110000 |       |     6.4752577210207E-01
 |       | 1110100 | 1100000 |       |     1.3691062835495E-01
 |       | 1110010 | 1100000 |       |    -1.7567446251942E-01
 |       | 1101100 | 1100000 |       |     1.1517280257637E-01
 |  31   | 1111100 | 1100000 |       |     1.3029063310459E-01
 |  31   | 1111010 | 1100000 |       |    -1.6188614307640E-01
 |  30   | 1111000 | 1110000 |       |    -1.3352698753030E-01
 |  31   | 1111000 | 1110000 |       |    -1.4234452725129E-01
 |  31   | 1111000 | 1100010 |       |     1.0190602105989E-01
 |  31   | 1110100 | 1110000 |       |     2.0417424063259E-01
 |  31   | 1110100 | 1101000 |       |    -1.1180488672153E-01
 |  30   | 1110010 | 1110000 |       |    -1.2444656307909E-01
 |  31   | 1110010 | 1101000 |       |     1.3086412816524E-01
 |  31   | 1101100 | 1110000 |       |     1.1502759409246E-01
 |  31   | 1101010 | 1110000 |       |    -1.3292803597105E-01
 |       | 1110000 | 1100000 |  45   |    -3.5720528363753E-01
 |       | 0111000 | 1100000 |  45   |    -1.2688752801806E-01
 |       | 1101000 | 0110000 |  45   |    -1.5572280379193E-01
 |       | 1110000 | 0101000 |  45   |     1.3269063551690E-01
 |       | 1111000 | 0100000 |  45   |     1.6152591129078E-01
--------------------------------------------------
*** Contributions RASCI wfn    Active:  50.21
                                 Hole:  26.03
                                 Part:  23.76

      Mulliken population analysis 
 ---------------------------------------------------
   Atom    Charge (a.u.)   Spin (a.u.)  
 ---------------------------------------------------
   1  C   -0.032849        0.070869 
   2  C    0.299155        0.039723 
   3  C   -0.135410        0.212573 
   4  C   -0.071841        0.345493 
   5  C   -0.038571        0.296278 
   6  C   -0.254878        0.466551 
   7  N   -0.357396        0.105284 
   8  C   -0.170517        0.108504 
   9  C   -0.152485        0.173558 
  10  C    0.000931        0.174318 
  11  H    0.133385        0.000489 
  12  H    0.127488        0.000767 
  13  H    0.125403        0.001055 
  14  H    0.132280       -0.000608 
  15  H    0.130214        0.001919 
  16  H    0.130644        0.001642 
  17  H    0.134447        0.001584 
 ---------------------------------------------------
   Sum:    0.000000        2.000000 
 ---------------------------------------------------
 
  
 NATURAL OCCUPATION NUMBERS (higher than 1.0E-05)
            1           2           3           4           5           6
    1   2.0000000   2.0000000   2.0000000   2.0000000   2.0000000   2.0000000
            7           8           9          10          11          12
    1   2.0000000   2.0000000   2.0000000   2.0000000   2.0000000   1.9999995
           13          14          15          16          17          18
    1   1.9999994   1.9999992   1.9999985   1.9999979   1.9999971   1.9999969
           19          20          21          22          23          24
    1   1.9999951   1.9999937   1.9999931   1.9999898   1.9999866   1.9999770
           25          26          27          28          29          30
    1   1.9999739   1.9999536   1.9998991   1.9998412   1.9990700   1.9935811
           31          32          33          34          35          36
    1   1.9790250   1.8426881   1.5474883   1.4146963   0.7321602   0.3133319
           37          38          39          40          41          42
    1   0.1264178   0.0480402   0.0015732   0.0013115   0.0003841   0.0003817
           43          44          45          46
    1   0.0001277   0.0000590   0.0000281   0.0000168
  
*** Unpaired Electrons
 Yamaguchi Nd:         3.67
 Head-Gordon Nu:       2.45
 Head-Gordon Nu_nl:    2.47
  
**************************************************
 RAS-CI total energy for state   7:   -399.257070013405
  Excitation energy (eV) =  4.141537063781
  State symmetry: A'    (Cs       )
  <S^2>      :  2.0000
  Dipole Moment:   -0.2668 X     0.8211 Y     0.0000 Z
  Trans. Moment:   -0.4376 X    -0.0476 Y     0.0000 Z
  Strength   :  0.019661
  Natural transition orbitals ( 1 -> 7 ):
   e-/hole pair  1 alpha:  ampl =  0.244569 (  6.0%)   [7 : 8]
   e-/hole pair  2 alpha:  ampl =  0.105208 (  1.1%)   [6 : 9]
   e-/hole pair  1 beta :  ampl =  0.299774 (  9.0%)   [7 : 8]
   e-/hole pair  2 beta :  ampl =  0.133807 (  1.8%)   [6 : 9]
   Sum of square amplitudes: 0.19

 NATURAL OCCUPATION NUMBERS (higher than 1.0E-05)
            1           2           3           4           5           6
    1   2.0000000   2.0000000   2.0000000   2.0000000   2.0000000   2.0000000
            7           8           9          10          11          12
    1   2.0000000   2.0000000   2.0000000   2.0000000   2.0000000   1.9999998
           13          14          15          16          17          18
    1   1.9999998   1.9999995   1.9999992   1.9999989   1.9999987   1.9999980
           19          20          21          22          23          24
    1   1.9999972   1.9999968   1.9999954   1.9999920   1.9999911   1.9999855
           25          26          27          28          29          30
    1   1.9999753   1.9999663   1.9999464   1.9998668   1.9992604   1.9947934
           31          32          33          34          35          36
    1   1.9040991   1.8921051   1.6973305   1.2834816   0.7033333   0.3267384
           37          38          39          40          41          42
    1   0.1385717   0.0585283   0.0010125   0.0003479   0.0002472   0.0001994
           43          44
    1   0.0001933   0.0000176

 Head-Gordon Nu:    2.46
 Head-Gordon Nu_nl: 2.39

  Amplitudes : 
  
 | HOLE  | ALPHA   | BETA    | PART  |    AMPLITUDE 
--------------------------------------------------
 |       | 1110100 | 1100000 |       |     2.2147084586523E-01
 |  30   | 1111000 | 1110000 |       |    -2.1465997392834E-01
 |  30   | 1110100 | 1110000 |       |    -2.1855798363444E-01
 |  31   | 1110100 | 1110000 |       |    -4.7931666859030E-01
 |  30   | 1110010 | 1110000 |       |    -1.3899351651225E-01
 |  31   | 1110010 | 1110000 |       |     5.9016505814323E-01
 |  31   | 1101100 | 1101000 |       |     1.3291324568640E-01
 |  31   | 1101010 | 1101000 |       |    -1.7552061735202E-01
 |       | 1110000 | 0110000 |  45   |     2.1452837593225E-01
--------------------------------------------------
*** Contributions RASCI wfn    Active:   9.66
                                 Hole:  83.60
                                 Part:   6.74

      Mulliken population analysis 
 ---------------------------------------------------
   Atom    Charge (a.u.)   Spin (a.u.)  
 ---------------------------------------------------
   1  C    0.010465        0.227011 
   2  C    0.328902        0.197000 
   3  C   -0.178812        0.186750 
   4  C   -0.149292        0.263811 
   5  C   -0.035489        0.364480 
   6  C   -0.285933       -0.023946 
   7  N   -0.369910        0.050085 
   8  C   -0.199736        0.148687 
   9  C   -0.070988        0.271929 
  10  C    0.018951        0.303774 
  11  H    0.134241        0.001007 
  12  H    0.127650        0.002089 
  13  H    0.124359        0.002340 
  14  H    0.143010        0.000568 
  15  H    0.130036        0.002127 
  16  H    0.130768        0.002589 
  17  H    0.141777       -0.000299 
 ---------------------------------------------------
   Sum:    0.000000        2.000000 
 ---------------------------------------------------
 
  
 NATURAL OCCUPATION NUMBERS (higher than 1.0E-05)
            1           2           3           4           5           6
    1   2.0000000   2.0000000   2.0000000   2.0000000   2.0000000   2.0000000
            7           8           9          10          11          12
    1   2.0000000   2.0000000   2.0000000   2.0000000   2.0000000   1.9999998
           13          14          15          16          17          18
    1   1.9999998   1.9999995   1.9999992   1.9999989   1.9999987   1.9999980
           19          20          21          22          23          24
    1   1.9999972   1.9999968   1.9999954   1.9999920   1.9999911   1.9999855
           25          26          27          28          29          30
    1   1.9999753   1.9999663   1.9999464   1.9998668   1.9992604   1.9947934
           31          32          33          34          35          36
    1   1.9040991   1.8921051   1.6973305   1.2834816   0.7033333   0.3267384
           37          38          39          40          41          42
    1   0.1385717   0.0585283   0.0010125   0.0003479   0.0002472   0.0001994
           43          44
    1   0.0001933   0.0000176
  
*** Unpaired Electrons
 Yamaguchi Nd:         3.67
 Head-Gordon Nu:       2.46
 Head-Gordon Nu_nl:    2.39
  
**************************************************
 RAS-CI total energy for state   8:   -399.244107251428
  Excitation energy (eV) =  4.494271763739
  State symmetry: A'    (Cs       )
  <S^2>      :  2.0000
  Dipole Moment:   -0.7541 X     0.8329 Y     0.0000 Z
  Trans. Moment:    0.7723 X    -0.0293 Y    -0.0000 Z
  Strength   :  0.065764
  Natural transition orbitals ( 1 -> 8 ):
   e-/hole pair  1 alpha:  ampl =  0.434809 ( 18.9%)   [7 : 8]
   e-/hole pair  2 alpha:  ampl =  0.150827 (  2.3%)   [6 : 9]
   e-/hole pair  1 beta :  ampl =  0.516641 ( 26.7%)   [7 : 8]
   e-/hole pair  2 beta :  ampl =  0.216564 (  4.7%)   [6 : 9]
   Sum of square amplitudes: 0.54

 NATURAL OCCUPATION NUMBERS (higher than 1.0E-05)
            1           2           3           4           5           6
    1   2.0000000   2.0000000   2.0000000   2.0000000   2.0000000   2.0000000
            7           8           9          10          11          12
    1   2.0000000   2.0000000   2.0000000   2.0000000   2.0000000   1.9999997
           13          14          15          16          17          18
    1   1.9999995   1.9999992   1.9999984   1.9999980   1.9999974   1.9999956
           19          20          21          22          23          24
    1   1.9999955   1.9999942   1.9999919   1.9999867   1.9999842   1.9999754
           25          26          27          28          29          30
    1   1.9999629   1.9999566   1.9999348   1.9997851   1.9987441   1.9923885
           31          32          33          34          35          36
    1   1.9218808   1.7680726   1.6904947   1.3679869   0.7519599   0.2945366
           37          38          39          40          41          42
    1   0.1923032   0.0191575   0.0009475   0.0006023   0.0005453   0.0003965
           43          44          45          46
    1   0.0002528   0.0001025   0.0000327   0.0000161

 Head-Gordon Nu:    2.52
 Head-Gordon Nu_nl: 2.47

  Amplitudes : 
  
 | HOLE  | ALPHA   | BETA    | PART  |    AMPLITUDE 
--------------------------------------------------
 |       | 1111000 | 0110000 |       |     1.5841401080998E-01
 |       | 1111000 | 0101000 |       |     1.0458227709071E-01
 |       | 1110100 | 1100000 |       |    -2.8652925270188E-01
 |       | 1110100 | 0110000 |       |     1.2368066029447E-01
 |       | 1110010 | 1100000 |       |    -3.0583204383054E-01
 |       | 1101010 | 1100000 |       |    -1.2214761934155E-01
 |  31   | 1111100 | 1100000 |       |    -1.0129428266364E-01
 |  31   | 1111010 | 1100000 |       |    -1.2249710575331E-01
 |  30   | 1111000 | 1110000 |       |     4.2134867207838E-01
 |  31   | 1111000 | 1101000 |       |     1.4550984123775E-01
 |  30   | 1110100 | 1110000 |       |     3.5695247807208E-01
 |  31   | 1110100 | 1110000 |       |    -2.0985093768441E-01
 |  30   | 1110010 | 1110000 |       |     2.6849346478788E-01
 |  31   | 1110010 | 1110000 |       |     2.8489705888815E-01
 |  30   | 1101100 | 1101000 |       |    -1.1900564744238E-01
 |  31   | 1101010 | 1110000 |       |    -1.2088669117956E-01
 |       | 1110000 | 0110000 |  45   |     1.0791374077744E-01
--------------------------------------------------
*** Contributions RASCI wfn    Active:  28.72
                                 Hole:  68.42
                                 Part:   2.86

      Mulliken population analysis 
 ---------------------------------------------------
   Atom    Charge (a.u.)   Spin (a.u.)  
 ---------------------------------------------------
   1  C    0.041037        0.191627 
   2  C    0.277711        0.192904 
   3  C   -0.106176        0.318097 
   4  C   -0.133839        0.108623 
   5  C   -0.049361        0.155145 
   6  C   -0.246862        0.145571 
   7  N   -0.387952        0.238716 
   8  C   -0.274965        0.348643 
   9  C   -0.102521        0.152549 
  10  C    0.051552        0.141258 
  11  H    0.132689        0.002784 
  12  H    0.126023        0.001098 
  13  H    0.126149        0.000922 
  14  H    0.146606        0.000016 
  15  H    0.130489        0.000858 
  16  H    0.131345        0.000979 
  17  H    0.138077        0.000209 
 ---------------------------------------------------
   Sum:    0.000000        2.000000 
 ---------------------------------------------------
 
  
 NATURAL OCCUPATION NUMBERS (higher than 1.0E-05)
            1           2           3           4           5           6
    1   2.0000000   2.0000000   2.0000000   2.0000000   2.0000000   2.0000000
            7           8           9          10          11          12
    1   2.0000000   2.0000000   2.0000000   2.0000000   2.0000000   1.9999997
           13          14          15          16          17          18
    1   1.9999995   1.9999992   1.9999984   1.9999980   1.9999974   1.9999956
           19          20          21          22          23          24
    1   1.9999955   1.9999942   1.9999919   1.9999867   1.9999842   1.9999754
           25          26          27          28          29          30
    1   1.9999629   1.9999566   1.9999348   1.9997851   1.9987441   1.9923885
           31          32          33          34          35          36
    1   1.9218808   1.7680726   1.6904947   1.3679869   0.7519599   0.2945366
           37          38          39          40          41          42
    1   0.1923032   0.0191575   0.0009475   0.0006023   0.0005453   0.0003965
           43          44          45          46
    1   0.0002528   0.0001025   0.0000327   0.0000161
  
*** Unpaired Electrons
 Yamaguchi Nd:         3.80
 Head-Gordon Nu:       2.52
 Head-Gordon Nu_nl:    2.47
  
**************************************************
 RAS-CI total energy for state   9:   -399.222194706790
  Excitation energy (eV) =  5.090542440636
  State symmetry: A"    (Cs       )
  <S^2>      :  2.0000
  Dipole Moment:    0.3297 X    -0.3139 Y     0.0000 Z
  Trans. Moment:   -0.0000 X     0.0000 Y    -0.0199 Z
  Strength   :  0.000049
  Natural transition orbitals ( 1 -> 9 ):
   e-/hole pair  1 alpha:  ampl =  0.033118 (  0.1%)   [7 : 8]
   e-/hole pair  2 alpha:  ampl =  0.009830 (  0.0%)   [6 : 9]
   e-/hole pair  1 beta :  ampl =  0.185347 (  3.4%)   [7 : 8]
   e-/hole pair  2 beta :  ampl =  0.033434 (  0.1%)   [6 : 9]
   Sum of square amplitudes: 0.04

 NATURAL OCCUPATION NUMBERS (higher than 1.0E-05)
            1           2           3           4           5           6
    1   2.0000000   2.0000000   2.0000000   2.0000000   2.0000000   2.0000000
            7           8           9          10          11          12
    1   2.0000000   2.0000000   2.0000000   2.0000000   2.0000000   1.9999993
           13          14          15          16          17          18
    1   1.9999971   1.9999946   1.9999920   1.9999882   1.9999838   1.9999761
           19          20          21          22          23          24
    1   1.9999661   1.9999390   1.9999256   1.9998861   1.9998501   1.9997813
           25          26          27          28          29          30
    1   1.9995875   1.9986964   1.9982617   1.9978478   1.9955879   1.9937045
           31          32          33          34          35          36
    1   1.9894761   1.9747166   1.8453112   1.0084002   0.9493127   0.1880967
           37          38          39          40          41          42
    1   0.0363787   0.0205373   0.0027057   0.0006484   0.0005054   0.0004961
           43          44          45          46
[...]
 
 Alpha MOs, Restricted
 -- Doubly Occupied --           
-15.561 -11.285 -11.265 -11.255 -11.252 -11.250 -11.254 -11.246
  1 A'    2 A'    3 A'    4 A'    5 A'    6 A'    7 A'    8 A'                 
-11.251 -11.234  -1.251  -1.151  -1.092  -1.032  -1.016  -0.900
  9 A'   10 A'   11 A'   12 A'   13 A'   14 A'   15 A'   16 A'                 
 -0.849  -0.835  -0.736  -0.706  -0.690  -0.634  -0.627  -0.600
 17 A'   18 A'   19 A'   20 A'   21 A'   22 A'   23 A'   24 A'                 
 -0.577  -0.565  -0.567  -0.530  -0.502  -0.414  -0.365  -0.482
 25 A'   26 A'    1 A"   27 A'   28 A'    2 A"    3 A"    4 A"                 
 -0.417
 29 A'                                                                         
 -- Singly Occupied (Occupied) --
 -0.397  -0.240
  5 A"    6 A"                                                                 
 -- Virtual --                   
  0.108   0.113   0.174   0.152   0.163   0.189   0.197   0.204
  7 A"    8 A"   30 A'   31 A'   32 A'   33 A'   34 A'   35 A'                 
  0.213   0.207   0.230   0.266   0.288   0.295   0.300   0.311
 36 A'    9 A"   37 A'   38 A'   39 A'   10 A"   40 A'   41 A'                 
  0.321   0.328   0.349   0.351   0.360   0.376   0.375   0.397
 42 A'   11 A"   12 A"   43 A'   44 A'   45 A'   13 A"   14 A"                 
  0.405   0.421   0.420   0.442   0.456   0.453   0.459   0.475
 46 A'   47 A'   15 A"   48 A'   49 A'   16 A"   50 A'   51 A'                 
  0.490   0.500   0.503   0.504   0.525   0.533   0.557   0.561
 52 A'   53 A'   17 A"   18 A"   54 A'   55 A'   56 A'   57 A'                 
  0.574   0.574   0.581   0.581   0.604   0.619   0.626   0.636
 58 A'   19 A"   59 A'   60 A'   61 A'   62 A'   63 A'   20 A"                 
  0.642   0.652   0.669   0.684   0.692   0.706   0.716   0.733
 64 A'   65 A'   66 A'   21 A"   67 A'   68 A'   69 A'   22 A"                 
  0.746   0.778   0.791   0.827   0.844   0.845   0.860   0.857
 70 A'   71 A'   72 A'   73 A'   74 A'   75 A'   76 A'   23 A"                 
  0.865   0.875   0.893   0.904   0.916   0.921   0.948   0.965
 77 A'   78 A'   79 A'   24 A"   80 A'   25 A"   81 A'   26 A"                 
  0.980   0.991   1.005   1.019   1.035   1.062   1.088   1.086
 82 A'   83 A'   27 A"   84 A'   85 A'   86 A'   87 A'   28 A"                 
  1.098   1.123   1.152   1.171   1.199   1.196   1.231   1.238
 29 A"   88 A'   89 A'   90 A'   91 A'   30 A"   92 A'   31 A"                 
  1.294   1.325   1.335   1.344   1.365   1.387   1.412   1.425
 93 A'   32 A"   94 A'   33 A"   95 A'   96 A'   97 A'   34 A"                 
  1.431   1.445   1.445   1.465   1.497   1.509   1.529   1.533
 98 A'   99 A'   35 A"  100 A'  101 A'  102 A'   36 A"  103 A'                 
  1.555   1.577   1.612   1.628   1.669   1.679   1.706   1.700
 37 A"  104 A'  105 A'  106 A'   38 A"  107 A'  108 A'   39 A"                 
  1.718   1.733   1.752   1.763   1.766   1.797   1.812   1.824
109 A'  110 A'   40 A"  111 A'   41 A"  112 A'   42 A"  113 A'                 
  1.834   1.858   1.878   1.893   1.901   1.941   1.948   1.968
114 A'  115 A'   43 A"   44 A"  116 A'  117 A'   45 A"  118 A'                 
  1.979   1.987   2.011   2.015   2.030   2.059   2.072   2.093
 46 A"  119 A'   47 A"  120 A'   48 A"  121 A'  122 A'   49 A"                 
  2.125   2.148   2.209   2.212   2.233   2.260   2.264   2.287
 50 A"   51 A"  123 A'   52 A"  124 A'   53 A"  125 A'   54 A"                 
  2.303   2.338   2.343   2.396   2.426   2.437   2.448   2.454
126 A'  127 A'  128 A'  129 A'  130 A'  131 A'  132 A'   55 A"                 
  2.476   2.511   2.540   2.544   2.577   2.579   2.617   2.643
133 A'  134 A'  135 A'  136 A'   56 A"  137 A'  138 A'   57 A"                 
  2.668   2.721   2.740   2.757   2.792   2.797   2.816   2.838
139 A'  140 A'   58 A"  141 A'  142 A'   59 A"  143 A'  144 A'                 
  2.868   2.885   2.901   2.914   2.920   2.950   2.952   2.969
145 A'  146 A'  147 A'   60 A"  148 A'  149 A'   61 A"  150 A'                 
  2.973   2.979   3.005   3.023   3.038   3.047   3.052   3.071
 62 A"  151 A'   63 A"  152 A'  153 A'   64 A"  154 A'   65 A"                 
  3.080   3.102   3.113   3.132   3.130   3.162   3.165   3.176
155 A'  156 A'   66 A"  157 A'   67 A"  158 A'   68 A"  159 A'                 
  3.204   3.215   3.223   3.222   3.255   3.286   3.288   3.303
160 A'  161 A'  162 A'   69 A"   70 A"   71 A"  163 A'  164 A'                 
  3.324   3.329   3.362   3.365   3.398   3.402   3.417   3.418
165 A'   72 A"  166 A'   73 A"  167 A'   74 A"   75 A"  168 A'                 
  3.446   3.449   3.471   3.481   3.510   3.515   3.517   3.560
 76 A"  169 A'  170 A'   77 A"   78 A"  171 A'   79 A"  172 A'                 
  3.569   3.583   3.592   3.609   3.611   3.610   3.619   3.646
 80 A"  173 A'  174 A'  175 A'  176 A'   81 A"   82 A"  177 A'                 
  3.659   3.677   3.692   3.696   3.715   3.731   3.751   3.775
 83 A"  178 A'  179 A'   84 A"  180 A'   85 A"  181 A'  182 A'                 
  3.776   3.809   3.829   3.832   3.849   3.853   3.877   3.899
 86 A"  183 A'  184 A'   87 A"   88 A"  185 A'   89 A"  186 A'                 
  3.927   3.942   3.966   4.007   4.049   4.068   4.088   4.114
187 A'   90 A"  188 A'  189 A'  190 A'   91 A"  191 A'  192 A'                 
  4.162   4.164   4.187   4.200   4.221   4.266   4.300   4.319
193 A'   92 A"  194 A'   93 A"  195 A'  196 A'  197 A'  198 A'                 
  4.383   4.391   4.399   4.428   4.444   4.455   4.472   4.527
199 A'  200 A'   94 A"   95 A"  201 A'  202 A'   96 A"  203 A'                 
  4.543   4.549   4.554   4.586   4.593   4.629   4.652   4.670
204 A'   97 A"  205 A'  206 A'   98 A"  207 A'  208 A'   99 A"                 
  4.725   4.772   4.810   4.810   4.913   4.932   4.945   4.957
100 A"  209 A'  210 A'  101 A"  102 A"  211 A'  212 A'  213 A'                 
  5.033   5.056   5.117   5.148   5.184   5.236   5.263   5.300
103 A"  214 A'  215 A'  216 A'  217 A'  218 A'  219 A'  220 A'                 
  5.318   5.355   5.373   5.468   5.496   5.554   5.585   5.599
104 A"  105 A"  221 A'  222 A'  223 A'  224 A'  225 A'  106 A"                 
  5.638   5.702   5.711   5.812   5.831   5.925   6.042   6.164
226 A'  107 A"  227 A'  228 A'  229 A'  230 A'  231 A'  232 A'                 
  6.176   6.282   6.639  23.250  23.501  23.611  23.717  23.840
233 A'  234 A'  235 A'  236 A'  237 A'  238 A'  239 A'  240 A'                 
 23.905  23.919  24.023  24.517  33.848
241 A'  242 A'  243 A'  244 A'  245 A'                                         
 
 Beta MOs, Restricted
 -- Doubly Occupied --           
-15.561 -11.285 -11.265 -11.255 -11.252 -11.250 -11.254 -11.246
  1 A'    2 A'    3 A'    4 A'    5 A'    6 A'    7 A'    8 A'                 
-11.251 -11.234  -1.251  -1.151  -1.092  -1.032  -1.016  -0.900
  9 A'   10 A'   11 A'   12 A'   13 A'   14 A'   15 A'   16 A'                 
 -0.849  -0.835  -0.736  -0.706  -0.690  -0.634  -0.627  -0.600
 17 A'   18 A'   19 A'   20 A'   21 A'   22 A'   23 A'   24 A'                 
 -0.577  -0.565  -0.567  -0.530  -0.502  -0.414  -0.365  -0.482
 25 A'   26 A'    1 A"   27 A'   28 A'    2 A"    3 A"    4 A"                 
 -0.417
 29 A'                                                                         
 -- Singly Occupied (Vacant) --  
 -0.397  -0.240
  5 A"    6 A"                                                                 
 -- Virtual --                   
  0.108   0.113   0.174   0.152   0.163   0.189   0.197   0.204
  7 A"    8 A"   30 A'   31 A'   32 A'   33 A'   34 A'   35 A'                 
  0.213   0.207   0.230   0.266   0.288   0.295   0.300   0.311
 36 A'    9 A"   37 A'   38 A'   39 A'   10 A"   40 A'   41 A'                 
  0.321   0.328   0.349   0.351   0.360   0.376   0.375   0.397
 42 A'   11 A"   12 A"   43 A'   44 A'   45 A'   13 A"   14 A"                 
  0.405   0.421   0.420   0.442   0.456   0.453   0.459   0.475
 46 A'   47 A'   15 A"   48 A'   49 A'   16 A"   50 A'   51 A'                 
  0.490   0.500   0.503   0.504   0.525   0.533   0.557   0.561
 52 A'   53 A'   17 A"   18 A"   54 A'   55 A'   56 A'   57 A'                 
  0.574   0.574   0.581   0.581   0.604   0.619   0.626   0.636
 58 A'   19 A"   59 A'   60 A'   61 A'   62 A'   63 A'   20 A"                 
  0.642   0.652   0.669   0.684   0.692   0.706   0.716   0.733
 64 A'   65 A'   66 A'   21 A"   67 A'   68 A'   69 A'   22 A"                 
  0.746   0.778   0.791   0.827   0.844   0.845   0.860   0.857
 70 A'   71 A'   72 A'   73 A'   74 A'   75 A'   76 A'   23 A"                 
  0.865   0.875   0.893   0.904   0.916   0.921   0.948   0.965
 77 A'   78 A'   79 A'   24 A"   80 A'   25 A"   81 A'   26 A"                 
  0.980   0.991   1.005   1.019   1.035   1.062   1.088   1.086
 82 A'   83 A'   27 A"   84 A'   85 A'   86 A'   87 A'   28 A"                 
  1.098   1.123   1.152   1.171   1.199   1.196   1.231   1.238
 29 A"   88 A'   89 A'   90 A'   91 A'   30 A"   92 A'   31 A"                 
  1.294   1.325   1.335   1.344   1.365   1.387   1.412   1.425
 93 A'   32 A"   94 A'   33 A"   95 A'   96 A'   97 A'   34 A"                 
  1.431   1.445   1.445   1.465   1.497   1.509   1.529   1.533
 98 A'   99 A'   35 A"  100 A'  101 A'  102 A'   36 A"  103 A'                 
  1.555   1.577   1.612   1.628   1.669   1.679   1.706   1.700
 37 A"  104 A'  105 A'  106 A'   38 A"  107 A'  108 A'   39 A"                 
  1.718   1.733   1.752   1.763   1.766   1.797   1.812   1.824
109 A'  110 A'   40 A"  111 A'   41 A"  112 A'   42 A"  113 A'                 
  1.834   1.858   1.878   1.893   1.901   1.941   1.948   1.968
114 A'  115 A'   43 A"   44 A"  116 A'  117 A'   45 A"  118 A'                 
  1.979   1.987   2.011   2.015   2.030   2.059   2.072   2.093
 46 A"  119 A'   47 A"  120 A'   48 A"  121 A'  122 A'   49 A"                 
  2.125   2.148   2.209   2.212   2.233   2.260   2.264   2.287
 50 A"   51 A"  123 A'   52 A"  124 A'   53 A"  125 A'   54 A"                 
  2.303   2.338   2.343   2.396   2.426   2.437   2.448   2.454
126 A'  127 A'  128 A'  129 A'  130 A'  131 A'  132 A'   55 A"                 
  2.476   2.511   2.540   2.544   2.577   2.579   2.617   2.643
133 A'  134 A'  135 A'  136 A'   56 A"  137 A'  138 A'   57 A"                 
  2.668   2.721   2.740   2.757   2.792   2.797   2.816   2.838
139 A'  140 A'   58 A"  141 A'  142 A'   59 A"  143 A'  144 A'                 
  2.868   2.885   2.901   2.914   2.920   2.950   2.952   2.969
145 A'  146 A'  147 A'   60 A"  148 A'  149 A'   61 A"  150 A'                 
  2.973   2.979   3.005   3.023   3.038   3.047   3.052   3.071
 62 A"  151 A'   63 A"  152 A'  153 A'   64 A"  154 A'   65 A"                 
  3.080   3.102   3.113   3.132   3.130   3.162   3.165   3.176
155 A'  156 A'   66 A"  157 A'   67 A"  158 A'   68 A"  159 A'                 
  3.204   3.215   3.223   3.222   3.255   3.286   3.288   3.303
160 A'  161 A'  162 A'   69 A"   70 A"   71 A"  163 A'  164 A'                 
  3.324   3.329   3.362   3.365   3.398   3.402   3.417   3.418
165 A'   72 A"  166 A'   73 A"  167 A'   74 A"   75 A"  168 A'                 
  3.446   3.449   3.471   3.481   3.510   3.515   3.517   3.560
 76 A"  169 A'  170 A'   77 A"   78 A"  171 A'   79 A"  172 A'                 
  3.569   3.583   3.592   3.609   3.611   3.610   3.619   3.646
 80 A"  173 A'  174 A'  175 A'  176 A'   81 A"   82 A"  177 A'                 
  3.659   3.677   3.692   3.696   3.715   3.731   3.751   3.775
 83 A"  178 A'  179 A'   84 A"  180 A'   85 A"  181 A'  182 A'                 
  3.776   3.809   3.829   3.832   3.849   3.853   3.877   3.899
 86 A"  183 A'  184 A'   87 A"   88 A"  185 A'   89 A"  186 A'                 
  3.927   3.942   3.966   4.007   4.049   4.068   4.088   4.114
187 A'   90 A"  188 A'  189 A'  190 A'   91 A"  191 A'  192 A'                 
  4.162   4.164   4.187   4.200   4.221   4.266   4.300   4.319
193 A'   92 A"  194 A'   93 A"  195 A'  196 A'  197 A'  198 A'                 
  4.383   4.391   4.399   4.428   4.444   4.455   4.472   4.527
199 A'  200 A'   94 A"   95 A"  201 A'  202 A'   96 A"  203 A'                 
  4.543   4.549   4.554   4.586   4.593   4.629   4.652   4.670
204 A'   97 A"  205 A'  206 A'   98 A"  207 A'  208 A'   99 A"                 
  4.725   4.772   4.810   4.810   4.913   4.932   4.945   4.957
100 A"  209 A'  210 A'  101 A"  102 A"  211 A'  212 A'  213 A'                 
  5.033   5.056   5.117   5.148   5.184   5.236   5.263   5.300
103 A"  214 A'  215 A'  216 A'  217 A'  218 A'  219 A'  220 A'                 
  5.318   5.355   5.373   5.468   5.496   5.554   5.585   5.599
104 A"  105 A"  221 A'  222 A'  223 A'  224 A'  225 A'  106 A"                 
  5.638   5.702   5.711   5.812   5.831   5.925   6.042   6.164
226 A'  107 A"  227 A'  228 A'  229 A'  230 A'  231 A'  232 A'                 
  6.176   6.282   6.639  23.250  23.501  23.611  23.717  23.840
233 A'  234 A'  235 A'  236 A'  237 A'  238 A'  239 A'  240 A'                 
 23.905  23.919  24.023  24.517  33.848
241 A'  242 A'  243 A'  244 A'  245 A'                                         
 --------------------------------------------------------------
 
          Ground-State Mulliken Net Atomic Charges

     Atom                 Charge (a.u.)
  ----------------------------------------
      1 C                    -0.029935
      2 C                     0.342025
      3 C                    -0.127124
      4 C                    -0.146937
      5 C                    -0.095394
      6 C                    -0.238304
      7 N                    -0.352746
      8 C                    -0.170629
      9 C                    -0.131159
     10 C                     0.011574
     11 H                     0.134971
     12 H                     0.130503
     13 H                     0.127210
     14 H                     0.141617
     15 H                     0.130938
     16 H                     0.130819
     17 H                     0.142573
  ----------------------------------------
  Sum of atomic charges =     0.000000

  Do orbital-by-orbital Lowdin population analysis
 
 
 Partial Mulliken analysis unavailable for frozen orbitals
 
 -----------------------------------------------------------------
                    Cartesian Multipole Moments
 -----------------------------------------------------------------
    Charge (ESU x 10^10)
                 0.0000
    Dipole Moment (Debye)
         X       1.0015      Y      -2.0828      Z      -0.0000
       Tot       2.3111
    Quadrupole Moments (Debye-Ang)
        XX     -50.0813     XY       2.8344     YY     -55.2981
        XZ      -0.0000     YZ      -0.0000     ZZ     -63.5081
    Octopole Moments (Debye-Ang^2)
       XXX      -6.6194    XXY      -0.1654    XYY       8.1339
       YYY     -14.3141    XXZ      -0.0000    XYZ      -0.0000
       YYZ      -0.0000    XZZ      -0.9267    YZZ       1.7073
       ZZZ      -0.0000
    Hexadecapole Moments (Debye-Ang^3)
      XXXX   -1077.8959   XXXY      -6.7361   XXYY    -254.7494
      XYYY      19.8469   YYYY    -484.7221   XXXZ       0.0000
      XXYZ       0.0000   XYYZ       0.0000   YYYZ      -0.0000
      XXZZ    -242.8018   XYZZ      -1.6524   YYZZ    -105.5474
      XZZZ       0.0000   YZZZ      -0.0000   ZZZZ     -74.3673
 -----------------------------------------------------------------
 Mayer SCF Bond Order, atomic valence on the diagonal:

            1           2           3           4           5           6
    1   3.8863454   1.1691779   1.1197844   0.0148739  -0.0051711   0.0431857
    2   1.1691779   3.9045064  -0.0487406   0.0067568  -0.0446690   1.1765071
    3   1.1197844  -0.0487406   3.2079477   1.0170757   0.0578698  -0.0121233
    4   0.0148739   0.0067568   1.0170757   3.9681761   1.8761518   0.0703661
    5  -0.0051711  -0.0446690   0.0578698   1.8761518   3.8731522   1.0064839
    6   0.0431857   1.1765071  -0.0121233   0.0703661   1.0064839   3.3478221
    7  -0.0313862   1.5635436   0.0169874   0.0058369   0.0058901   0.0579759
    8   1.5349432   0.0007545   0.0562974   0.0025189   0.0122022   0.0105480
    9   0.0353964   0.0297919   0.0003411   0.0070583  -0.0027683   0.0277726
   10   0.0218967   0.0241785   0.0326598  -0.0044326   0.0100975  -0.0021988
   11  -0.0169565   0.0061108   0.0039423   0.0002712  -0.0001560   0.0008647
   12   0.0052890   0.0021685   0.0005583   0.0002030   0.0001555   0.0001953
   13  -0.0006407   0.0053329   0.0009924  -0.0002956   0.0004123   0.0002254
   14  -0.0186583   0.0065778   0.9748949  -0.0105452   0.0047887  -0.0002045
   15   0.0050642   0.0003540  -0.0204325   0.9816497  -0.0026339   0.0071159
   16  -0.0001395   0.0049630   0.0074772  -0.0041875   0.9825582  -0.0194160
   17   0.0096862   0.0016987   0.0003635   0.0048747  -0.0280594   0.9805238
            7           8           9          10          11          12
    1  -0.0313862   1.5349432   0.0353964   0.0218967  -0.0169565   0.0052890
    2   1.5635436   0.0007545   0.0297919   0.0241785   0.0061108   0.0021685
    3   0.0169874   0.0562974   0.0003411   0.0326598   0.0039423   0.0005583
    4   0.0058369   0.0025189   0.0070583  -0.0044326   0.0002712   0.0002030
    5   0.0058901   0.0122022  -0.0027683   0.0100975  -0.0001560   0.0001555
    6   0.0579759   0.0105480   0.0277726  -0.0021988   0.0008647   0.0001953
    7   2.9404809   0.0391378  -0.0241651   1.2846162   0.0005963   0.0062284
    8   0.0391378   3.9537154   1.2660236   0.0598745   0.9732199  -0.0167343
    9  -0.0241651   1.2660236   3.8630145   1.5838426  -0.0077386   0.9731586
   10   1.2846162   0.0598745   1.5838426   4.0085751   0.0046922  -0.0025608
   11   0.0005963   0.9732199  -0.0077386   0.0046922   0.9678468  -0.0000569
   12   0.0062284  -0.0167343   0.9731586  -0.0025608  -0.0000569   0.9689001
   13  -0.0073259   0.0071319  -0.0265534   0.9948851   0.0005525   0.0001444
   14   0.0004621   0.0061512  -0.0001625   0.0001553   0.0021687  -0.0000081
   15   0.0001292   0.0004212   0.0001734  -0.0000113   0.0000013   0.0000358
   16   0.0005697   0.0002225  -0.0000233   0.0002802  -0.0000075   0.0000089
   17   0.0213844   0.0010028   0.0008668   0.0005999   0.0003422   0.0001145
           13          14          15          16          17
    1  -0.0006407  -0.0186583   0.0050642  -0.0001395   0.0096862
    2   0.0053329   0.0065778   0.0003540   0.0049630   0.0016987
    3   0.0009924   0.9748949  -0.0204325   0.0074772   0.0003635
    4  -0.0002956  -0.0105452   0.9816497  -0.0041875   0.0048747
    5   0.0004123   0.0047887  -0.0026339   0.9825582  -0.0280594
    6   0.0002254  -0.0002045   0.0071159  -0.0194160   0.9805238
    7  -0.0073259   0.0004621   0.0001292   0.0005697   0.0213844
    8   0.0071319   0.0061512   0.0004212   0.0002225   0.0010028
    9  -0.0265534  -0.0001625   0.0001734  -0.0000233   0.0008668
   10   0.9948851   0.0001553  -0.0000113   0.0002802   0.0005999
   11   0.0005525   0.0021687   0.0000013  -0.0000075   0.0003422
   12   0.0001444  -0.0000081   0.0000358   0.0000089   0.0001145
   13   0.9750714   0.0000476   0.0000000   0.0000088   0.0001534
   14   0.0000476   0.9660948  -0.0002798   0.0007254  -0.0000185
   15   0.0000000  -0.0002798   0.9719366  -0.0001241   0.0004734
   16   0.0000088   0.0007254  -0.0001241   0.9724618  -0.0004541
   17   0.0001534  -0.0000185   0.0004734  -0.0004541   0.9935524


 Total job time:  7004.78s(wall), 5611.26s(cpu) 
 Mon Dec  4 14:32:10 2023

        *************************************************************
        *                                                           *
        *  Thank you very much for using Q-Chem.  Have a nice day.  *
        *                                                           *
        *************************************************************


