                  Welcome to Q-Chem
     A Quantum Leap Into The Future Of Chemistry


 Q-Chem 6.0 (devel), Q-Chem, Inc., Pleasanton, CA (2022)

 E. Epifanovsky,  A. T. B. Gilbert,  Xintian Feng,  Joonho Lee,  Yuezhi Mao,  
 N. Mardirossian,  P. Pokhilko,  A. White,  M. Wormit,  M. P. Coons,  
 A. L. Dempwolff,  Zhengting Gan,  D. Hait,  P. R. Horn,  L. D. Jacobson,  
 I. Kaliman,  J. Kussmann,  A. W. Lange,  Ka Un Lao,  D. S. Levine,  Jie Liu,  
 S. C. McKenzie,  A. F. Morrison,  K. Nanda,  F. Plasser,  D. R. Rehn,  
 M. L. Vidal,  Zhi-Qiang You,  Ying Zhu,  B. Alam,  B. Albrecht,  
 A. Aldossary,  E. Alguire,  J. H. Andersen,  V. Athavale,  D. Barton,  
 K. Begam,  A. Behn,  N. Bellonzi,  Y. A. Bernard,  E. J. Berquist,  
 H. Burton,  A. Carreras,  K. Carter-Fenk,  Romit Chakraborty,  
 Chandrima Chakravarty,  Junhan Chen,  A. D. Chien,  K. D. Closser,  
 V. Cofer-Shabica,  L. Cunha,  S. Dasgupta,  Jia Deng,  M. de Wergifosse,  
 M. Diedenhofen,  Hainam Do,  S. Ehlert,  Po-Tung Fang,  S. Fatehi,  
 Qingguo Feng,  T. Friedhoff,  B. Ganoe,  J. Gayvert,  Qinghui Ge,  
 G. Gidofalvi,  M. Goldey,  J. Gomes,  C. Gonzalez-Espinoza,  S. Gulania,  
 A. Gunina,  J. A. Gyamfi,  M. W. D. Hanson-Heine,  P. H. P. Harbach,  
 A. W. Hauser,  M. F. Herbst,  M. Hernandez Vera,  M. Hodecker,  
 Z. C. Holden,  S. Houck,  Xunkun Huang,  Kerwin Hui,  B. C. Huynh,  
 K. Ikeda,  M. Ivanov,  Hyunjun Ji,  Zuxin Jin,  Hanjie Jiang,  B. Kaduk,  
 S. Kaehler,  R. Kang,  K. Khistyaev,  Jaehoon Kim,  Yongbin Kim,  
 P. Klunzinger,  Z. Koczor-Benda,  Joong Hoon Koh,  D. Kosenkov,  
 Saikiran Kotaru,  L. Koulias,  T. Kowalczyk,  C. M. Krauter,  K. Kue,  
 A. Kunitsa,  T. Kus,  A. Landau,  K. V. Lawler,  D. Lefrancois,  S. Lehtola,  
 Rain Li,  Shaozhi Li,  Yi-Pei Li,  Jiashu Liang,  M. Liebenthal,  
 Hung-Hsuan Lin,  You-Sheng Lin,  Fenglai Liu,  Kuan-Yu Liu,  
 M. Loipersberger,  A. Luenser,  C. Malbon,  A. Manjanath,  P. Manohar,  
 E. Mansoor,  S. F. Manzer,  Shan-Ping Mao,  A. V. Marenich,  T. Markovich,  
 S. Mason,  F. Matz,  S. A. Maurer,  P. F. McLaughlin,  M. F. S. J. Menger,  
 J.-M. Mewes,  S. A. Mewes,  P. Morgante,  Mohammad Mostafanejad,  
 J. W. Mullinax,  K. J. Oosterbaan,  G. Paran,  V. Parravicini,  
 Alexander C. Paul,  Suranjan K. Paul,  F. Pavosevic,  Zheng Pei,  S. Prager,  
 E. I. Proynov,  E. Ramos,  B. Rana,  A. E. Rask,  A. Rettig,  R. M. Richard,  
 F. Rob,  E. Rossomme,  T. Scheele,  M. Scheurer,  M. Schneider,  
 P. E. Schneider,  N. Sergueev,  S. M. Sharada,  Hengyuan Shen,  
 W. Skomorowski,  D. W. Small,  C. J. Stein,  Yingli Su,  Yu-Chuan Su,  
 E. J. Sundstrom,  Zhen Tao,  J. Thirman,  Hung-Yi Tsai,  T. Tsuchimochi,  
 N. M. Tubman,  C. Utku,  S. P. Veccham,  O. Vydrov,  J. Wenzel,  
 Jonathan Wong,  J. Witte,  A. Yamada,  Chou-Hsun Yang,  Kun Yao,  
 S. Yeganeh,  S. R. Yost,  A. Zech,  F. Zeller,  Igor Ying Zhang,  
 Xing Zhang,  Yu Zhang,  D. Zuev,  A. Aspuru-Guzik,  A. T. Bell,  
 N. A. Besley,  K. B. Bravaya,  B. R. Brooks,  D. Casanova,  Jeng-Da Chai,  
 Hsing-Ta Chen,  S. Coriani,  C. J. Cramer,  A. E. DePrince, III,  
 R. A. DiStasio Jr.,  A. Dreuw,  B. D. Dunietz,  T. R. Furlani,  
 W. A. Goddard III,  S. Grimme,  S. Hammes-Schiffer,  T. Head-Gordon,  
 W. J. Hehre,  Chao-Ping Hsu,  T.-C. Jagau,  Yousung Jung,  A. Klamt,  
 Jing Kong,  D. S. Lambrecht,  Xiangyuan Li,  WanZhen Liang,  N. J. Mayhall,  
 C. W. McCurdy,  J. B. Neaton,  T. Neudecker,  C. Ochsenfeld,  
 J. A. Parkhill,  R. Peverati,  V. A. Rassolov,  Haisheng Ren,  Yihan Shao,  
 L. V. Slipchenko,  R. P. Steele,  J. E. Subotnik,  A. J. W. Thom,  
 A. Tkatchenko,  D. G. Truhlar,  T. Van Voorhis,  Fan Wang,  
 T. A. Wesolowski,  K. B. Whaley,  H. L. Woodcock III,  P. M. Zimmerman,  
 S. Faraji,  P. M. W. Gill,  M. Head-Gordon,  J. M. Herbert,  A. I. Krylov

 Contributors to earlier versions of Q-Chem not listed above: 
 R. D. Adamson,  B. Austin,  R. Baer,  J. Baker,  G. J. O. Beran,  
 K. Brandhorst,  S. T. Brown,  E. F. C. Byrd,  Arup K. Chakraborty,  
 G. K. L. Chan,  Chun-Min Chang,  Yunqing Chen,  C.-L. Cheng,  
 Siu Hung Chien,  D. M. Chipman,  D. L. Crittenden,  H. Dachsel,  
 R. J. Doerksen,  A. D. Dutoi,  R. G. Edgar,  J. Fosso-Tande,  
 L. Fusti-Molnar,  D. Ghosh,  A. Ghysels,  A. Golubeva-Zadorozhnaya,  
 J. Gonthier,  M. S. Gordon,  S. R. Gwaltney,  G. Hawkins,  J. E. Herr,  
 A. Heyden,  S. Hirata,  E. G. Hohenstein,  G. Kedziora,  F. J. Keil,  
 C. Kelley,  Jihan Kim,  R. A. King,  R. Z. Khaliullin,  P. P. Korambath,  
 W. Kurlancheek,  A. Laurent,  A. M. Lee,  M. S. Lee,  S. V. Levchenko,  
 Ching Yeh Lin,  D. Liotard,  E. Livshits,  R. C. Lochan,  I. Lotan,  
 L. A. Martinez-Martinez,  P. E. Maslen,  N. Nair,  D. P. O'Neill,  
 D. Neuhauser,  E. Neuscamman,  C. M. Oana,  R. Olivares-Amaya,  R. Olson,  
 T. M. Perrine,  B. Peters,  P. A. Pieniazek,  A. Prociuk,  Y. M. Rhee,  
 J. Ritchie,  M. A. Rohrdanz,  E. Rosta,  N. J. Russ,  H. F. Schaefer III,  
 M. W. Schmidt,  N. E. Schultz,  S. Sharma,  N. Shenvi,  C. D. Sherrill,  
 A. C. Simmonett,  A. Sodt,  T. Stein,  D. Stuck,  K. S. Thanthiriwatte,  
 V. Vanovschi,  L. Vogt,  Tao Wang,  A. Warshel,  M. A. Watson,  
 C. F. Williams,  Q. Wu,  X. Xu,  Jun Yang,  W. Zhang,  Yan Zhao

   Please cite Q-Chem as follows:
  "Software for the frontiers of quantum chemistry:
   An overview of developments in the Q-Chem 5 package"
   J. Chem. Phys. 155, 084801 (2021)
   https://doi.org/10.1063/5.0055522 (open access)

 Q-Chem 6.0.1 for Intel X86 EM64T Linux

 Parts of Q-Chem use Armadillo 9.900.5 (Nocturnal Misbehaviour).
 http://arma.sourceforge.net/

 Q-Chem begins on Tue Oct 24 11:10:25 2023  

 Host: atlas-145
0

     Scratch files written to ./qchem84060//
 Processing $rem in /scratch/abel/SOFTWARE/qchem/config/preferences:
 Processing $rem in /dipc/acebg/.qchemrc:

 Checking the input file for inconsistencies... 	...done.

--------------------------------------------------------------
User input:
--------------------------------------------------------------
$comment
 RAS-SF CALCULATION
$end

$molecule
 READ ncl.molecule
$end

$rem
!**CALCULATION TYPE***     
JOBTYPE            sp    
EXCHANGE           HF
CORRELATION        RASCI    !RASCI=Casanova; RASCI2=Zimmerman
BASIS              sto-3g

!***SCF REFERENCE***
!SKIP_SCFMAN        FALSE
UNRESTRICTED       FALSE
!SCF_GUESS          core
!SCF_GUESS_MIX      FALSE
!SCF_GUESS_ALWAYS   FALSE
MAX_SCF_CYCLES     500
!SCF_CONVERGENCE    8
!SCF_ALGORITHM      DIIS !DIIS,DM,DIIS_DM,GDM,DIIS_GDM,GD

!SYMMETRY           TRUE !use of symmetry for calculating integrals
!SYM_IGNORE         FALSE !turn off using symmetry
!SYM_TOL            5 !tolerance for determining point group

!THRESH             14
SCF_FINAL_PRINT     1 !0,1,2,3

!****RAS-SF****
RAS_ROOTS          10       !number of RAS-CI roots to be computed
SET_ITER           150     !number of iterations in RASCI
RAS_ELEC           8       !number of electrons in RAS2
RAS_ELEC_ALPHA     5       !spin-α electrons in RAS2 
RAS_ELEC_BETA      3      !spin-β electrons in RAS2

RAS_ACT            6       !number of orbitals in RAS2 
RAS_ACT_ORB   [9, 10, 11, 12, 13, 14]  !user-selected RAS2 orbitals
RAS_OCC            8       !number of orbitals in RAS1
!N_FROZEN_CORE      0     !Number of frozen core orbitals
!N_FROZEN_VIRTUAL   0      !Number of frozen virtual orbitals

RAS_DO_HOLE        TRUE   !presence of hole excitations in RAS-CI wave function
RAS_DO_PART        TRUE   !presence of particle excitations
!RAS_AMPL_PRINT     10     !threshold (×10 2 ) for the CI amplitudes

!RAS_GUESS_CS       0      !number of closed shell guess conﬁgurations
!RAS_SPIN_MULT      0      !spin multiplicity: 0=any, 2n+1=defined 
!RAS_SRDFT          FALSE  !short-range density functional RAS-CI
!RAS_NFRAG          0     !fragments of excitation analysis in RASCI

RAS_PRINT          2      !level of information
RAS_NATORB         TRUE   !computation of the natural orbital occupancies
!RAS_NATORB_STATE  0      !Saves NO of i RAS computed state in .fchk ﬁle
!RAS_FOD            TRUE

!****RAS-SOC****
CALC_SOC           TRUE   !calculate SOC for EOM-CC, RAS-CI, ADC, TDDFT/TDA and TDDFT
!RAS_SOC_2E        TRUE   !two-electron mean-ﬁeld contribution, default=true
RAS_SOC_SYM_DENS   TRUE   !averaging of α and β densities

!****MEMORY****
MEM_TOTAL          60000 !Default 2000 MB
MEM_STATIC         16000  !Default 64 MB

!**Molecular Properties and Analysis **                                                                                          
!GUI                2
STATE_ANALYSIS     TRUE
MOLDEN_FORMAT      TRUE
PRINT_ORBITALS     20
$end                                           

--------------------------------------------------------------
 ----------------------------------------------------------------
             Standard Nuclear Orientation (Angstroms)
    I     Atom           X                Y                Z
 ----------------------------------------------------------------
    1      N       0.0000000000     0.0000000000    -1.1435333333
    2      Cl      0.0000000000     0.0000000000     0.4708666667
 ----------------------------------------------------------------
 Molecular Point Group                 C2v   NOp =  4
 Largest Abelian Subgroup              C2v   NOp =  4
 Nuclear Repulsion Energy =          39.00649658 hartrees
 There are       13 alpha and       11 beta electrons
 Requested basis set is STO-3G
 There are 5 shells and 14 basis functions

 Q-Chem warning in module libmdc/get_mega.C, line 167:

 Allowed MEM_STATIC has been capped at MEM_STATIC=8191.
 Reduce the value of MEM_STATIC to silence this warning.


 Total QAlloc Memory Limit  60000 MB
 Mega-Array Size      8007 MB
 MEM_STATIC part      8191 MB


                       Distance Matrix (Angstroms)
             N (  1)
   Cl(  2)  1.614400
 
 A cutoff of  1.0D-09 yielded     14 shell pairs
 There are       122 function pairs
 Smallest overlap matrix eigenvalue = 3.71E-01

 Scale SEOQF with 1.000000e+00/1.000000e+00/1.000000e+00

 Standard Electronic Orientation quadrupole field applied
 Nucleus-field energy     =    -0.0000000138 hartrees
 Guess from superposition of atomic densities
 Warning:  Energy on first SCF cycle will be non-variational
 SAD guess density has 24.000000 electrons

 -----------------------------------------------------------------------
  General SCF calculation program by
  Eric Jon Sundstrom, Paul Horn, Yuezhi Mao, Dmitri Zuev, Alec White,
  David Stuck, Shaama M.S., Shane Yost, Joonho Lee, David Small,
  Daniel Levine, Susi Lehtola, Hugh Burton, Evgeny Epifanovsky,
  Bang C. Huynh
 -----------------------------------------------------------------------
 Hartree-Fock
 Orthonormalizing orbitals
 A restricted open-shell SCF calculation will be
 performed using GDM
 SCF converges when RMS gradient is below 1.0e-05
 ---------------------------------------
  Cycle       Energy        RMS Gradient
 ---------------------------------------
    1    -507.0027643390      4.65e-01   Descent step
    2    -507.2969394923      5.27e-01   Descent step
    3    -507.5235840866      3.02e-01   Descent step
    4    -507.6280832102      1.36e-01   Dog-leg BFGS step
    5    -507.7472009158      6.66e-01   Descent step
    6    -507.9736322919      2.25e-01   Dog-leg BFGS step
    7    -508.0131397816      1.34e-01   Normal BFGS step
    8    -508.0262566307      7.31e-02   Normal BFGS step
    9    -508.0239771038      9.82e-02  Line search: overstep
   10    -508.0284522291      4.01e-02   Normal BFGS step
   11    -508.0235446712      6.62e-02  Line search: overstep
   12    -508.0301646584      1.71e-02   Normal BFGS step
   13    -508.0305474800      9.62e-03   Normal BFGS step
   14    -508.0306939800      8.11e-03   Normal BFGS step
   15    -508.0307381115      1.09e-03   Normal BFGS step
   16    -508.0307392816      4.62e-04   Normal BFGS step
   17    -508.0307393869      1.91e-04   Normal BFGS step
   18    -508.0307394059      6.51e-06  Convergence criterion met
The disked orbital energies are calculated using alpha and beta Focks
 ---------------------------------------
 Alpha HF Exchange    Energy = -17.72384173517041
 Beta HF Exchange     Energy = -16.51888927921558
 Nuclear Attraction   Energy =   0.00000000000000
 One-Electron (alpha) Energy = -400.20639382544073
 One-Electron (beta)  Energy = -379.24175722263635
 Total Coulomb        Energy = 266.65364608638561
 Final Alpha MO Eigenvalues
            1           2           3           4           5           6
    1-103.8429622 -15.3326439 -10.5121693  -7.9629046  -7.9499758  -7.9483656
            7           8           9          10          11          12
    1  -1.2058389  -0.8719245  -0.5370129  -0.5176353  -0.3358031  -0.6231649
           13          14
    1  -0.4427191   0.3838699
 Final Beta MO Eigenvalues
            1           2           3           4           5           6
    1-103.8400526 -15.2813969 -10.5081275  -7.9490299  -7.9463043  -7.9467085
            7           8           9          10          11          12
    1  -1.1189840  -0.7179869  -0.5090134  -0.4788747  -0.2467221   0.0378876
           13          14
    1   0.3580628   0.5285366
 SCF time:   CPU 0.20s  wall 2.00s 
<S^2> =          2.000000000
 SCF   energy in the final basis set =     -508.0307394059
 Total energy in the final basis set =     -508.0307394059
  
     ##========================================##
     ||                                        ||
     ||              R A S M A N 2             ||
     ||________________________________________||
     ||                                        ||
     ||  Author:                               ||
     ||                                        ||
     ||        David Casanova (2010)           ||
     ||                                        ||
     ##========================================##
  
Setting single-point xc-functionals (if necessary)

  ***************************************************
  *  RAS-CI Dimensions:                             *
  *                                                 *
  *  Active Elec.:   8 ( 5, 3)   Active Orb.:   6   *
  *  Doubly Occ. :   8           Doubly Vir.:   0   *
  *  Frozen Occ. :   0           Frozen Vir.:   0   *
  *                                                 *
  *  Total CI configurations:      1000             * 
  *    Active configurations:       120             * 
  *      Hole configurations:       880             * 
  *  Particle configurations:         0             * 
  *                                                 *
  *   Requested states:       10                    *
  *  Spin multiplicity: Any multiplicity            *
  *                                                 *
  ***************************************************
-----------------------------------------
    Memory requirements of RASCI

 Each CI-vector requires      0.01 MiB 
 Max. subspace vectors           1000      

 Reduced Lists                0.00 MiB 
 Excitation Lists             0.00 MiB 
 Excitation Lists Sign        0.00 MiB 
 CI-space (Max)              15.34 MiB 
 Integrals                    0.10 MiB 
 Memory required (Max)       15.34 MiB 
 Memory available          7811.55 MiB 

    Disk requirements of RASCI

 Fock matrix                  0.00 MiB 
 2-electron integrals         0.12 MiB 
 CI-space                    15.26 MiB 
 Disk required               15.38 MiB 
-----------------------------------------
  
RAS1 HF-like energy:           -492.6458858728
 Computing integrals
 Computing J and K matrices
 Computing addressing
 Making amplitude guesses
 
Direct CI diagonalization
 ---------------------------------------------------
 Iter    Rts Conv    Rts Left    Ttl Dev     Max Dev
 ---------------------------------------------------
   1         0          10      0.103216    0.021784
   2         0          10      0.069628    0.012929
   3         0          10      0.054275    0.015889
   4         0          10      0.062799    0.026617
   5         0          10      0.068988    0.034718
   6         0          10      0.059581    0.028817
   7         0          10      0.062192    0.021833
   8         0          10      0.041383    0.014338
   9         0          10      0.063512    0.019343
  10         0          10      0.075800    0.025485
  11         0          10      0.067951    0.029161
  12         0          10      0.021862    0.008067
  13         0          10      0.024029    0.009792
  14         0          10      0.018884    0.006869
  15         0          10      0.024683    0.009790
  16         0          10      0.012247    0.004919
  17         0          10      0.005024    0.001630
  18         0          10      0.004853    0.001957
  19         1           9      0.005053    0.001967
  20         1           9      0.002319    0.001090
  21         1           9      0.001255    0.000440
  22         1           9      0.000768    0.000339
  23         1           9      0.000787    0.000309
  24         1           9      0.000939    0.000449
  25         2           8      0.000206    0.000086
  26         2           8      0.000182    0.000070
  27         5           5      0.000102    0.000042
  28         5           5      0.000111    0.000049
  29         5           5      0.000132    0.000065
  30         5           5      0.000041    0.000020
  31         6           4      0.000041    0.000019
  32         7           3      0.003007    0.002985
  33         7           3      0.004054    0.004032
  34         7           3      0.003111    0.003094
  35         8           2      0.001389    0.001384
  36         7           3      0.001248    0.001241
  37         8           2      0.000945    0.000939
  38         8           2      0.000239    0.000234
  39         8           2      0.000401    0.000397
  40         9           1      0.000891    0.000888
  41         9           1      0.000460    0.000457
  42         9           1      0.000480    0.000477
  43         9           1      0.000247    0.000244
  44         9           1      0.000473    0.000470
  45         9           1      0.000442    0.000439
  46         9           1      0.000093    0.000090
  47         9           1      0.000076    0.000073
  48         9           1      0.000039    0.000036
  49         9           1      0.000064    0.000061
  50         9           1      0.000034    0.000031
  51         9           1      0.000007    0.000004
  52         9           1      0.000007    0.000004
  53         9           1      0.000006    0.000003
  54         9           1      0.000006    0.000003
  55         9           1      0.000004    0.000001
  56        10           0      0.000003    0.000001    Roots Converged
 ---------------------------------------------------
   
**************************************************
 RAS-CI total energy for state   1:   -508.286441992494
  Excitation energy (eV) =  0.000000000000
  State symmetry: A2    (C2v      )
  <S^2>      :  2.0000
  Dipole Moment:    0.0000 X     0.0000 Y    -0.0197 Z
 NATURAL OCCUPATION NUMBERS (higher than 1.0E-05)
            1           2           3           4           5           6
    1   2.0000000   2.0000000   2.0000000   1.9999998   1.9999998   1.9999995
            7           8           9          10          11          12
    1   1.9999598   1.9954863   1.9920607   1.9920607   1.9623204   1.0073802
           13          14
    1   1.0073801   0.0433528
 Created directory ./qchem84060/plots

  Amplitudes : 
  
 | HOLE  | ALPHA  | BETA   | PART  |    AMPLITUDE 
--------------------------------------------------
 |       | 111110 | 110100 |       |     9.6153601822804E-01
 |       | 111110 | 011100 |       |     1.8203384920563E-01
--------------------------------------------------
*** Contributions RASCI wfn    Active:  98.79
                                 Hole:   1.21
                                 Part:   0.00

      Mulliken population analysis 
 ---------------------------------------------------
   Atom    Charge (a.u.)   Spin (a.u.)  
 ---------------------------------------------------
   1  N   -0.029569        1.911194 
   2 Cl    0.029569        0.088806 
 ---------------------------------------------------
   Sum:    0.000000        2.000000 
 ---------------------------------------------------
 
  
 NATURAL OCCUPATION NUMBERS (higher than 1.0E-05)
            1           2           3           4           5           6
    1   2.0000000   2.0000000   2.0000000   1.9999998   1.9999998   1.9999995
            7           8           9          10          11          12
    1   1.9999598   1.9954863   1.9920607   1.9920607   1.9623204   1.0073802
           13          14
    1   1.0073801   0.0433528
  
*** Unpaired Electrons
 Yamaguchi Nd:         2.20
 Head-Gordon Nu:       2.09
 Head-Gordon Nu_nl:    2.01
  
**************************************************
 RAS-CI total energy for state   2:   -508.051799375239
  Excitation energy (eV) =  6.384950471639
  State symmetry: B1    (C2v      )
  <S^2>      :  2.0000
  Dipole Moment:   -0.0000 X     0.0000 Y    -0.0669 Z
  Trans. Moment:    0.0000 X     0.3291 Y    -0.0000 Z
  Strength   :  0.016944
  Natural transition orbitals ( 1 -> 2 ):
   e-/hole pair  1 alpha:  ampl =  0.186140 (  3.5%)   [6 : 7]
   e-/hole pair  2 alpha:  ampl =  0.013089 (  0.0%)   [5 : 8]
   e-/hole pair  1 beta :  ampl =  0.955396 ( 91.3%)   [6 : 7]
   e-/hole pair  2 beta :  ampl =  0.042464 (  0.2%)   [5 : 8]
   Sum of square amplitudes: 0.95

 NATURAL OCCUPATION NUMBERS (higher than 1.0E-05)
            1           2           3           4           5           6
    1   2.0000000   2.0000000   2.0000000   1.9999998   1.9999998   1.9999989
            7           8           9          10          11          12
    1   1.9996794   1.9976717   1.9943166   1.9843091   1.9202282   1.0380174
           13          14
    1   1.0044521   0.0613270

  Amplitudes : 
  
 | HOLE  | ALPHA  | BETA   | PART  |    AMPLITUDE 
--------------------------------------------------
 |       | 111110 | 111000 |       |     9.6972743519824E-01
 |       | 110111 | 110100 |       |    -1.8642296752682E-01
--------------------------------------------------
*** Contributions RASCI wfn    Active:  98.36
                                 Hole:   1.64
                                 Part:   0.00

      Mulliken population analysis 
 ---------------------------------------------------
   Atom    Charge (a.u.)   Spin (a.u.)  
 ---------------------------------------------------
   1  N   -0.151769        1.632821 
   2 Cl    0.151769        0.367179 
 ---------------------------------------------------
   Sum:    0.000000        2.000000 
 ---------------------------------------------------
 
  
 NATURAL OCCUPATION NUMBERS (higher than 1.0E-05)
            1           2           3           4           5           6
    1   2.0000000   2.0000000   2.0000000   1.9999998   1.9999998   1.9999989
            7           8           9          10          11          12
    1   1.9996794   1.9976717   1.9943166   1.9843091   1.9202282   1.0380174
           13          14
    1   1.0044521   0.0613270
  
*** Unpaired Electrons
 Yamaguchi Nd:         2.32
 Head-Gordon Nu:       2.12
 Head-Gordon Nu_nl:    2.04
  
**************************************************
 RAS-CI total energy for state   3:   -508.051799355850
  Excitation energy (eV) =  6.384950999233
  State symmetry: B2    (C2v      )
  <S^2>      :  2.0000
  Dipole Moment:    0.0000 X    -0.0000 Y    -0.0669 Z
  Trans. Moment:    0.3291 X    -0.0000 Y     0.0000 Z
  Strength   :  0.016944
  Natural transition orbitals ( 1 -> 3 ):
   e-/hole pair  1 alpha:  ampl =  0.186141 (  3.5%)   [6 : 7]
   e-/hole pair  2 alpha:  ampl =  0.013089 (  0.0%)   [5 : 8]
   e-/hole pair  1 beta :  ampl =  0.955396 ( 91.3%)   [6 : 7]
   e-/hole pair  2 beta :  ampl =  0.042464 (  0.2%)   [5 : 8]
   Sum of square amplitudes: 0.95

 NATURAL OCCUPATION NUMBERS (higher than 1.0E-05)
            1           2           3           4           5           6
    1   2.0000000   2.0000000   2.0000000   1.9999998   1.9999998   1.9999989
            7           8           9          10          11          12
    1   1.9996794   1.9976717   1.9943166   1.9843091   1.9202279   1.0380175
           13          14
    1   1.0044521   0.0613272

  Amplitudes : 
  
 | HOLE  | ALPHA  | BETA   | PART  |    AMPLITUDE 
--------------------------------------------------
 |       | 111110 | 110010 |       |     9.3917085781439E-01
 |       | 111110 | 011010 |       |     2.4349392614360E-01
 |       | 111101 | 110100 |       |    -1.6407891359006E-01
--------------------------------------------------
*** Contributions RASCI wfn    Active:  98.36
                                 Hole:   1.64
                                 Part:   0.00

      Mulliken population analysis 
 ---------------------------------------------------
   Atom    Charge (a.u.)   Spin (a.u.)  
 ---------------------------------------------------
   1  N   -0.151768        1.632821 
   2 Cl    0.151768        0.367179 
 ---------------------------------------------------
   Sum:    0.000000        2.000000 
 ---------------------------------------------------
 
  
 NATURAL OCCUPATION NUMBERS (higher than 1.0E-05)
            1           2           3           4           5           6
    1   2.0000000   2.0000000   2.0000000   1.9999998   1.9999998   1.9999989
            7           8           9          10          11          12
    1   1.9996794   1.9976717   1.9943166   1.9843091   1.9202279   1.0380175
           13          14
    1   1.0044521   0.0613272
  
*** Unpaired Electrons
 Yamaguchi Nd:         2.32
 Head-Gordon Nu:       2.12
 Head-Gordon Nu_nl:    2.04
  
**************************************************
 RAS-CI total energy for state   4:   -508.017671550202
  Excitation energy (eV) =  7.313615839908
  State symmetry: B2    (C2v      )
  <S^2>      :  2.0000
  Dipole Moment:   -0.0000 X    -0.0000 Y     0.0442 Z
  Trans. Moment:   -0.1528 X     0.0000 Y    -0.0000 Z
  Strength   :  0.004182
  Natural transition orbitals ( 1 -> 4 ):
   e-/hole pair  1 alpha:  ampl =  0.923046 ( 85.2%)   [6 : 7]
   e-/hole pair  2 alpha:  ampl =  0.026527 (  0.1%)   [5 : 8]
   e-/hole pair  1 beta :  ampl =  0.210697 (  4.4%)   [6 : 7]
   e-/hole pair  2 beta :  ampl =  0.043203 (  0.2%)   [5 : 8]
   Sum of square amplitudes: 0.90

 NATURAL OCCUPATION NUMBERS (higher than 1.0E-05)
            1           2           3           4           5           6
    1   2.0000000   2.0000000   2.0000000   1.9999999   1.9999996   1.9999989
            7           8           9          10          11          12
    1   1.9995795   1.9929784   1.9834882   1.9221329   1.9044388   1.0155278
           13          14
    1   0.9765020   0.2053542

  Amplitudes : 
  
 | HOLE  | ALPHA  | BETA   | PART  |    AMPLITUDE 
--------------------------------------------------
 |       | 111110 | 110010 |       |    -1.8580062347762E-01
 |       | 111101 | 110100 |       |    -8.3318186196006E-01
 |       | 111101 | 100110 |       |     2.3985106988045E-01
 |       | 101111 | 110100 |       |    -3.5429481241431E-01
 |       | 101111 | 011100 |       |    -1.3443668319732E-01
--------------------------------------------------
*** Contributions RASCI wfn    Active:  98.35
                                 Hole:   1.65
                                 Part:   0.00

      Mulliken population analysis 
 ---------------------------------------------------
   Atom    Charge (a.u.)   Spin (a.u.)  
 ---------------------------------------------------
   1  N    0.005062        1.607362 
   2 Cl   -0.005062        0.392638 
 ---------------------------------------------------
   Sum:    0.000000        2.000000 
 ---------------------------------------------------
 
  
 NATURAL OCCUPATION NUMBERS (higher than 1.0E-05)
            1           2           3           4           5           6
    1   2.0000000   2.0000000   2.0000000   1.9999999   1.9999996   1.9999989
            7           8           9          10          11          12
    1   1.9995795   1.9929784   1.9834882   1.9221329   1.9044388   1.0155278
           13          14
    1   0.9765020   0.2053542
  
*** Unpaired Electrons
 Yamaguchi Nd:         2.75
 Head-Gordon Nu:       2.36
 Head-Gordon Nu_nl:    2.19
  
**************************************************
 RAS-CI total energy for state   5:   -508.017671470080
  Excitation energy (eV) =  7.313618020139
  State symmetry: B1    (C2v      )
  <S^2>      :  2.0000
  Dipole Moment:    0.0000 X     0.0000 Y     0.0441 Z
  Trans. Moment:   -0.0000 X    -0.1528 Y    -0.0000 Z
  Strength   :  0.004182
  Natural transition orbitals ( 1 -> 5 ):
   e-/hole pair  1 alpha:  ampl =  0.923046 ( 85.2%)   [6 : 7]
   e-/hole pair  2 alpha:  ampl =  0.026527 (  0.1%)   [5 : 8]
   e-/hole pair  1 beta :  ampl =  0.210696 (  4.4%)   [6 : 7]
   e-/hole pair  2 beta :  ampl =  0.043203 (  0.2%)   [5 : 8]
   Sum of square amplitudes: 0.90

 NATURAL OCCUPATION NUMBERS (higher than 1.0E-05)
            1           2           3           4           5           6
    1   2.0000000   2.0000000   2.0000000   1.9999999   1.9999996   1.9999989
            7           8           9          10          11          12
    1   1.9995795   1.9929785   1.9834879   1.9221325   1.9044383   1.0155281
           13          14
    1   0.9765022   0.2053548

  Amplitudes : 
  
 | HOLE  | ALPHA  | BETA   | PART  |    AMPLITUDE 
--------------------------------------------------
 |       | 111110 | 111000 |       |    -1.9286713433043E-01
 |       | 110111 | 110100 |       |    -9.2503253667389E-01
 |       | 110111 | 100110 |       |     1.2882834277333E-01
 |       | 011111 | 011100 |       |     1.5121754239913E-01
--------------------------------------------------
*** Contributions RASCI wfn    Active:  98.35
                                 Hole:   1.65
                                 Part:   0.00

      Mulliken population analysis 
 ---------------------------------------------------
   Atom    Charge (a.u.)   Spin (a.u.)  
 ---------------------------------------------------
   1  N    0.005061        1.607361 
   2 Cl   -0.005061        0.392639 
 ---------------------------------------------------
   Sum:    0.000000        2.000000 
 ---------------------------------------------------
 
  
 NATURAL OCCUPATION NUMBERS (higher than 1.0E-05)
            1           2           3           4           5           6
    1   2.0000000   2.0000000   2.0000000   1.9999999   1.9999996   1.9999989
            7           8           9          10          11          12
    1   1.9995795   1.9929785   1.9834879   1.9221325   1.9044383   1.0155281
           13          14
    1   0.9765022   0.2053548
  
*** Unpaired Electrons
 Yamaguchi Nd:         2.75
 Head-Gordon Nu:       2.36
 Head-Gordon Nu_nl:    2.19
  
**************************************************
 RAS-CI total energy for state   6:   -507.970861554534
  Excitation energy (eV) =  8.587380629147
  State symmetry: A2    (C2v      )
  <S^2>      :  2.0000
  Dipole Moment:    0.0000 X     0.0000 Y    -1.2106 Z
  Trans. Moment:    0.0000 X    -0.0000 Y     0.0000 Z
  Strength   :  0.000000
  Natural transition orbitals ( 1 -> 6 ):
   e-/hole pair  1 alpha:  ampl =  0.000799 (  0.0%)   [6 : 7]
   e-/hole pair  2 alpha:  ampl =  0.000799 (  0.0%)   [5 : 8]
   e-/hole pair  1 beta :  ampl =  0.649877 ( 42.2%)   [6 : 7]
   e-/hole pair  2 beta :  ampl =  0.649867 ( 42.2%)   [5 : 8]
   Sum of square amplitudes: 0.85

 NATURAL OCCUPATION NUMBERS (higher than 1.0E-05)
            1           2           3           4           5           6
    1   2.0000000   2.0000000   2.0000000   1.9999998   1.9999993   1.9999993
            7           8           9          10          11          12
    1   1.9997023   1.9985097   1.9778191   1.5015958   1.5015797   1.4944200
           13          14
    1   1.4944050   0.0319700

  Amplitudes : 
  
 | HOLE  | ALPHA  | BETA   | PART  |    AMPLITUDE 
--------------------------------------------------
 |       | 111110 | 110100 |       |     1.8364743491495E-01
 |       | 111110 | 100110 |       |     6.2540409070355E-01
 |       | 111110 | 100011 |       |    -1.6176633988530E-01
 |       | 111110 | 011100 |       |    -6.2539393487649E-01
 |       | 111110 | 011001 |       |    -1.6176378316828E-01
 |       | 111110 | 001110 |       |    -1.8364948712719E-01
 |       | 111011 | 100110 |       |    -1.8223051655196E-01
 |       | 111011 | 011100 |       |     1.8222698390283E-01
--------------------------------------------------
*** Contributions RASCI wfn    Active:  98.73
                                 Hole:   1.27
                                 Part:   0.00

      Mulliken population analysis 
 ---------------------------------------------------
   Atom    Charge (a.u.)   Spin (a.u.)  
 ---------------------------------------------------
   1  N   -0.409498        0.991546 
   2 Cl    0.409498        1.008454 
 ---------------------------------------------------
   Sum:    0.000000        2.000000 
 ---------------------------------------------------
 
  
 NATURAL OCCUPATION NUMBERS (higher than 1.0E-05)
            1           2           3           4           5           6
    1   2.0000000   2.0000000   2.0000000   1.9999998   1.9999993   1.9999993
            7           8           9          10          11          12
    1   1.9997023   1.9985097   1.9778191   1.5015958   1.5015797   1.4944200
           13          14
    1   1.4944050   0.0319700
  
*** Unpaired Electrons
 Yamaguchi Nd:         3.12
 Head-Gordon Nu:       2.06
 Head-Gordon Nu_nl:    2.27
  
**************************************************
 RAS-CI total energy for state   7:   -507.970861554344
  Excitation energy (eV) =  8.587380634332
  State symmetry: A1    (C2v      )
  <S^2>      :  2.0000
  Dipole Moment:   -0.0000 X     0.0000 Y    -1.2106 Z
  Trans. Moment:   -0.0000 X     0.0000 Y    -0.0000 Z
  Strength   :  0.000000
  Natural transition orbitals ( 1 -> 7 ):
   e-/hole pair  1 alpha:  ampl =  0.000799 (  0.0%)   [6 : 7]
   e-/hole pair  2 alpha:  ampl =  0.000799 (  0.0%)   [5 : 8]
   e-/hole pair  1 beta :  ampl =  0.649891 ( 42.2%)   [6 : 7]
   e-/hole pair  2 beta :  ampl =  0.649854 ( 42.2%)   [5 : 8]
   Sum of square amplitudes: 0.85

 NATURAL OCCUPATION NUMBERS (higher than 1.0E-05)
            1           2           3           4           5           6
    1   2.0000000   2.0000000   2.0000000   1.9999998   1.9999993   1.9999993
            7           8           9          10          11          12
    1   1.9997023   1.9985098   1.9778180   1.5016162   1.5015589   1.4944419
           13          14
    1   1.4943844   0.0319702

  Amplitudes : 
  
 | HOLE  | ALPHA  | BETA   | PART  |    AMPLITUDE 
--------------------------------------------------
 |       | 111110 | 101100 |       |     6.5182450605681E-01
 |       | 111110 | 101001 |       |     1.6859762526237E-01
 |       | 111110 | 010110 |       |     6.5178690498336E-01
 |       | 111110 | 010011 |       |    -1.6858736688096E-01
 |       | 111011 | 101100 |       |    -1.8993159224724E-01
 |       | 111011 | 010110 |       |    -1.8992089228707E-01
--------------------------------------------------
*** Contributions RASCI wfn    Active:  98.73
                                 Hole:   1.27
                                 Part:   0.00

      Mulliken population analysis 
 ---------------------------------------------------
   Atom    Charge (a.u.)   Spin (a.u.)  
 ---------------------------------------------------
   1  N   -0.409500        0.991544 
   2 Cl    0.409500        1.008456 
 ---------------------------------------------------
   Sum:    0.000000        2.000000 
 ---------------------------------------------------
 
  
 NATURAL OCCUPATION NUMBERS (higher than 1.0E-05)
            1           2           3           4           5           6
    1   2.0000000   2.0000000   2.0000000   1.9999998   1.9999993   1.9999993
            7           8           9          10          11          12
    1   1.9997023   1.9985098   1.9778180   1.5016162   1.5015589   1.4944419
           13          14
    1   1.4943844   0.0319702
  
*** Unpaired Electrons
 Yamaguchi Nd:         3.12
 Head-Gordon Nu:       2.06
 Head-Gordon Nu_nl:    2.27
  
**************************************************
 RAS-CI total energy for state   8:   -507.967490728122
  Excitation energy (eV) =  8.679105482631
  State symmetry: A1    (C2v      )
  <S^2>      :  2.0000
  Dipole Moment:    0.0000 X    -0.0000 Y    -1.2104 Z
  Trans. Moment:    0.0000 X     0.0000 Y    -0.0000 Z
  Strength   :  0.000000
  Natural transition orbitals ( 1 -> 8 ):
   e-/hole pair  1 alpha:  ampl =  0.001461 (  0.0%)   [6 : 7]
   e-/hole pair  2 alpha:  ampl =  0.001461 (  0.0%)   [5 : 8]
   e-/hole pair  1 beta :  ampl =  0.649932 ( 42.2%)   [6 : 7]
   e-/hole pair  2 beta :  ampl =  0.649895 ( 42.2%)   [5 : 8]
   Sum of square amplitudes: 0.85

 NATURAL OCCUPATION NUMBERS (higher than 1.0E-05)
            1           2           3           4           5           6
    1   2.0000000   2.0000000   2.0000000   1.9999997   1.9999993   1.9999993
            7           8           9          10          11          12
    1   1.9996633   1.9980643   1.9786064   1.5012690   1.5012116   1.4948726
           13          14
    1   1.4948155   0.0314989

  Amplitudes : 
  
 | HOLE  | ALPHA  | BETA   | PART  |    AMPLITUDE 
--------------------------------------------------
 |       | 111110 | 101100 |       |    -6.5183953843937E-01
 |       | 111110 | 101001 |       |    -1.6897663124005E-01
 |       | 111110 | 010110 |       |     6.5187693429758E-01
 |       | 111110 | 010011 |       |    -1.6898601418113E-01
 |       | 111011 | 101100 |       |     1.8972510212042E-01
 |       | 111011 | 010110 |       |    -1.8973622653777E-01
--------------------------------------------------
*** Contributions RASCI wfn    Active:  98.68
                                 Hole:   1.32
                                 Part:   0.00

      Mulliken population analysis 
 ---------------------------------------------------
   Atom    Charge (a.u.)   Spin (a.u.)  
 ---------------------------------------------------
   1  N   -0.409256        0.991735 
   2 Cl    0.409256        1.008265 
 ---------------------------------------------------
   Sum:    0.000000        2.000000 
 ---------------------------------------------------
 
  
 NATURAL OCCUPATION NUMBERS (higher than 1.0E-05)
            1           2           3           4           5           6
    1   2.0000000   2.0000000   2.0000000   1.9999997   1.9999993   1.9999993
            7           8           9          10          11          12
    1   1.9996633   1.9980643   1.9786064   1.5012690   1.5012116   1.4948726
           13          14
    1   1.4948155   0.0314989
  
*** Unpaired Electrons
 Yamaguchi Nd:         3.12
 Head-Gordon Nu:       2.06
 Head-Gordon Nu_nl:    2.27
  
**************************************************
 RAS-CI total energy for state   9:   -507.959939748358
  Excitation energy (eV) =  8.884578096145
  State symmetry: A2    (C2v      )
  <S^2>      :  2.0000
  Dipole Moment:    0.0000 X    -0.0000 Y    -1.0425 Z
  Trans. Moment:   -0.0000 X     0.0000 Y     0.3761 Z
  Strength   :  0.030798
  Natural transition orbitals ( 1 -> 9 ):
   e-/hole pair  1 alpha:  ampl =  0.284001 (  8.1%)   [6 : 7]
   e-/hole pair  2 alpha:  ampl =  0.064928 (  0.4%)   [5 : 8]
   e-/hole pair  1 beta :  ampl =  0.608522 ( 37.0%)   [6 : 7]
   e-/hole pair  2 beta :  ampl =  0.608511 ( 37.0%)   [5 : 8]
   Sum of square amplitudes: 0.85

 NATURAL OCCUPATION NUMBERS (higher than 1.0E-05)
            1           2           3           4           5           6
    1   2.0000000   2.0000000   1.9999999   1.9999994   1.9999993   1.9999992
            7           8           9          10          11          12
    1   1.9989449   1.9917192   1.8752015   1.5763467   1.5763349   1.4199059
           13          14
    1   1.4198947   0.1416545

  Amplitudes : 
  
 | HOLE  | ALPHA  | BETA   | PART  |    AMPLITUDE 
--------------------------------------------------
 |       | 111110 | 110001 |       |    -1.5799346824452E-01
 |       | 111110 | 100110 |       |     5.7577710040621E-01
 |       | 111110 | 100011 |       |    -1.5205064173791E-01
 |       | 111110 | 011100 |       |     6.3093280438299E-01
 |       | 111110 | 011001 |       |     1.1718855004720E-01
 |       | 111110 | 001110 |       |    -2.1894829237919E-01
 |       | 111011 | 110100 |       |     2.7050554547718E-01
 |       | 111011 | 100110 |       |    -1.7146131622021E-01
 |       | 111011 | 011100 |       |    -1.0524127153113E-01
 |   8   | 111111 | 110100 |       |     1.0291768428720E-01
--------------------------------------------------
*** Contributions RASCI wfn    Active:  97.04
                                 Hole:   2.96
                                 Part:   0.00

      Mulliken population analysis 
 ---------------------------------------------------
   Atom    Charge (a.u.)   Spin (a.u.)  
 ---------------------------------------------------
   1  N   -0.359479        1.167969 
   2 Cl    0.359479        0.832031 
 ---------------------------------------------------
   Sum:    0.000000        2.000000 
 ---------------------------------------------------
 
  
 NATURAL OCCUPATION NUMBERS (higher than 1.0E-05)
            1           2           3           4           5           6
    1   2.0000000   2.0000000   1.9999999   1.9999994   1.9999993   1.9999992
            7           8           9          10          11          12
    1   1.9989449   1.9917192   1.8752015   1.5763467   1.5763349   1.4199059
           13          14
    1   1.4198947   0.1416545
  
*** Unpaired Electrons
 Yamaguchi Nd:         3.50
 Head-Gordon Nu:       2.28
 Head-Gordon Nu_nl:    2.37
  
**************************************************
 RAS-CI total energy for state  10:   -507.837712404235
  Excitation energy (eV) = 12.210553350067
  State symmetry: B1    (C2v      )
  <S^2>      :  2.0000
  Dipole Moment:    0.0000 X     0.0000 Y    -0.4562 Z
  Trans. Moment:    0.0000 X     0.1684 Y     0.0000 Z
  Strength   :  0.008482
  Natural transition orbitals ( 1 -> 10 ):
   e-/hole pair  1 alpha:  ampl =  0.725541 ( 52.6%)   [6 : 7]
   e-/hole pair  2 alpha:  ampl =  0.040097 (  0.2%)   [5 : 8]
   e-/hole pair  1 beta :  ampl =  0.239200 (  5.7%)   [6 : 7]
   e-/hole pair  2 beta :  ampl =  0.061186 (  0.4%)   [5 : 8]
   Sum of square amplitudes: 0.59

 NATURAL OCCUPATION NUMBERS (higher than 1.0E-05)
            1           2           3           4           5           6
    1   2.0000000   2.0000000   1.9999999   1.9999997   1.9999997   1.9999993
            7           8           9          10          11          12
    1   1.9993525   1.9921881   1.9646069   1.8583480   1.3140992   1.1155429
           13          14
    1   1.0252858   0.7305778

  Amplitudes : 
  
 | HOLE  | ALPHA  | BETA   | PART  |    AMPLITUDE 
--------------------------------------------------
 |       | 111110 | 010101 |       |    -2.4367039098377E-01
 |       | 111101 | 101100 |       |    -1.1212326475615E-01
 |       | 111101 | 010110 |       |     4.4685550619501E-01
 |       | 110111 | 110001 |       |     1.2431152973552E-01
 |       | 110111 | 100110 |       |     3.3238804024234E-01
 |       | 110111 | 001110 |       |    -1.0249543429281E-01
 |       | 011111 | 110100 |       |    -6.8671378347957E-01
 |       | 011111 | 110001 |       |    -1.0466391440326E-01
 |       | 011111 | 011100 |       |    -2.2236664960067E-01
--------------------------------------------------
*** Contributions RASCI wfn    Active:  97.99
                                 Hole:   2.01
                                 Part:   0.00

      Mulliken population analysis 
 ---------------------------------------------------
   Atom    Charge (a.u.)   Spin (a.u.)  
 ---------------------------------------------------
   1  N   -0.158826        1.678317 
   2 Cl    0.158826        0.321683 
 ---------------------------------------------------
   Sum:    0.000000        2.000000 
 ---------------------------------------------------
 
  
 NATURAL OCCUPATION NUMBERS (higher than 1.0E-05)
            1           2           3           4           5           6
    1   2.0000000   2.0000000   1.9999999   1.9999997   1.9999997   1.9999993
            7           8           9          10          11          12
    1   1.9993525   1.9921881   1.9646069   1.8583480   1.3140992   1.1155429
           13          14
    1   1.0252858   0.7305778
  
*** Unpaired Electrons
 Yamaguchi Nd:         4.16
 Head-Gordon Nu:       3.46
 Head-Gordon Nu_nl:    3.72
  
--------------------------------------------------
 Interstate Transition Properties
--------------------------------------------------
State A: Root  1
State B: Root  2
  
Angular momentum components
< B | Lx | A > =     1.202440728i
< B | Ly | A > =    -0.000000299i
< B | Lz | A > =    -0.000000000i
  
Norm of one-particle transition density matrix
||gamma^AB||_total       =  0.974406
||gamma^AB||_symmetrized =  0.687641
||gamma^AB||_anti-symm   =  0.690375
  
Spin-orbit couplings
 Using HF (reference) density for the 2-elec mean-field SOC contribution
KET: S',Sz' (Root   1) =  1.000 1.000
BRA: S ,Sz  (Root   2) =  1.000 1.000
Clebsh-Gordan coefficient: < 1.000, 1.000; 1.000, 0.000| 1.000, 1.000> =  0.707
 Computing 1e-SO integrals
 1e Reduced matrix elements (cm-1)
<S|| Hso(L-) ||S'> =    -0.0000159826    64.2566130786
<S|| Hso(L0) ||S'> =     0.0000000000    -0.0000000000
<S|| Hso(L+) ||S'> =    -0.0000159826   -64.2566130786
 1-elec SOC matrix (cm-1): < B(S,Sz) | Hso(1e) | A(S',Sz') >
                     |Sz'=-1.00>              |Sz'= 0.00>              |Sz'= 1.00>
 <Sz=-1.00|    0.000000   -0.000000i    -0.000011  -45.436287i    -0.000000   -0.000000i
 <Sz= 0.00|    0.000011  -45.436287i     0.000000    0.000000i    -0.000011  -45.436287i
 <Sz= 1.00|   -0.000000    0.000000i     0.000011  -45.436287i     0.000000   -0.000000i
1-elec SOCC =    90.872573688 cm-1
 Computing 2e-SOMF integrals
 Averagin spin alpha/beta reference densities
 2e-SOMF Reduced matrix elements (cm-1)
<S|| Hso(L-) ||S'> =     0.0000053246   -21.4448928531
<S|| Hso(L0) ||S'> =     0.0000000000     0.0000000000
<S|| Hso(L+) ||S'> =     0.0000053246    21.4448928531
 2-elec mean-field SOC matrix (cm-1): < B(S,Sz) | Hso(2e-mf) | A(S',Sz') >
                     |Sz'=-1.00>              |Sz'= 0.00>              |Sz'= 1.00>
 <Sz=-1.00|   -0.000000    0.000000i     0.000004   15.163829i     0.000000    0.000000i
 <Sz= 0.00|   -0.000004   15.163829i    -0.000000   -0.000000i     0.000004   15.163829i
 <Sz= 1.00|    0.000000   -0.000000i    -0.000004   15.163829i    -0.000000   -0.000000i
 Total mean-field SOC matrix (cm-1): < B(S,Sz) | Hsomf | A(S',Sz') >
                     |Sz'=-1.00>              |Sz'= 0.00>              |Sz'= 1.00>
 <Sz=-1.00|    0.000000   -0.000000i    -0.000008  -30.272458i    -0.000000   -0.000000i
 <Sz= 0.00|    0.000008  -30.272458i     0.000000    0.000000i    -0.000008  -30.272458i
 <Sz= 1.00|   -0.000000    0.000000i     0.000008  -30.272458i     0.000000   -0.000000i
Mean-Field SOCC =    60.544915371 cm-1
   
**************************************************
State A: Root  1
State B: Root  3
  
Angular momentum components
< B | Lx | A > =    -0.000000299i
< B | Ly | A > =    -1.202440370i
< B | Lz | A > =    -0.000000000i
  
Norm of one-particle transition density matrix
||gamma^AB||_total       =  0.974406
||gamma^AB||_symmetrized =  0.687641
||gamma^AB||_anti-symm   =  0.690375
  
Spin-orbit couplings
 Using HF (reference) density for the 2-elec mean-field SOC contribution
KET: S',Sz' (Root   1) =  1.000 1.000
BRA: S ,Sz  (Root   3) =  1.000 1.000
Clebsh-Gordan coefficient: < 1.000, 1.000; 1.000, 0.000| 1.000, 1.000> =  0.707
 Reading 1e-SO integrals
 1e Reduced matrix elements (cm-1)
<S|| Hso(L-) ||S'> =   -64.2566810669    -0.0000159827
<S|| Hso(L0) ||S'> =     0.0000000000     0.0000000000
<S|| Hso(L+) ||S'> =   -64.2566810669     0.0000159827
 1-elec SOC matrix (cm-1): < B(S,Sz) | Hso(1e) | A(S',Sz') >
                     |Sz'=-1.00>              |Sz'= 0.00>              |Sz'= 1.00>
 <Sz=-1.00|    0.000000   -0.000000i   -45.436335    0.000011i    -0.000000    0.000000i
 <Sz= 0.00|   45.436335    0.000011i     0.000000   -0.000000i   -45.436335    0.000011i
 <Sz= 1.00|   -0.000000   -0.000000i    45.436335    0.000011i     0.000000    0.000000i
1-elec SOCC =    90.872669838 cm-1
 Reading 2e-SOMF integrals
 2e-SOMF Reduced matrix elements (cm-1)
<S|| Hso(L-) ||S'> =    22.9575653214     0.0000057192
<S|| Hso(L0) ||S'> =     0.0000000000    -0.0000000000
<S|| Hso(L+) ||S'> =    22.9575653214    -0.0000057192
 2-elec mean-field SOC matrix (cm-1): < B(S,Sz) | Hso(2e-mf) | A(S',Sz') >
                     |Sz'=-1.00>              |Sz'= 0.00>              |Sz'= 1.00>
 <Sz=-1.00|   -0.000000    0.000000i    16.233450   -0.000004i     0.000000   -0.000000i
 <Sz= 0.00|  -16.233450   -0.000004i    -0.000000    0.000000i    16.233450   -0.000004i
 <Sz= 1.00|    0.000000    0.000000i   -16.233450   -0.000004i    -0.000000   -0.000000i
 Total mean-field SOC matrix (cm-1): < B(S,Sz) | Hsomf | A(S',Sz') >
                     |Sz'=-1.00>              |Sz'= 0.00>              |Sz'= 1.00>
 <Sz=-1.00|    0.000000    0.000000i   -29.202885    0.000007i    -0.000000    0.000000i
 <Sz= 0.00|   29.202885    0.000007i     0.000000   -0.000000i   -29.202885    0.000007i
 <Sz= 1.00|   -0.000000   -0.000000i    29.202885    0.000007i     0.000000   -0.000000i
Mean-Field SOCC =    58.405769601 cm-1
   
**************************************************
State A: Root  1
State B: Root  4
  
Angular momentum components
< B | Lx | A > =     0.000000025i
< B | Ly | A > =     0.323458755i
< B | Lz | A > =     0.000000000i
  
Norm of one-particle transition density matrix
||gamma^AB||_total       =  0.948757
||gamma^AB||_symmetrized =  0.676906
||gamma^AB||_anti-symm   =  0.664784
  
Spin-orbit couplings
 Using HF (reference) density for the 2-elec mean-field SOC contribution
KET: S',Sz' (Root   1) =  1.000 1.000
BRA: S ,Sz  (Root   4) =  1.000 1.000
Clebsh-Gordan coefficient: < 1.000, 1.000; 1.000, 0.000| 1.000, 1.000> =  0.707
 Reading 1e-SO integrals
 1e Reduced matrix elements (cm-1)
<S|| Hso(L-) ||S'> =    83.7150844555     0.0000064921
<S|| Hso(L0) ||S'> =     0.0000000000    -0.0000000000
<S|| Hso(L+) ||S'> =    83.7150844555    -0.0000064921
 1-elec SOC matrix (cm-1): < B(S,Sz) | Hso(1e) | A(S',Sz') >
                     |Sz'=-1.00>              |Sz'= 0.00>              |Sz'= 1.00>
 <Sz=-1.00|   -0.000000    0.000000i    59.195504   -0.000005i     0.000000   -0.000000i
 <Sz= 0.00|  -59.195504   -0.000005i    -0.000000    0.000000i    59.195504   -0.000005i
 <Sz= 1.00|    0.000000    0.000000i   -59.195504   -0.000005i    -0.000000   -0.000000i
1-elec SOCC =   118.391007812 cm-1
 Reading 2e-SOMF integrals
 2e-SOMF Reduced matrix elements (cm-1)
<S|| Hso(L-) ||S'> =   -11.0745044760    -0.0000006789
<S|| Hso(L0) ||S'> =     0.0000000000    -0.0000000000
<S|| Hso(L+) ||S'> =   -11.0745044760     0.0000006789
 2-elec mean-field SOC matrix (cm-1): < B(S,Sz) | Hso(2e-mf) | A(S',Sz') >
                     |Sz'=-1.00>              |Sz'= 0.00>              |Sz'= 1.00>
 <Sz=-1.00|    0.000000    0.000000i    -7.830857    0.000000i    -0.000000    0.000000i
 <Sz= 0.00|    7.830857    0.000000i     0.000000   -0.000000i    -7.830857    0.000000i
 <Sz= 1.00|   -0.000000   -0.000000i     7.830857    0.000000i     0.000000   -0.000000i
 Total mean-field SOC matrix (cm-1): < B(S,Sz) | Hsomf | A(S',Sz') >
                     |Sz'=-1.00>              |Sz'= 0.00>              |Sz'= 1.00>
 <Sz=-1.00|   -0.000000    0.000000i    51.364647   -0.000004i     0.000000   -0.000000i
 <Sz= 0.00|  -51.364647   -0.000004i    -0.000000    0.000000i    51.364647   -0.000004i
 <Sz= 1.00|    0.000000    0.000000i   -51.364647   -0.000004i    -0.000000   -0.000000i
Mean-Field SOCC =   102.729293386 cm-1
   
**************************************************
State A: Root  1
State B: Root  5
  
Angular momentum components
< B | Lx | A > =    -0.323457981i
< B | Ly | A > =     0.000000025i
< B | Lz | A > =    -0.000000000i
  
Norm of one-particle transition density matrix
||gamma^AB||_total       =  0.948757
||gamma^AB||_symmetrized =  0.676905
||gamma^AB||_anti-symm   =  0.664784
  
Spin-orbit couplings
 Using HF (reference) density for the 2-elec mean-field SOC contribution
KET: S',Sz' (Root   1) =  1.000 1.000
BRA: S ,Sz  (Root   5) =  1.000 1.000
Clebsh-Gordan coefficient: < 1.000, 1.000; 1.000, 0.000| 1.000, 1.000> =  0.707
 Reading 1e-SO integrals
 1e Reduced matrix elements (cm-1)
<S|| Hso(L-) ||S'> =     0.0000064933   -83.7146179892
<S|| Hso(L0) ||S'> =     0.0000000000    -0.0000000000
<S|| Hso(L+) ||S'> =     0.0000064933    83.7146179892
 1-elec SOC matrix (cm-1): < B(S,Sz) | Hso(1e) | A(S',Sz') >
                     |Sz'=-1.00>              |Sz'= 0.00>              |Sz'= 1.00>
 <Sz=-1.00|   -0.000000    0.000000i     0.000005   59.195174i     0.000000    0.000000i
 <Sz= 0.00|   -0.000005   59.195174i    -0.000000   -0.000000i     0.000005   59.195174i
 <Sz= 1.00|    0.000000   -0.000000i    -0.000005   59.195174i    -0.000000   -0.000000i
1-elec SOCC =   118.390348129 cm-1
 Reading 2e-SOMF integrals
 2e-SOMF Reduced matrix elements (cm-1)
<S|| Hso(L-) ||S'> =    -0.0000011188    12.0778582934
<S|| Hso(L0) ||S'> =     0.0000000000     0.0000000000
<S|| Hso(L+) ||S'> =    -0.0000011188   -12.0778582934
 2-elec mean-field SOC matrix (cm-1): < B(S,Sz) | Hso(2e-mf) | A(S',Sz') >
                     |Sz'=-1.00>              |Sz'= 0.00>              |Sz'= 1.00>
 <Sz=-1.00|    0.000000   -0.000000i    -0.000001   -8.540336i    -0.000000   -0.000000i
 <Sz= 0.00|    0.000001   -8.540336i     0.000000    0.000000i    -0.000001   -8.540336i
 <Sz= 1.00|   -0.000000    0.000000i     0.000001   -8.540336i     0.000000    0.000000i
 Total mean-field SOC matrix (cm-1): < B(S,Sz) | Hsomf | A(S',Sz') >
                     |Sz'=-1.00>              |Sz'= 0.00>              |Sz'= 1.00>
 <Sz=-1.00|   -0.000000    0.000000i     0.000004   50.654839i     0.000000    0.000000i
 <Sz= 0.00|   -0.000004   50.654839i    -0.000000   -0.000000i     0.000004   50.654839i
 <Sz= 1.00|    0.000000   -0.000000i    -0.000004   50.654839i    -0.000000   -0.000000i
Mean-Field SOCC =   101.309677126 cm-1
   
**************************************************
State A: Root  1
State B: Root  6
  
Angular momentum components
< B | Lx | A > =    -0.000000000i
< B | Ly | A > =    -0.000000000i
< B | Lz | A > =     0.000000000i
  
Norm of one-particle transition density matrix
||gamma^AB||_total       =  0.919674
||gamma^AB||_symmetrized =  0.673657
||gamma^AB||_anti-symm   =  0.626089
  
Spin-orbit couplings
 Using HF (reference) density for the 2-elec mean-field SOC contribution
KET: S',Sz' (Root   1) =  1.000 1.000
BRA: S ,Sz  (Root   6) =  1.000 1.000
Clebsh-Gordan coefficient: < 1.000, 1.000; 1.000, 0.000| 1.000, 1.000> =  0.707
 Reading 1e-SO integrals
 1e Reduced matrix elements (cm-1)
<S|| Hso(L-) ||S'> =    -0.0000000000     0.0000000000
<S|| Hso(L0) ||S'> =     0.0000000000     0.0000000103
<S|| Hso(L+) ||S'> =    -0.0000000000    -0.0000000000
 1-elec SOC matrix (cm-1): < B(S,Sz) | Hso(1e) | A(S',Sz') >
                     |Sz'=-1.00>              |Sz'= 0.00>              |Sz'= 1.00>
 <Sz=-1.00|    0.000000   -0.000000i    -0.000000   -0.000000i    -0.000000    0.000000i
 <Sz= 0.00|    0.000000   -0.000000i     0.000000    0.000000i    -0.000000   -0.000000i
 <Sz= 1.00|   -0.000000    0.000000i     0.000000   -0.000000i     0.000000    0.000000i
1-elec SOCC =     0.000000010 cm-1
 Reading 2e-SOMF integrals
 2e-SOMF Reduced matrix elements (cm-1)
<S|| Hso(L-) ||S'> =     0.0000000000    -0.0000000000
<S|| Hso(L0) ||S'> =     0.0000000000    -0.0000000734
<S|| Hso(L+) ||S'> =     0.0000000000     0.0000000000
 2-elec mean-field SOC matrix (cm-1): < B(S,Sz) | Hso(2e-mf) | A(S',Sz') >
                     |Sz'=-1.00>              |Sz'= 0.00>              |Sz'= 1.00>
 <Sz=-1.00|   -0.000000    0.000000i     0.000000    0.000000i     0.000000   -0.000000i
 <Sz= 0.00|   -0.000000    0.000000i    -0.000000   -0.000000i     0.000000    0.000000i
 <Sz= 1.00|    0.000000   -0.000000i    -0.000000    0.000000i    -0.000000   -0.000000i
 Total mean-field SOC matrix (cm-1): < B(S,Sz) | Hsomf | A(S',Sz') >
                     |Sz'=-1.00>              |Sz'= 0.00>              |Sz'= 1.00>
 <Sz=-1.00|    0.000000    0.000000i    -0.000000   -0.000000i    -0.000000   -0.000000i
 <Sz= 0.00|    0.000000   -0.000000i     0.000000   -0.000000i    -0.000000   -0.000000i
 <Sz= 1.00|   -0.000000   -0.000000i     0.000000   -0.000000i     0.000000   -0.000000i
Mean-Field SOCC =     0.000000063 cm-1
   
**************************************************
State A: Root  1
State B: Root  7
  
Angular momentum components
< B | Lx | A > =     0.000000000i
< B | Ly | A > =    -0.000000000i
< B | Lz | A > =     0.000000226i
  
Norm of one-particle transition density matrix
||gamma^AB||_total       =  0.919675
||gamma^AB||_symmetrized =  0.673657
||gamma^AB||_anti-symm   =  0.626089
  
Spin-orbit couplings
 Using HF (reference) density for the 2-elec mean-field SOC contribution
KET: S',Sz' (Root   1) =  1.000 1.000
BRA: S ,Sz  (Root   7) =  1.000 1.000
Clebsh-Gordan coefficient: < 1.000, 1.000; 1.000, 0.000| 1.000, 1.000> =  0.707
 Reading 1e-SO integrals
 1e Reduced matrix elements (cm-1)
<S|| Hso(L-) ||S'> =    -0.0000000000     0.0000000000
<S|| Hso(L0) ||S'> =     0.0000000000     0.0035600073
<S|| Hso(L+) ||S'> =    -0.0000000000    -0.0000000000
 1-elec SOC matrix (cm-1): < B(S,Sz) | Hso(1e) | A(S',Sz') >
                     |Sz'=-1.00>              |Sz'= 0.00>              |Sz'= 1.00>
 <Sz=-1.00|    0.000000   -0.002517i    -0.000000   -0.000000i    -0.000000    0.000000i
 <Sz= 0.00|    0.000000   -0.000000i     0.000000    0.000000i    -0.000000   -0.000000i
 <Sz= 1.00|   -0.000000    0.000000i     0.000000   -0.000000i     0.000000    0.002517i
1-elec SOCC =     0.003560007 cm-1
 Reading 2e-SOMF integrals
 2e-SOMF Reduced matrix elements (cm-1)
<S|| Hso(L-) ||S'> =     0.0000000000    -0.0000000000
<S|| Hso(L0) ||S'> =     0.0000000000    -0.0301946501
<S|| Hso(L+) ||S'> =     0.0000000000     0.0000000000
 2-elec mean-field SOC matrix (cm-1): < B(S,Sz) | Hso(2e-mf) | A(S',Sz') >
                     |Sz'=-1.00>              |Sz'= 0.00>              |Sz'= 1.00>
 <Sz=-1.00|   -0.000000    0.021351i     0.000000    0.000000i     0.000000   -0.000000i
 <Sz= 0.00|   -0.000000    0.000000i    -0.000000   -0.000000i     0.000000    0.000000i
 <Sz= 1.00|    0.000000   -0.000000i    -0.000000    0.000000i    -0.000000   -0.021351i
 Total mean-field SOC matrix (cm-1): < B(S,Sz) | Hsomf | A(S',Sz') >
                     |Sz'=-1.00>              |Sz'= 0.00>              |Sz'= 1.00>
 <Sz=-1.00|    0.000000    0.018834i    -0.000000   -0.000000i    -0.000000   -0.000000i
 <Sz= 0.00|    0.000000   -0.000000i     0.000000   -0.000000i    -0.000000   -0.000000i
 <Sz= 1.00|   -0.000000   -0.000000i     0.000000   -0.000000i     0.000000   -0.018834i
Mean-Field SOCC =     0.026634643 cm-1
   
**************************************************
State A: Root  1
State B: Root  8
  
Angular momentum components
< B | Lx | A > =     0.000000000i
< B | Ly | A > =     0.000000000i
< B | Lz | A > =    -0.000000000i
  
Norm of one-particle transition density matrix
||gamma^AB||_total       =  0.919735
||gamma^AB||_symmetrized =  0.626115
||gamma^AB||_anti-symm   =  0.673716
  
Spin-orbit couplings
 Using HF (reference) density for the 2-elec mean-field SOC contribution
KET: S',Sz' (Root   1) =  1.000 1.000
BRA: S ,Sz  (Root   8) =  1.000 1.000
Clebsh-Gordan coefficient: < 1.000, 1.000; 1.000, 0.000| 1.000, 1.000> =  0.707
 Reading 1e-SO integrals
 1e Reduced matrix elements (cm-1)
<S|| Hso(L-) ||S'> =    -0.0000000000     0.0000000000
<S|| Hso(L0) ||S'> =     0.0000000000  -126.3982538871
<S|| Hso(L+) ||S'> =    -0.0000000000    -0.0000000000
 1-elec SOC matrix (cm-1): < B(S,Sz) | Hso(1e) | A(S',Sz') >
                     |Sz'=-1.00>              |Sz'= 0.00>              |Sz'= 1.00>
 <Sz=-1.00|    0.000000   89.377062i    -0.000000   -0.000000i    -0.000000   -0.000000i
 <Sz= 0.00|    0.000000   -0.000000i     0.000000   -0.000000i    -0.000000   -0.000000i
 <Sz= 1.00|   -0.000000   -0.000000i     0.000000   -0.000000i     0.000000  -89.377062i
1-elec SOCC =   126.398253887 cm-1
 Reading 2e-SOMF integrals
 2e-SOMF Reduced matrix elements (cm-1)
<S|| Hso(L-) ||S'> =     0.0000000000    -0.0000000000
<S|| Hso(L0) ||S'> =     0.0000000000    20.3504752492
<S|| Hso(L+) ||S'> =     0.0000000000     0.0000000000
 2-elec mean-field SOC matrix (cm-1): < B(S,Sz) | Hso(2e-mf) | A(S',Sz') >
                     |Sz'=-1.00>              |Sz'= 0.00>              |Sz'= 1.00>
 <Sz=-1.00|   -0.000000  -14.389959i     0.000000    0.000000i     0.000000    0.000000i
 <Sz= 0.00|   -0.000000    0.000000i    -0.000000    0.000000i     0.000000    0.000000i
 <Sz= 1.00|    0.000000    0.000000i    -0.000000    0.000000i    -0.000000   14.389959i
 Total mean-field SOC matrix (cm-1): < B(S,Sz) | Hsomf | A(S',Sz') >
                     |Sz'=-1.00>              |Sz'= 0.00>              |Sz'= 1.00>
 <Sz=-1.00|   -0.000000   74.987103i     0.000000   -0.000000i     0.000000   -0.000000i
 <Sz= 0.00|   -0.000000   -0.000000i    -0.000000   -0.000000i     0.000000   -0.000000i
 <Sz= 1.00|    0.000000   -0.000000i    -0.000000   -0.000000i    -0.000000  -74.987103i
Mean-Field SOCC =   106.047778638 cm-1
   
**************************************************
State A: Root  1
State B: Root  9
  
Angular momentum components
< B | Lx | A > =    -0.000000000i
< B | Ly | A > =    -0.000000000i
< B | Lz | A > =     0.000000000i
  
Norm of one-particle transition density matrix
||gamma^AB||_total       =  0.921728
||gamma^AB||_symmetrized =  0.673060
||gamma^AB||_anti-symm   =  0.629739
  
Spin-orbit couplings
 Using HF (reference) density for the 2-elec mean-field SOC contribution
KET: S',Sz' (Root   1) =  1.000 1.000
BRA: S ,Sz  (Root   9) =  1.000 1.000
Clebsh-Gordan coefficient: < 1.000, 1.000; 1.000, 0.000| 1.000, 1.000> =  0.707
 Reading 1e-SO integrals
 1e Reduced matrix elements (cm-1)
<S|| Hso(L-) ||S'> =     0.0000000000     0.0000000000
<S|| Hso(L0) ||S'> =     0.0000000000     0.0000000003
<S|| Hso(L+) ||S'> =     0.0000000000    -0.0000000000
 1-elec SOC matrix (cm-1): < B(S,Sz) | Hso(1e) | A(S',Sz') >
                     |Sz'=-1.00>              |Sz'= 0.00>              |Sz'= 1.00>
 <Sz=-1.00|   -0.000000   -0.000000i     0.000000   -0.000000i     0.000000    0.000000i
 <Sz= 0.00|   -0.000000   -0.000000i    -0.000000    0.000000i     0.000000   -0.000000i
 <Sz= 1.00|    0.000000    0.000000i    -0.000000   -0.000000i    -0.000000    0.000000i
1-elec SOCC =     0.000000000 cm-1
 Reading 2e-SOMF integrals
 2e-SOMF Reduced matrix elements (cm-1)
<S|| Hso(L-) ||S'> =     0.0000000000    -0.0000000000
<S|| Hso(L0) ||S'> =     0.0000000000     0.0000000080
<S|| Hso(L+) ||S'> =     0.0000000000     0.0000000000
 2-elec mean-field SOC matrix (cm-1): < B(S,Sz) | Hso(2e-mf) | A(S',Sz') >
                     |Sz'=-1.00>              |Sz'= 0.00>              |Sz'= 1.00>
 <Sz=-1.00|   -0.000000   -0.000000i     0.000000    0.000000i     0.000000    0.000000i
 <Sz= 0.00|   -0.000000    0.000000i    -0.000000    0.000000i     0.000000    0.000000i
 <Sz= 1.00|    0.000000    0.000000i    -0.000000    0.000000i    -0.000000    0.000000i
 Total mean-field SOC matrix (cm-1): < B(S,Sz) | Hsomf | A(S',Sz') >
                     |Sz'=-1.00>              |Sz'= 0.00>              |Sz'= 1.00>
 <Sz=-1.00|   -0.000000   -0.000000i     0.000000   -0.000000i     0.000000    0.000000i
 <Sz= 0.00|   -0.000000   -0.000000i    -0.000000    0.000000i     0.000000   -0.000000i
 <Sz= 1.00|    0.000000    0.000000i    -0.000000   -0.000000i    -0.000000    0.000000i
Mean-Field SOCC =     0.000000008 cm-1
   
**************************************************
State A: Root  1
State B: Root 10
  
Angular momentum components
< B | Lx | A > =    -0.650619025i
< B | Ly | A > =     0.000003273i
< B | Lz | A > =     0.000000000i
  
Norm of one-particle transition density matrix
||gamma^AB||_total       =  0.767602
||gamma^AB||_symmetrized =  0.537648
||gamma^AB||_anti-symm   =  0.547856
  
Spin-orbit couplings
 Using HF (reference) density for the 2-elec mean-field SOC contribution
KET: S',Sz' (Root   1) =  1.000 1.000
BRA: S ,Sz  (Root  10) =  1.000 1.000
Clebsh-Gordan coefficient: < 1.000, 1.000; 1.000, 0.000| 1.000, 1.000> =  0.707
 Reading 1e-SO integrals
 1e Reduced matrix elements (cm-1)
<S|| Hso(L-) ||S'> =    -0.0003890430    77.3264617340
<S|| Hso(L0) ||S'> =     0.0000000000     0.0000000000
<S|| Hso(L+) ||S'> =    -0.0003890430   -77.3264617340
 1-elec SOC matrix (cm-1): < B(S,Sz) | Hso(1e) | A(S',Sz') >
                     |Sz'=-1.00>              |Sz'= 0.00>              |Sz'= 1.00>
 <Sz=-1.00|    0.000000   -0.000000i    -0.000275  -54.678065i    -0.000000   -0.000000i
 <Sz= 0.00|    0.000275  -54.678065i     0.000000    0.000000i    -0.000275  -54.678065i
 <Sz= 1.00|   -0.000000    0.000000i     0.000275  -54.678065i     0.000000    0.000000i
1-elec SOCC =   109.356130916 cm-1
 Reading 2e-SOMF integrals
 2e-SOMF Reduced matrix elements (cm-1)
<S|| Hso(L-) ||S'> =     0.0000957676   -18.4906825974
<S|| Hso(L0) ||S'> =     0.0000000000    -0.0000000000
<S|| Hso(L+) ||S'> =     0.0000957676    18.4906825974
 2-elec mean-field SOC matrix (cm-1): < B(S,Sz) | Hso(2e-mf) | A(S',Sz') >
                     |Sz'=-1.00>              |Sz'= 0.00>              |Sz'= 1.00>
 <Sz=-1.00|   -0.000000    0.000000i     0.000068   13.074887i     0.000000    0.000000i
 <Sz= 0.00|   -0.000068   13.074887i    -0.000000   -0.000000i     0.000068   13.074887i
 <Sz= 1.00|    0.000000   -0.000000i    -0.000068   13.074887i    -0.000000   -0.000000i
 Total mean-field SOC matrix (cm-1): < B(S,Sz) | Hsomf | A(S',Sz') >
                     |Sz'=-1.00>              |Sz'= 0.00>              |Sz'= 1.00>
 <Sz=-1.00|    0.000000   -0.000000i    -0.000207  -41.603178i    -0.000000   -0.000000i
 <Sz= 0.00|    0.000207  -41.603178i     0.000000    0.000000i    -0.000207  -41.603178i
 <Sz= 1.00|   -0.000000    0.000000i     0.000207  -41.603178i     0.000000    0.000000i
Mean-Field SOCC =    83.206356809 cm-1
   
**************************************************
State A: Root  2
State B: Root  1
  
Angular momentum components
< B | Lx | A > =    -1.202440728i
< B | Ly | A > =     0.000000299i
< B | Lz | A > =     0.000000000i
  
Norm of one-particle transition density matrix
||gamma^AB||_total       =  0.974406
||gamma^AB||_symmetrized =  0.687641
||gamma^AB||_anti-symm   =  0.690375
  
Spin-orbit couplings
 Using HF (reference) density for the 2-elec mean-field SOC contribution
KET: S',Sz' (Root   2) =  1.000 1.000
BRA: S ,Sz  (Root   1) =  1.000 1.000
Clebsh-Gordan coefficient: < 1.000, 1.000; 1.000, 0.000| 1.000, 1.000> =  0.707
 Reading 1e-SO integrals
 1e Reduced matrix elements (cm-1)
<S|| Hso(L-) ||S'> =     0.0000159826   -64.2566130786
<S|| Hso(L0) ||S'> =     0.0000000000     0.0000000000
<S|| Hso(L+) ||S'> =     0.0000159826    64.2566130786
 1-elec SOC matrix (cm-1): < B(S,Sz) | Hso(1e) | A(S',Sz') >
                     |Sz'=-1.00>              |Sz'= 0.00>              |Sz'= 1.00>
 <Sz=-1.00|   -0.000000    0.000000i     0.000011   45.436287i     0.000000    0.000000i
 <Sz= 0.00|   -0.000011   45.436287i    -0.000000   -0.000000i     0.000011   45.436287i
 <Sz= 1.00|    0.000000   -0.000000i    -0.000011   45.436287i    -0.000000    0.000000i
1-elec SOCC =    90.872573688 cm-1
 Reading 2e-SOMF integrals
 2e-SOMF Reduced matrix elements (cm-1)
<S|| Hso(L-) ||S'> =    -0.0000053246    21.4448928531
<S|| Hso(L0) ||S'> =     0.0000000000    -0.0000000000
<S|| Hso(L+) ||S'> =    -0.0000053246   -21.4448928531
 2-elec mean-field SOC matrix (cm-1): < B(S,Sz) | Hso(2e-mf) | A(S',Sz') >
                     |Sz'=-1.00>              |Sz'= 0.00>              |Sz'= 1.00>
 <Sz=-1.00|    0.000000   -0.000000i    -0.000004  -15.163829i    -0.000000   -0.000000i
 <Sz= 0.00|    0.000004  -15.163829i     0.000000    0.000000i    -0.000004  -15.163829i
 <Sz= 1.00|   -0.000000    0.000000i     0.000004  -15.163829i     0.000000    0.000000i
 Total mean-field SOC matrix (cm-1): < B(S,Sz) | Hsomf | A(S',Sz') >
                     |Sz'=-1.00>              |Sz'= 0.00>              |Sz'= 1.00>
 <Sz=-1.00|   -0.000000    0.000000i     0.000008   30.272458i     0.000000    0.000000i
 <Sz= 0.00|   -0.000008   30.272458i    -0.000000   -0.000000i     0.000008   30.272458i
 <Sz= 1.00|    0.000000   -0.000000i    -0.000008   30.272458i    -0.000000    0.000000i
Mean-Field SOCC =    60.544915371 cm-1
   
**************************************************
State A: Root  2
State B: Root  3
  
Angular momentum components
< B | Lx | A > =    -0.000000000i
< B | Ly | A > =     0.000000000i
< B | Lz | A > =    -1.000000000i
  
Norm of one-particle transition density matrix
||gamma^AB||_total       =  0.956228
||gamma^AB||_symmetrized =  0.676917
||gamma^AB||_anti-symm   =  0.675392
  
Spin-orbit couplings
 Using HF (reference) density for the 2-elec mean-field SOC contribution
KET: S',Sz' (Root   2) =  1.000 1.000
BRA: S ,Sz  (Root   3) =  1.000 1.000
Clebsh-Gordan coefficient: < 1.000, 1.000; 1.000, 0.000| 1.000, 1.000> =  0.707
 Reading 1e-SO integrals
 1e Reduced matrix elements (cm-1)
<S|| Hso(L-) ||S'> =     0.0000000000     0.0000000000
<S|| Hso(L0) ||S'> =     0.0000000000    81.1237474710
<S|| Hso(L+) ||S'> =     0.0000000000    -0.0000000000
 1-elec SOC matrix (cm-1): < B(S,Sz) | Hso(1e) | A(S',Sz') >
                     |Sz'=-1.00>              |Sz'= 0.00>              |Sz'= 1.00>
 <Sz=-1.00|   -0.000000  -57.363152i     0.000000   -0.000000i     0.000000    0.000000i
 <Sz= 0.00|   -0.000000    0.000000i    -0.000000    0.000000i     0.000000   -0.000000i
 <Sz= 1.00|    0.000000    0.000000i    -0.000000   -0.000000i    -0.000000   57.363152i
1-elec SOCC =    81.123747471 cm-1
 Reading 2e-SOMF integrals
 2e-SOMF Reduced matrix elements (cm-1)
<S|| Hso(L-) ||S'> =     0.0000000000    -0.0000000000
<S|| Hso(L0) ||S'> =     0.0000000000   -30.6640563138
<S|| Hso(L+) ||S'> =     0.0000000000     0.0000000000
 2-elec mean-field SOC matrix (cm-1): < B(S,Sz) | Hso(2e-mf) | A(S',Sz') >
                     |Sz'=-1.00>              |Sz'= 0.00>              |Sz'= 1.00>
 <Sz=-1.00|   -0.000000   21.682762i     0.000000    0.000000i     0.000000   -0.000000i
 <Sz= 0.00|   -0.000000   -0.000000i    -0.000000   -0.000000i     0.000000    0.000000i
 <Sz= 1.00|    0.000000   -0.000000i    -0.000000    0.000000i    -0.000000  -21.682762i
 Total mean-field SOC matrix (cm-1): < B(S,Sz) | Hsomf | A(S',Sz') >
                     |Sz'=-1.00>              |Sz'= 0.00>              |Sz'= 1.00>
 <Sz=-1.00|   -0.000000  -35.680390i     0.000000   -0.000000i     0.000000    0.000000i
 <Sz= 0.00|   -0.000000    0.000000i    -0.000000    0.000000i     0.000000    0.000000i
 <Sz= 1.00|    0.000000    0.000000i    -0.000000   -0.000000i    -0.000000   35.680390i
Mean-Field SOCC =    50.459691157 cm-1
   
**************************************************
State A: Root  2
State B: Root  4
  
Angular momentum components
< B | Lx | A > =    -0.000000000i
< B | Ly | A > =    -0.000000000i
< B | Lz | A > =     0.000000373i
  
Norm of one-particle transition density matrix
||gamma^AB||_total       =  0.257467
||gamma^AB||_symmetrized =  0.180767
||gamma^AB||_anti-symm   =  0.183336
  
Spin-orbit couplings
 Using HF (reference) density for the 2-elec mean-field SOC contribution
KET: S',Sz' (Root   2) =  1.000 1.000
BRA: S ,Sz  (Root   4) =  1.000 1.000
Clebsh-Gordan coefficient: < 1.000, 1.000; 1.000, 0.000| 1.000, 1.000> =  0.707
 Reading 1e-SO integrals
 1e Reduced matrix elements (cm-1)
<S|| Hso(L-) ||S'> =     0.0000000000    -0.0000000000
<S|| Hso(L0) ||S'> =     0.0000000000   -45.9654694272
<S|| Hso(L+) ||S'> =     0.0000000000     0.0000000000
 1-elec SOC matrix (cm-1): < B(S,Sz) | Hso(1e) | A(S',Sz') >
                     |Sz'=-1.00>              |Sz'= 0.00>              |Sz'= 1.00>
 <Sz=-1.00|   -0.000000   32.502495i     0.000000    0.000000i     0.000000   -0.000000i
 <Sz= 0.00|   -0.000000    0.000000i    -0.000000   -0.000000i     0.000000    0.000000i
 <Sz= 1.00|    0.000000   -0.000000i    -0.000000    0.000000i    -0.000000  -32.502495i
1-elec SOCC =    45.965469427 cm-1
 Reading 2e-SOMF integrals
 2e-SOMF Reduced matrix elements (cm-1)
<S|| Hso(L-) ||S'> =    -0.0000000000     0.0000000000
<S|| Hso(L0) ||S'> =     0.0000000000    14.3588775460
<S|| Hso(L+) ||S'> =    -0.0000000000    -0.0000000000
 2-elec mean-field SOC matrix (cm-1): < B(S,Sz) | Hso(2e-mf) | A(S',Sz') >
                     |Sz'=-1.00>              |Sz'= 0.00>              |Sz'= 1.00>
 <Sz=-1.00|    0.000000  -10.153260i    -0.000000   -0.000000i    -0.000000    0.000000i
 <Sz= 0.00|    0.000000   -0.000000i     0.000000    0.000000i    -0.000000   -0.000000i
 <Sz= 1.00|   -0.000000    0.000000i     0.000000   -0.000000i     0.000000   10.153260i
 Total mean-field SOC matrix (cm-1): < B(S,Sz) | Hsomf | A(S',Sz') >
                     |Sz'=-1.00>              |Sz'= 0.00>              |Sz'= 1.00>
 <Sz=-1.00|    0.000000   22.349235i    -0.000000    0.000000i    -0.000000   -0.000000i
 <Sz= 0.00|    0.000000    0.000000i     0.000000   -0.000000i    -0.000000    0.000000i
 <Sz= 1.00|   -0.000000   -0.000000i     0.000000    0.000000i     0.000000  -22.349235i
Mean-Field SOCC =    31.606591881 cm-1
   
**************************************************
State A: Root  2
State B: Root  5
  
Angular momentum components
< B | Lx | A > =     0.000000000i
< B | Ly | A > =     0.000000000i
< B | Lz | A > =    -0.000000000i
  
Norm of one-particle transition density matrix
||gamma^AB||_total       =  0.395120
||gamma^AB||_symmetrized =  0.385771
||gamma^AB||_anti-symm   =  0.085441
  
Spin-orbit couplings
 Using HF (reference) density for the 2-elec mean-field SOC contribution
KET: S',Sz' (Root   2) =  1.000 1.000
BRA: S ,Sz  (Root   5) =  1.000 1.000
Clebsh-Gordan coefficient: < 1.000, 1.000; 1.000, 0.000| 1.000, 1.000> =  0.707
 Reading 1e-SO integrals
 1e Reduced matrix elements (cm-1)
<S|| Hso(L-) ||S'> =     0.0000000000    -0.0000000000
<S|| Hso(L0) ||S'> =     0.0000000000     0.0000078678
<S|| Hso(L+) ||S'> =     0.0000000000     0.0000000000
 1-elec SOC matrix (cm-1): < B(S,Sz) | Hso(1e) | A(S',Sz') >
                     |Sz'=-1.00>              |Sz'= 0.00>              |Sz'= 1.00>
 <Sz=-1.00|   -0.000000   -0.000006i     0.000000    0.000000i     0.000000    0.000000i
 <Sz= 0.00|   -0.000000    0.000000i    -0.000000    0.000000i     0.000000    0.000000i
 <Sz= 1.00|    0.000000    0.000000i    -0.000000    0.000000i    -0.000000    0.000006i
1-elec SOCC =     0.000007868 cm-1
 Reading 2e-SOMF integrals
 2e-SOMF Reduced matrix elements (cm-1)
<S|| Hso(L-) ||S'> =    -0.0000000000     0.0000000000
<S|| Hso(L0) ||S'> =     0.0000000000    -0.0000024580
<S|| Hso(L+) ||S'> =    -0.0000000000    -0.0000000000
 2-elec mean-field SOC matrix (cm-1): < B(S,Sz) | Hso(2e-mf) | A(S',Sz') >
                     |Sz'=-1.00>              |Sz'= 0.00>              |Sz'= 1.00>
 <Sz=-1.00|    0.000000    0.000002i    -0.000000   -0.000000i    -0.000000   -0.000000i
 <Sz= 0.00|    0.000000   -0.000000i     0.000000   -0.000000i    -0.000000   -0.000000i
 <Sz= 1.00|   -0.000000   -0.000000i     0.000000   -0.000000i     0.000000   -0.000002i
 Total mean-field SOC matrix (cm-1): < B(S,Sz) | Hsomf | A(S',Sz') >
                     |Sz'=-1.00>              |Sz'= 0.00>              |Sz'= 1.00>
 <Sz=-1.00|   -0.000000   -0.000004i     0.000000    0.000000i     0.000000    0.000000i
 <Sz= 0.00|   -0.000000    0.000000i    -0.000000    0.000000i     0.000000    0.000000i
 <Sz= 1.00|    0.000000    0.000000i    -0.000000    0.000000i    -0.000000    0.000004i
Mean-Field SOCC =     0.000005410 cm-1
   
**************************************************
State A: Root  2
State B: Root  6
  
Angular momentum components
< B | Lx | A > =    -0.257510935i
< B | Ly | A > =     0.000000701i
< B | Lz | A > =     0.000000000i
  
Norm of one-particle transition density matrix
||gamma^AB||_total       =  0.658333
||gamma^AB||_symmetrized =  0.467656
||gamma^AB||_anti-symm   =  0.463357
  
Spin-orbit couplings
 Using HF (reference) density for the 2-elec mean-field SOC contribution
KET: S',Sz' (Root   2) =  1.000 1.000
BRA: S ,Sz  (Root   6) =  1.000 1.000
Clebsh-Gordan coefficient: < 1.000, 1.000; 1.000, 0.000| 1.000, 1.000> =  0.707
 Reading 1e-SO integrals
 1e Reduced matrix elements (cm-1)
<S|| Hso(L-) ||S'> =     0.0003113332  -114.4336109976
<S|| Hso(L0) ||S'> =     0.0000000000     0.0000000000
<S|| Hso(L+) ||S'> =     0.0003113332   114.4336109976
 1-elec SOC matrix (cm-1): < B(S,Sz) | Hso(1e) | A(S',Sz') >
                     |Sz'=-1.00>              |Sz'= 0.00>              |Sz'= 1.00>
 <Sz=-1.00|   -0.000000    0.000000i     0.000220   80.916782i     0.000000    0.000000i
 <Sz= 0.00|   -0.000220   80.916782i    -0.000000   -0.000000i     0.000220   80.916782i
 <Sz= 1.00|    0.000000   -0.000000i    -0.000220   80.916782i    -0.000000   -0.000000i
1-elec SOCC =   161.833564665 cm-1
 Reading 2e-SOMF integrals
 2e-SOMF Reduced matrix elements (cm-1)
<S|| Hso(L-) ||S'> =    -0.0000619936    22.8839361628
<S|| Hso(L0) ||S'> =     0.0000000000    -0.0000000000
<S|| Hso(L+) ||S'> =    -0.0000619936   -22.8839361628
 2-elec mean-field SOC matrix (cm-1): < B(S,Sz) | Hso(2e-mf) | A(S',Sz') >
                     |Sz'=-1.00>              |Sz'= 0.00>              |Sz'= 1.00>
 <Sz=-1.00|    0.000000   -0.000000i    -0.000044  -16.181386i    -0.000000   -0.000000i
 <Sz= 0.00|    0.000044  -16.181386i     0.000000    0.000000i    -0.000044  -16.181386i
 <Sz= 1.00|   -0.000000    0.000000i     0.000044  -16.181386i     0.000000   -0.000000i
 Total mean-field SOC matrix (cm-1): < B(S,Sz) | Hsomf | A(S',Sz') >
                     |Sz'=-1.00>              |Sz'= 0.00>              |Sz'= 1.00>
 <Sz=-1.00|   -0.000000    0.000000i     0.000176   64.735396i     0.000000    0.000000i
 <Sz= 0.00|   -0.000176   64.735396i    -0.000000   -0.000000i     0.000176   64.735396i
 <Sz= 1.00|    0.000000   -0.000000i    -0.000176   64.735396i    -0.000000   -0.000000i
Mean-Field SOCC =   129.470791783 cm-1
   
**************************************************
State A: Root  2
State B: Root  7
  
Angular momentum components
< B | Lx | A > =     0.000000701i
< B | Ly | A > =     0.257516761i
< B | Lz | A > =     0.000000000i
  
Norm of one-particle transition density matrix
||gamma^AB||_total       =  0.658356
||gamma^AB||_symmetrized =  0.467672
||gamma^AB||_anti-symm   =  0.463374
  
Spin-orbit couplings
 Using HF (reference) density for the 2-elec mean-field SOC contribution
KET: S',Sz' (Root   2) =  1.000 1.000
BRA: S ,Sz  (Root   7) =  1.000 1.000
Clebsh-Gordan coefficient: < 1.000, 1.000; 1.000, 0.000| 1.000, 1.000> =  0.707
 Reading 1e-SO integrals
 1e Reduced matrix elements (cm-1)
<S|| Hso(L-) ||S'> =   114.4382175043     0.0003113219
<S|| Hso(L0) ||S'> =     0.0000000000    -0.0000000000
<S|| Hso(L+) ||S'> =   114.4382175043    -0.0003113219
[...]
 

                        RESTRICTED (RHF) MOLECULAR ORBITAL COEFFICIENTS
                         1         2         3         4         5         6
 eigenvalues:       -103.843   -15.333   -10.512    -7.963    -7.950    -7.948
   1  N     s       -0.00005   0.99446   0.00101  -0.00114   0.00000  -0.00000
   2  N     s        0.00041   0.02368  -0.00830   0.01190  -0.00000  -0.00000
   3  N     px       0.00000   0.00000  -0.00000  -0.00000  -0.00311  -0.00000
   4  N     py       0.00000   0.00000  -0.00000  -0.00000   0.00000  -0.00310
   5  N     pz       0.00034   0.00356  -0.00613   0.00830  -0.00000  -0.00000
   6  Cl    s        0.99451  -0.00010  -0.37710  -0.00456   0.00000   0.00000
   7  Cl    s        0.01572   0.00020   1.05374   0.01297  -0.00000  -0.00000
   8  Cl    px      -0.00000  -0.00000   0.00000   0.00000   0.99031  -0.00000
   9  Cl    py       0.00000   0.00000  -0.00000   0.00000   0.00000   0.99034
  10  Cl    pz      -0.00012  -0.00056  -0.01018   0.98844  -0.00000  -0.00000
  11  Cl    s       -0.00180  -0.00447   0.04381  -0.00595   0.00000   0.00000
  12  Cl    px      -0.00000  -0.00000   0.00000   0.00000   0.03873   0.00000
  13  Cl    py      -0.00000  -0.00000   0.00000   0.00000  -0.00000   0.03860
  14  Cl    pz       0.00026   0.00459  -0.00586   0.04730  -0.00000  -0.00000
                         7         8         9        10        11        12
 eigenvalues:         -1.206    -0.872    -0.537    -0.518    -0.336    -0.623
   1  N     s       -0.12311   0.17030  -0.00000  -0.00000   0.00000  -0.15268
   2  N     s        0.38962  -0.66439   0.00000  -0.00000  -0.00000   0.68981
   3  N     px       0.00000  -0.00000   0.00000   0.12637   0.00000   0.00000
   4  N     py       0.00000  -0.00000   0.40334  -0.00000   0.92507   0.00000
   5  N     pz       0.14284  -0.14782  -0.00000  -0.00000   0.00000  -0.55409
   6  Cl    s        0.07098   0.05195  -0.00000   0.00000   0.00000  -0.00443
   7  Cl    s       -0.23658  -0.16618   0.00000  -0.00000  -0.00000   0.01645
   8  Cl    px       0.00000   0.00000  -0.00000  -0.27023  -0.00000   0.00000
   9  Cl    py       0.00000  -0.00000  -0.24090   0.00000   0.13830   0.00000
  10  Cl    pz       0.05370  -0.13207  -0.00000  -0.00000   0.00000  -0.15548
  11  Cl    s        0.76862   0.68534  -0.00000   0.00000   0.00000  -0.02802
  12  Cl    px      -0.00000  -0.00000   0.00000   1.00194   0.00000  -0.00000
  13  Cl    py      -0.00000   0.00000   0.88613  -0.00000  -0.53847  -0.00000
  14  Cl    pz      -0.15173   0.42589   0.00000   0.00000  -0.00000   0.56126
                        13        14
 eigenvalues:         -0.443     0.384
   1  N     s        0.00000  -0.08865
   2  N     s       -0.00000   0.53128
   3  N     px       1.00123  -0.00000
   4  N     py      -0.00000  -0.00000
   5  N     pz       0.00000   0.96068
   6  Cl    s       -0.00000  -0.02420
   7  Cl    s        0.00000   0.06757
   8  Cl    px       0.06485   0.00000
   9  Cl    py      -0.00000  -0.00000
  10  Cl    pz       0.00000  -0.21624
  11  Cl    s       -0.00000  -0.46900
  12  Cl    px      -0.26698  -0.00000
  13  Cl    py       0.00000   0.00000
  14  Cl    pz      -0.00000   0.94117
 

======= MOLECULAR ORBITALS IN MOLDEN FORMAT =======
[Molden Format]
[Atoms] (Angs)
  N      1    7      0.00000000      0.00000000     -1.14353333
 Cl      2   17      0.00000000      0.00000000      0.47086667
[GTO]
1    0
S    3    1.000000
   9.91061690E+01    1.54328970E-01 
   1.80523120E+01    5.35328140E-01 
   4.88566020E+00    4.44634540E-01 
SP   3    1.000000
   3.78045590E+00   -9.99672300E-02   1.55916270E-01 
   8.78496600E-01    3.99512830E-01   6.07683720E-01 
   2.85714400E-01    7.00115470E-01   3.91957390E-01 

2    0
S    3    1.000000
   6.01345614E+02    1.54328970E-01 
   1.09535854E+02    5.35328140E-01 
   2.96446769E+01    4.44634540E-01 
SP   3    1.000000
   3.89604189E+01   -9.99672300E-02   1.55916280E-01 
   9.05356348E+00    3.99512830E-01   6.07683720E-01 
   2.94449983E+00    7.00115470E-01   3.91957390E-01 
SP   3    1.000000
   2.12938649E+00   -2.19620370E-01   1.05876000E-02 
   5.94093430E-01    2.25595430E-01   5.95167010E-01 
   2.32524140E-01    9.00398430E-01   4.62001010E-01 

[MO]
Sym=X
Ene= -103.842962
Spin=Alpha
Occup=1
     1   -4.983722217881e-05
     2    4.116437970498e-04
     3    2.604391224385e-21
     4    3.833751413344e-19
     5    3.364795785332e-04
     6    9.945134039037e-01
     7    1.571547335758e-02
     8   -3.075448795193e-17
     9    8.582929240105e-18
    10   -1.194900065195e-04
    11   -1.803693078762e-03
    12   -2.252689855030e-18
    13   -1.923366908988e-18
    14    2.610029244462e-04
Sym=X
Ene= -15.332644
Spin=Alpha
Occup=1
     1    9.944644575160e-01
     2    2.368398187147e-02
     3    5.570671402225e-18
     4    7.486787190618e-16
     5    3.561742563425e-03
     6   -9.860683283242e-05
     7    2.023502384781e-04
     8   -6.251503773039e-16
     9    3.420496043452e-16
    10   -5.641450592152e-04
    11   -4.473459526743e-03
    12   -1.050145264800e-17
    13   -4.485998888673e-16
    14    4.587797198580e-03
Sym=X
Ene= -10.512169
Spin=Alpha
Occup=1
     1    1.007843494706e-03
     2   -8.298390278857e-03
     3   -4.329533441044e-18
     4   -9.935986917866e-17
     5   -6.125734529932e-03
     6   -3.770981477519e-01
     7    1.053744036257e+00
     8    3.822247272262e-16
     9   -8.396510242285e-16
    10   -1.018442579458e-02
    11    4.381209090849e-02
    12    1.665740793890e-17
    13    1.193796477929e-17
    14   -5.860939003539e-03
Sym=X
Ene= -7.962905
Spin=Alpha
Occup=1
     1   -1.142563681013e-03
     2    1.190290176693e-02
     3   -7.020381010553e-17
     4   -7.133526952050e-16
     5    8.300909274074e-03
     6   -4.557873914891e-03
     7    1.297246149064e-02
     8    1.974324263320e-14
     9    2.088787236132e-13
    10    9.884402419954e-01
    11   -5.946981521901e-03
    12    7.565313984106e-16
    13    8.186946090803e-15
    14    4.729833662828e-02
Sym=X
Ene= -7.949976
Spin=Alpha
Occup=1
     1    4.890727091194e-16
     2   -1.557712784669e-15
     3   -3.109789903786e-03
     4    4.584871489107e-11
     5   -4.385261047032e-16
     6    6.225964988174e-16
     7   -7.855685976790e-16
     8    9.903095968114e-01
     9    3.240560868908e-12
    10   -1.998360841908e-14
    11    7.310739748007e-17
    12    3.872634666233e-02
    13   -3.187915584003e-11
    14   -9.208548288160e-17
Sym=X
Ene= -7.948366
Spin=Alpha
Occup=1
     1   -2.086823326096e-16
     2   -2.420588019681e-15
     3   -1.104049383695e-10
     4   -3.100129243721e-03
     5   -1.636747580328e-15
     6    4.368943845174e-16
     7   -1.562090317853e-15
     8   -2.251638538382e-12
     9    9.903442998699e-01
    10   -2.086597948264e-13
    11    1.223253913081e-15
    12    2.984546268389e-11
    13    3.859698259837e-02
    14   -9.999870334411e-15
Sym=X
Ene= -1.205839
Spin=Alpha
Occup=1
     1   -1.231113597285e-01
     2    3.896174012108e-01
     3    1.084504883062e-18
     4    3.041878822890e-14
     5    1.428421336605e-01
     6    7.097868584147e-02
     7   -2.365809256195e-01
     8    1.955302748631e-15
     9    4.466027460699e-15
    10    5.370099142071e-02
    11    7.686181934304e-01
    12   -4.328711306084e-17
    13   -1.832465039209e-14
    14   -1.517312636718e-01
Sym=X
Ene= -0.871925
Spin=Alpha
Occup=1
     1    1.703006856657e-01
     2   -6.643945712596e-01
     3   -1.284758904184e-16
     4   -1.423005674666e-13
     5   -1.478218329508e-01
     6    5.194993159013e-02
     7   -1.661779071874e-01
     8    6.123891654048e-16
     9   -2.176208283246e-14
    10   -1.320654467996e-01
    11    6.853440781707e-01
    12   -1.258243022318e-15
    13    8.830520093893e-14
    14    4.258946710438e-01
Sym=X
Ene= -0.537013
Spin=Alpha
Occup=1
     1   -1.294100447442e-14
     2    5.845271668027e-14
     3    1.605892974575e-07
     4    4.033445162938e-01
     5   -4.582229915904e-14
     6   -3.152391073686e-16
     7    2.247396105774e-15
     8   -8.393459436484e-08
     9   -2.409010905074e-01
    10   -1.182885061313e-14
    11   -4.489394880774e-15
    12    3.081024938994e-07
    13    8.861299152722e-01
    14    4.225028389229e-14
Sym=X
Ene= -0.517635
Spin=Alpha
Occup=1
     1   -2.366844113549e-16
     2   -6.139737698213e-16
     3    1.263651050746e-01
     4   -5.971310647838e-07
     5   -4.164413706380e-16
     6    3.394516392704e-16
     7   -3.681720728081e-16
     8   -2.702304758336e-01
     9    1.278656939693e-08
    10   -2.204028702354e-17
    11    1.331949826457e-15
    12    1.001939353531e+00
    13   -3.223914623269e-08
    14    9.285031841491e-16
Sym=X
Ene= -0.335803
Spin=Alpha
Occup=1
     1    6.467505896925e-13
     2   -2.889693742822e-12
     3    2.857660690928e-07
     4    9.250656260973e-01
     5    2.380430064943e-12
     6    2.082587111463e-14
     7   -7.649319304906e-14
     8   -1.201245621388e-07
     9    1.383049611361e-01
    10    5.898369792167e-13
    11    1.352981503670e-13
    12    4.392927795147e-07
    13   -5.384653479859e-01
    14   -2.118514948876e-12
Sym=X
Ene= -0.623165
Spin=Alpha
Occup=1
     1   -1.526840649059e-01
     2    6.898088193569e-01
     3    4.065635916292e-16
     4    3.778222204657e-12
     5   -5.540930546363e-01
     6   -4.433340685241e-03
     7    1.645342169709e-02
     8    7.772022072277e-16
     9    5.897370337518e-13
    10   -1.554781557136e-01
    11   -2.802442481712e-02
    12   -9.221143468086e-16
    13   -2.291188703168e-12
    14    5.612560207692e-01
Sym=X
Ene= -0.442719
Spin=Alpha
Occup=1
     1    9.167653009706e-17
     2   -3.590690929269e-16
     3    1.001231747219e+00
     4   -2.533567738795e-07
     5    3.581318115974e-16
     6   -1.088142614135e-16
     7    1.550320181645e-16
     8    6.485231191906e-02
     9   -2.340272616033e-09
    10    1.935041447672e-16
    11   -2.165307750641e-16
    12   -2.669806860199e-01
    13    1.563095460040e-08
    14   -4.225574187651e-16
Sym=X
Ene= 0.383870
Spin=Alpha
Occup=0
     1   -8.865416716189e-02
     2    5.312763540660e-01
     3   -3.864681188965e-17
     4   -1.199657819453e-13
     5    9.606827843310e-01
     6   -2.419627552311e-02
     7    6.756974573469e-02
     8    1.125816080747e-16
     9   -1.830214944866e-14
    10   -2.162352262940e-01
    11   -4.690045047449e-01
    12   -9.935907539040e-18
    13    7.153322914044e-14
    14    9.411659663255e-01

======= END OF MOLDEN-FORMAT MOLECULAR ORBITALS =======

          Ground-State Mulliken Net Atomic Charges

     Atom                 Charge (a.u.)
  ----------------------------------------
      1 N                    -0.161305
      2 Cl                    0.161305
  ----------------------------------------
  Sum of atomic charges =     0.000000

 -----------------------------------------------------------------
                    Cartesian Multipole Moments
 -----------------------------------------------------------------
    Charge (ESU x 10^10)
                -0.0000
    Dipole Moment (Debye)
         X      -0.0000      Y       0.0000      Z       0.1080
       Tot       0.1080
    Quadrupole Moments (Debye-Ang)
        XX     -15.9913     XY      -0.0000     YY     -17.0499
        XZ      -0.0000     YZ      -0.0000     ZZ     -14.9854
    Octopole Moments (Debye-Ang^2)
       XXX      -0.0000    XXY       0.0000    XYY      -0.0000
       YYY       0.0000    XXZ      -0.5038    XYZ       0.0000
       YYZ       0.6073    XZZ      -0.0000    YZZ       0.0000
       ZZZ      -0.5309
    Hexadecapole Moments (Debye-Ang^3)
      XXXX     -12.2911   XXXY      -0.0000   XXYY      -4.2524
      XYYY      -0.0000   YYYY     -13.2236   XXXZ      -0.0000
      XXYZ      -0.0000   XYYZ      -0.0000   YYYZ      -0.0000
      XXZZ     -12.2929   XYZZ      -0.0000   YYZZ     -13.8419
      XZZZ      -0.0000   YZZZ      -0.0000   ZZZZ     -55.1728
 -----------------------------------------------------------------
 Mayer SCF Bond Order, atomic valence on the diagonal:

            1           2
    1   0.9978968   0.9978968
    2   0.9978968   0.9978968


 Total job time:  58.39s(wall), 16.74s(cpu) 
 Tue Oct 24 11:11:23 2023

======= MOLDEN-FORMATTED INPUT FILE FOLLOWS =======
[Molden Format]
[Atoms] (Angs)
  N      1    7      0.00000000      0.00000000     -1.14353333
 Cl      2   17      0.00000000      0.00000000      0.47086667
[GTO]
1    0
S    3    1.000000
   9.91061690E+01    1.54328970E-01 
   1.80523120E+01    5.35328140E-01 
   4.88566020E+00    4.44634540E-01 
SP   3    1.000000
   3.78045590E+00   -9.99672300E-02   1.55916270E-01 
   8.78496600E-01    3.99512830E-01   6.07683720E-01 
   2.85714400E-01    7.00115470E-01   3.91957390E-01 

2    0
S    3    1.000000
   6.01345614E+02    1.54328970E-01 
   1.09535854E+02    5.35328140E-01 
   2.96446769E+01    4.44634540E-01 
SP   3    1.000000
   3.89604189E+01   -9.99672300E-02   1.55916280E-01 
   9.05356348E+00    3.99512830E-01   6.07683720E-01 
   2.94449983E+00    7.00115470E-01   3.91957390E-01 
SP   3    1.000000
   2.12938649E+00   -2.19620370E-01   1.05876000E-02 
   5.94093430E-01    2.25595430E-01   5.95167010E-01 
   2.32524140E-01    9.00398430E-01   4.62001010E-01 

[MO]
Sym=X
Ene= -103.842962
Spin=Alpha
Occup=1
     1   -4.983722217881e-05
     2    4.116437970498e-04
     3    2.604391224385e-21
     4    3.833751413344e-19
     5    3.364795785332e-04
     6    9.945134039037e-01
     7    1.571547335758e-02
     8   -3.075448795193e-17
     9    8.582929240105e-18
    10   -1.194900065195e-04
    11   -1.803693078762e-03
    12   -2.252689855030e-18
    13   -1.923366908988e-18
    14    2.610029244462e-04
Sym=X
Ene= -15.332644
Spin=Alpha
Occup=1
     1    9.944644575160e-01
     2    2.368398187147e-02
     3    5.570671402225e-18
     4    7.486787190618e-16
     5    3.561742563425e-03
     6   -9.860683283242e-05
     7    2.023502384781e-04
     8   -6.251503773039e-16
     9    3.420496043452e-16
    10   -5.641450592152e-04
    11   -4.473459526743e-03
    12   -1.050145264800e-17
    13   -4.485998888673e-16
    14    4.587797198580e-03
Sym=X
Ene= -10.512169
Spin=Alpha
Occup=1
     1    1.007843494706e-03
     2   -8.298390278857e-03
     3   -4.329533441044e-18
     4   -9.935986917866e-17
     5   -6.125734529932e-03
     6   -3.770981477519e-01
     7    1.053744036257e+00
     8    3.822247272262e-16
     9   -8.396510242285e-16
    10   -1.018442579458e-02
    11    4.381209090849e-02
    12    1.665740793890e-17
    13    1.193796477929e-17
    14   -5.860939003539e-03
Sym=X
Ene= -7.962905
Spin=Alpha
Occup=1
     1   -1.142563681013e-03
     2    1.190290176693e-02
     3   -7.020381010553e-17
     4   -7.133526952050e-16
     5    8.300909274074e-03
     6   -4.557873914891e-03
     7    1.297246149064e-02
     8    1.974324263320e-14
     9    2.088787236132e-13
    10    9.884402419954e-01
    11   -5.946981521901e-03
    12    7.565313984106e-16
    13    8.186946090803e-15
    14    4.729833662828e-02
Sym=X
Ene= -7.949976
Spin=Alpha
Occup=1
     1    4.890727091194e-16
     2   -1.557712784669e-15
     3   -3.109789903786e-03
     4    4.584871489107e-11
     5   -4.385261047032e-16
     6    6.225964988174e-16
     7   -7.855685976790e-16
     8    9.903095968114e-01
     9    3.240560868908e-12
    10   -1.998360841908e-14
    11    7.310739748007e-17
    12    3.872634666233e-02
    13   -3.187915584003e-11
    14   -9.208548288160e-17
Sym=X
Ene= -7.948366
Spin=Alpha
Occup=1
     1   -2.086823326096e-16
     2   -2.420588019681e-15
     3   -1.104049383695e-10
     4   -3.100129243721e-03
     5   -1.636747580328e-15
     6    4.368943845174e-16
     7   -1.562090317853e-15
     8   -2.251638538382e-12
     9    9.903442998699e-01
    10   -2.086597948264e-13
    11    1.223253913081e-15
    12    2.984546268389e-11
    13    3.859698259837e-02
    14   -9.999870334411e-15
Sym=X
Ene= -1.205839
Spin=Alpha
Occup=1
     1   -1.231113597285e-01
     2    3.896174012108e-01
     3    1.084504883062e-18
     4    3.041878822890e-14
     5    1.428421336605e-01
     6    7.097868584147e-02
     7   -2.365809256195e-01
     8    1.955302748631e-15
     9    4.466027460699e-15
    10    5.370099142071e-02
    11    7.686181934304e-01
    12   -4.328711306084e-17
    13   -1.832465039209e-14
    14   -1.517312636718e-01
Sym=X
Ene= -0.871925
Spin=Alpha
Occup=1
     1    1.703006856657e-01
     2   -6.643945712596e-01
     3   -1.284758904184e-16
     4   -1.423005674666e-13
     5   -1.478218329508e-01
     6    5.194993159013e-02
     7   -1.661779071874e-01
     8    6.123891654048e-16
     9   -2.176208283246e-14
    10   -1.320654467996e-01
    11    6.853440781707e-01
    12   -1.258243022318e-15
    13    8.830520093893e-14
    14    4.258946710438e-01
Sym=X
Ene= -0.537013
Spin=Alpha
Occup=1
     1   -1.294100447442e-14
     2    5.845271668027e-14
     3    1.605892974575e-07
     4    4.033445162938e-01
     5   -4.582229915904e-14
     6   -3.152391073686e-16
     7    2.247396105774e-15
     8   -8.393459436484e-08
     9   -2.409010905074e-01
    10   -1.182885061313e-14
    11   -4.489394880774e-15
    12    3.081024938994e-07
    13    8.861299152722e-01
    14    4.225028389229e-14
Sym=X
Ene= -0.517635
Spin=Alpha
Occup=1
     1   -2.366844113549e-16
     2   -6.139737698213e-16
     3    1.263651050746e-01
     4   -5.971310647838e-07
     5   -4.164413706380e-16
     6    3.394516392704e-16
     7   -3.681720728081e-16
     8   -2.702304758336e-01
     9    1.278656939693e-08
    10   -2.204028702354e-17
    11    1.331949826457e-15
    12    1.001939353531e+00
    13   -3.223914623269e-08
    14    9.285031841491e-16
Sym=X
Ene= -0.335803
Spin=Alpha
Occup=1
     1    6.467505896925e-13
     2   -2.889693742822e-12
     3    2.857660690928e-07
     4    9.250656260973e-01
     5    2.380430064943e-12
     6    2.082587111463e-14
     7   -7.649319304906e-14
     8   -1.201245621388e-07
     9    1.383049611361e-01
    10    5.898369792167e-13
    11    1.352981503670e-13
    12    4.392927795147e-07
    13   -5.384653479859e-01
    14   -2.118514948876e-12
Sym=X
Ene= -0.623165
Spin=Alpha
Occup=1
     1   -1.526840649059e-01
     2    6.898088193569e-01
     3    4.065635916292e-16
     4    3.778222204657e-12
     5   -5.540930546363e-01
     6   -4.433340685241e-03
     7    1.645342169709e-02
     8    7.772022072277e-16
     9    5.897370337518e-13
    10   -1.554781557136e-01
    11   -2.802442481712e-02
    12   -9.221143468086e-16
    13   -2.291188703168e-12
    14    5.612560207692e-01
Sym=X
Ene= -0.442719
Spin=Alpha
Occup=1
     1    9.167653009706e-17
     2   -3.590690929269e-16
     3    1.001231747219e+00
     4   -2.533567738795e-07
     5    3.581318115974e-16
     6   -1.088142614135e-16
     7    1.550320181645e-16
     8    6.485231191906e-02
     9   -2.340272616033e-09
    10    1.935041447672e-16
    11   -2.165307750641e-16
    12   -2.669806860199e-01
    13    1.563095460040e-08
    14   -4.225574187651e-16
Sym=X
Ene= 0.383870
Spin=Alpha
Occup=0
     1   -8.865416716189e-02
     2    5.312763540660e-01
     3   -3.864681188965e-17
     4   -1.199657819453e-13
     5    9.606827843310e-01
     6   -2.419627552311e-02
     7    6.756974573469e-02
     8    1.125816080747e-16
     9   -1.830214944866e-14
    10   -2.162352262940e-01
    11   -4.690045047449e-01
    12   -9.935907539040e-18
    13    7.153322914044e-14
    14    9.411659663255e-01

======= END OF MOLDEN-FORMATTED INPUT FILE =======


        *************************************************************
        *                                                           *
        *  Thank you very much for using Q-Chem.  Have a nice day.  *
        *                                                           *
        *************************************************************


